Control file title. For DL_FIELD 4.10
49914
    1RES     O1    1   5.985   4.241   7.363  0.0808  0.2690 -0.0261
    1RES     C2    2   6.114   4.203   7.390 -0.2891 -0.2292 -0.3491
    1RES     C3    3   6.205   4.328   7.392  0.1987 -0.1091 -0.9087
    1RES     C4    4   6.349   4.291   7.430  0.1993  0.1865 -0.0194
    1RES     O5    5   6.436   4.402   7.447  0.4079  0.4143  0.1701
    1RES     C6    6   6.566   4.365   7.492 -0.3692 -0.1416  0.5958
    1RES     H7    7   6.136   4.142   7.478 -0.2962 -0.9278 -0.8261
    1RES     H8    8   6.141   4.134   7.309 -1.9384 -0.2747 -0.8831
    1RES     H9    9   6.158   4.399   7.460  0.2236  0.2173 -1.2331
    1RES    H10   10   6.398   4.213   7.371 -1.4064 -0.8628 -0.0020
    1RES    H11   11   6.345   4.251   7.532  0.3502  1.0245  0.3179
    1RES    H12   12   6.626   4.452   7.520 -2.2033  1.2949  0.2396
    1RES    H13   13   6.570   4.312   7.587  0.2750 -0.0087  0.6476
    1RES    H14   14   6.622   4.306   7.419 -1.1620  0.5964 -0.6471
    1RES    H15   15   5.999   4.305   7.294 -0.9397 -0.7724 -1.2421
    1RES    O16   16   6.191   4.376   7.261 -0.0031  0.6764 -0.3281
    1RES    C17   17   6.265   4.497   7.229  0.2622 -0.1288 -0.4314
    1RES    C18   18   6.224   4.546   7.087  0.4753 -0.2580  0.3616
    1RES    C19   19   6.194   4.430   6.989 -0.0360  0.4384 -0.3803
    1RES    O20   20   6.190   4.469   6.850  0.2573  0.1866  0.3765
    1RES    C21   21   6.136   4.373   6.764 -0.6001 -0.1535 -0.0517
    1RES    H22   22   6.370   4.469   7.222 -0.1209 -1.0920 -2.9947
    1RES    H23   23   6.259   4.579   7.300 -1.6336  0.0205 -0.7453
    1RES    H24   24   6.295   4.620   7.051 -1.2781  2.1234  1.6187
    1RES    H25   25   6.283   4.367   6.981  0.9771  1.9443 -1.2673
    1RES    H26   26   6.106   4.377   7.026 -0.5501  1.8622  0.4762
    1RES    H27   27   6.128   4.410   6.662  0.6028  1.3537  0.3977
    1RES    H28   28   6.038   4.333   6.792  0.0371 -2.3452 -0.8767
    1RES    H29   29   6.208   4.291   6.760  0.4353  0.7823 -0.7638
    1RES    O30   30   6.099   4.621   7.102 -0.4495  0.0220 -0.4940
    1RES    C31   31   6.101   4.738   7.012  0.0590  0.1743  0.0485
    1RES    C32   32   5.960   4.791   6.985  0.4445 -0.0759  0.0639
    1RES    C33   33   5.961   4.894   6.874 -0.1423 -0.5008  0.3653
    1RES    O34   34   5.826   4.911   6.827 -0.6646  0.1893 -0.0373
    1RES    C35   35   5.810   5.016   6.731 -0.4477 -0.0620  0.5820
    1RES    H36   36   6.169   4.821   7.031  0.3672  0.4254 -2.0264
    1RES    H37   37   6.149   4.706   6.919  0.5724  0.7810  0.1020
    1RES    H38   38   5.894   4.708   6.960 -2.5276  1.6376  1.8979
    1RES    H39   39   6.026   4.860   6.794  0.5844 -0.5072  0.9599
    1RES    H40   40   6.000   4.991   6.905  0.4135 -1.1187  1.5951
    1RES    H41   41   5.859   5.109   6.758  2.9987 -1.5856 -0.1814
    1RES    H42   42   5.707   5.038   6.701 -0.6191  0.6100  1.6204
    1RES    H43   43   5.870   4.980   6.648  1.2630  0.9289  1.3658
    1RES    O44   44   5.919   4.863   7.106 -0.3727 -0.7899  0.0133
    1RES    C45   45   5.830   4.787   7.182  0.7912 -0.0756 -0.3667
    1RES    C46   46   5.788   4.870   7.304  0.5177  0.1654 -0.6133
    1RES    C47   47   5.700   4.788   7.399  0.5364  0.3519  0.0718
    1RES    O48   48   5.629   4.853   7.503 -0.0018 -0.4520  0.3483
    1RES    C49   49   5.692   4.862   7.624  0.1863  0.0099  0.4790
    1RES    H50   50   5.879   4.691   7.198 -1.4028 -1.3133 -0.9042
    1RES    H51   51   5.741   4.777   7.121  1.5328 -0.3512 -1.4233
    1RES    H52   52   5.739   4.966   7.283  1.4628  1.3995  2.5285
    1RES    H53   53   5.625   4.734   7.341  2.4123 -0.0043 -2.0964
    1RES    H54   54   5.761   4.706   7.436  1.3040  0.5076 -0.8177
    1RES    H55   55   5.801   4.856   7.624  0.1442 -0.9005 -1.0519
    1RES    H56   56   5.664   4.773   7.680 -1.3175  0.1258 -0.0871
    1RES    H57   57   5.665   4.952   7.680  0.5160 -0.4817  1.4508
    1RES    O58   58   5.909   4.925   7.366  0.4321 -0.9095 -0.2042
    1RES    C59   59   6.006   4.830   7.409  0.1550 -0.3144 -0.1463
    1RES    C60   60   6.140   4.887   7.468 -0.6670 -0.1823  0.1338
    1RES    C61   61   6.263   4.802   7.472 -0.9248  0.2204 -0.3262
    1RES    O62   62   6.218   4.676   7.527 -0.2195 -0.4294  0.0954
    1RES    C63   63   6.294   4.633   7.634 -0.3101  0.4499 -0.5107
    1RES    H64   64   6.039   4.760   7.332  2.5727  0.2086  0.3787
    1RES    H65   65   5.962   4.760   7.480  1.1151 -0.1589  0.6241
    1RES    H66   66   6.184   4.972   7.414  1.9267 -2.3485 -1.2879
    1RES    H67   67   6.298   4.781   7.371  1.0607  0.4602  0.2947
    1RES    H68   68   6.342   4.849   7.529 -2.2603 -1.6625  3.2313
    1RES    H69   69   6.400   4.616   7.613 -0.5158 -0.5505 -0.7242
    1RES    H70   70   6.249   4.538   7.660 -0.1899  0.0127 -1.8570
    1RES    H71   71   6.279   4.703   7.716 -1.2121 -0.5615  0.1879
    1RES    O72   72   6.126   4.926   7.598  0.1433  0.4632 -0.1808
    1RES    C73   73   6.101   5.067   7.624 -0.3299 -0.3979 -0.4739
    1RES    C74   74   6.046   5.109   7.761 -0.3816 -0.1095 -0.0165
    1RES    C75   75   5.994   5.260   7.769  0.4287 -0.4746 -0.1849
    1RES    O76   76   5.895   5.283   0.055  0.6269  0.0457  0.3367
    1RES    C77   77   5.836   5.414   0.047  0.2514 -0.1608 -0.6463
    1RES    H78   78   6.197   5.115   7.608  0.1535 -1.2852 -0.2530
    1RES    H79   79   6.035   5.096   7.542 -0.4752 -0.9132 -0.5450
    1RES    H80   80   5.952   5.054   7.773 -0.4305 -0.4144 -1.6823
    1RES    H81   81   5.941   5.282   7.677 -0.6604 -1.1982  0.2638
    1RES    H82   82   6.081   5.326   7.777  1.1133 -1.7133  4.3055
    1RES    H83   83   5.756   5.416   0.121 -1.1763  0.6230 -2.1930
    1RES    H84   84   5.791   5.438   7.768 -1.5199  0.4052  0.3135
    1RES    H85   85   5.913   5.488   0.067  2.2150 -1.7734 -1.9964
    1RES    O86   86   6.166   5.104   0.032 -0.5729 -0.1078 -0.1057
    1RES    C87   87   6.200   4.981   0.097  0.5314 -0.0223  0.0507
    1RES    C88   88   6.086   4.927   0.192 -0.2650 -0.7230  1.2949
    1RES    C89   89   5.999   4.826   0.121 -0.7714 -0.0943 -0.3071
    1RES    O90   90   5.865   4.832   0.149 -0.4189 -0.1671  0.0170
    1RES    C91   91   5.822   4.824   0.290 -0.1129  1.2438 -0.2367
    1RES    H92   92   6.216   4.898   0.027  1.0827  0.0656  0.0704
    1RES    H93   93   6.291   4.985   0.157  0.6743  0.2394 -0.1835
    1RES    H94   94   6.033   5.021   0.206  0.2361 -0.0827 -0.9986
    1RES    H95   95   6.002   4.832   0.012  2.0275 -0.7979 -0.3097
    1RES    H96   96   6.030   4.724   0.147 -0.0969  0.0781 -0.4369
    1RES    H97   97   5.716   4.802   0.295  0.5252 -2.0725 -0.3148
    1RES    H98   98   5.865   4.743   0.350 -1.5636 -0.3410 -1.2986
    1RES    H99   99   5.844   4.915   0.346  3.6062 -0.3974  1.1661
    1RES   O100  100   6.139   4.881   0.314  0.1694 -0.0740 -0.9132
    1RES   C101  101   6.176   4.987   0.406  0.3231 -0.5400 -0.6767
    1RES   C102  102   6.234   4.918   0.532  0.4751  0.2295  1.0242
    1RES   C103  103   6.231   5.008   0.651  0.2026 -0.5705 -0.0375
    1RES   O104  104   6.317   4.959   0.755 -0.7600 -0.3423 -0.1363
    1RES   C105  105   6.330   5.039   0.867  1.0238  0.1245 -0.0311
    1RES   H106  106   6.086   5.036   0.443 -0.4552 -2.2120 -0.2700
    1RES   H107  107   6.238   5.069   0.371 -1.1172  0.3507 -1.1603
    1RES   H108  108   6.190   4.820   0.553  2.0947 -0.4981  1.0599
    1RES   H109  109   6.126   5.018   0.679  0.6047 -1.1697  1.8077
    1RES   H110  110   6.266   5.105   0.618  2.7211 -1.8230 -1.2165
    1RES   H111  111   6.355   5.138   0.830  1.6150 -0.8320 -2.2505
    1RES   H112  112   6.402   5.016   0.946  0.3979  2.0352  1.1416
    1RES   H113  113   6.233   5.056   0.914  2.5840  4.1359  1.9936
    1RES   O114  114   6.374   4.913   0.512  0.0430 -1.1158 -0.0883
    1RES   C115  115   6.430   4.805   0.442  0.1188  0.2850  0.6505
    1RES   C116  116   6.581   4.817   0.427 -0.3323 -0.8218  0.1378
    1RES   C117  117   6.626   4.676   0.390 -0.2705 -0.0964 -0.5394
    1RES   O118  118   6.710   4.611   0.484 -0.7255 -1.0174 -0.3605
    1RES   C119  119   6.645   4.568   0.605  0.0369 -0.0174  1.4550
    1RES   H120  120   6.407   4.716   0.502 -0.1485  0.6064  1.0261
    1RES   H121  121   6.388   4.784   0.344  2.6332 -1.6328 -0.0775
    1RES   H122  122   6.606   4.846   0.529  0.4868 -0.2516 -0.2182
    1RES   H123  123   6.544   4.618   0.350 -0.0310 -0.4258 -0.5576
    1RES   H124  124   6.695   4.687   0.307  0.3844 -1.9994 -0.2641
    1RES   H125  125   6.575   4.489   0.576  2.7896 -0.6942 -4.2536
    1RES   H126  126   6.600   4.642   0.670  1.2483  2.1029 -0.0815
    1RES   H127  127   6.714   4.508   0.665  0.2852 -1.4134 -0.1507
    1RES   O128  128   6.614   4.916   0.334  0.3480 -0.3507  0.4955
    1RES   C129  129   6.741   4.974   0.338 -0.0011 -0.7095 -0.0471
    1RES   C130  130   6.743   5.107   0.254 -1.0460  0.5507 -0.1228
    1RES   C131  131   6.879   5.136   0.194 -0.9107 -0.7093 -0.2012
    1RES   O132  132   6.874   5.245   0.099  0.2826  0.0612 -0.2983
    1RES   C133  133   6.980   5.231   0.004  0.0517  0.1583 -0.1013
    1RES   H134  134   6.781   4.983   0.439 -1.9651 -0.3594  0.7384
    1RES   H135  135   6.819   4.909   0.299  1.6645  0.5921  1.0850
    1RES   H136  136   6.669   5.095   0.175 -0.0619 -1.7609 -0.7182
    1RES   H137  137   6.930   5.048   0.155  1.0369  0.6851 -0.8763
    1RES   H138  138   6.938   5.156   0.283  1.7332 -1.9075 -1.6361
    1RES   H139  139   6.980   5.322   7.762  1.0115  1.7733  2.3325
    1RES   H140  140   7.078   5.226   0.051  1.1412  1.1760 -2.2210
    1RES   H141  141   6.967   5.140   7.763 -2.7626 -0.4101  1.3041
    1RES   O142  142   6.722   5.219   0.342 -0.0939 -0.0321 -0.0925
    1RES   C143  143   6.593   5.229   0.403  0.4018 -0.4067 -0.7971
    1RES   C144  144   6.533   5.372   0.404  0.1548  0.9601 -0.4800
    1RES   C145  145   6.412   5.364   0.500  0.2662 -0.4013 -0.2205
    1RES   O146  146   6.386   5.482   0.580  0.2101 -0.2827  0.2514
    1RES   C147  147   6.353   5.599   0.509 -0.0511 -0.3495 -0.5437
    1RES   H148  148   6.522   5.164   0.351 -0.1444 -3.2258  3.2153
    1RES   H149  149   6.602   5.189   0.504 -0.1077  0.8751 -0.2350
    1RES   H150  150   6.593   5.456   0.440 -0.8714  2.8531 -3.1122
    1RES   H151  151   6.433   5.297   0.583 -0.3617 -0.3414 -0.0128
    1RES   H152  152   6.327   5.321   0.447 -0.3221 -1.5452  1.6268
    1RES   H153  153   6.438   5.625   0.445  0.3760  2.0640  0.9385
    1RES   H154  154   6.344   5.682   0.579 -1.4192 -1.4396  0.6162
    1RES   H155  155   6.269   5.593   0.439 -0.9753  3.0693  0.1807
    1RES   O156  156   6.488   5.410   0.266 -0.3906  0.0417  0.4111
    1RES   C157  157   6.587   5.486   0.196  0.3482  0.6599  0.4142
    1RES   C158  158   6.515   5.529   0.064  0.9192  0.4256  0.1401
    1RES   C159  159   6.610   5.566   7.770  0.3906 -0.4958 -0.4356
    1RES   O160  160   6.552   5.604   7.644 -0.0779 -0.3145 -0.0887
    1RES   C161  161   6.646   5.588   7.537 -0.2115  0.1657  0.1332
    1RES   H162  162   6.606   5.578   0.250 -0.2039  0.7500  0.4578
    1RES   H163  163   6.678   5.429   0.179  0.6336  1.3803 -0.5250
    1RES   H164  164   6.463   5.445   0.020 -3.1366  3.4577 -1.2031
    1RES   H165  165   6.660   5.655   7.809 -1.1318  0.0302  0.3751
    1RES   H166  166   6.675   5.480   7.757 -0.3399 -1.3563  1.3267
    1RES   H167  167   6.605   5.600   7.436  0.1891  0.7709  0.0394
    1RES   H168  168   6.699   5.493   7.534 -0.3827  0.0586  0.4435
    1RES   H169  169   6.720   5.667   7.549 -1.8821  2.3207 -2.7952
    1RES   O170  170   6.441   5.645   0.099  0.3609 -0.0615  0.1574
    1RES   C171  171   6.304   5.617   0.100  0.3595 -0.4633  0.4771
    1RES   C172  172   6.226   5.753   0.115 -0.1234  0.1075  0.2028
    1RES   C173  173   6.085   5.726   0.141  0.3293 -0.5762  0.2698
    1RES   O174  174   6.017   5.844   0.184 -0.0966 -0.0004  0.4319
    1RES   C175  175   5.881   5.833   0.208  0.1283  0.4567 -0.0728
    1RES   H176  176   6.286   5.547   0.182 -0.0409 -1.6563 -0.5925
    1RES   H177  177   6.274   5.566   0.008 -1.7461 -1.2984  1.5663
    1RES   H178  178   6.255   5.818   0.198 -0.2302 -1.4731  1.5156
    1RES   H179  179   6.035   5.687   0.052 -0.0579 -1.9188  1.0566
    1RES   H180  180   6.077   5.666   0.232  1.5185  2.6283  2.6057
    1RES   H181  181   5.817   5.918   0.184 -1.0458  0.6326  3.2918
    1RES   H182  182   5.872   5.823   0.317 -0.1317  2.0940  0.0663
    1RES   H183  183   5.831   5.747   0.164  0.3284  0.8314 -1.0296
    1RES   O184  184   6.237   5.824   7.812  0.1551  0.1643 -0.2428
    1RES   C185  185   6.362   5.894   7.794 -0.2273 -0.4333  0.1482
    1RES   C186  186   6.331   5.991   7.675  0.6444  0.0815 -0.0770
    1RES   C187  187   6.441   6.014   7.574  0.0256 -0.3505  0.3121
    1RES   O188  188   6.387   6.026   7.439  0.1909 -0.3016  0.3724
    1RES   C189  189   6.389   5.898   7.379  0.0172  0.0465  0.5031
    1RES   H190  190   6.442   5.822   7.778  0.7857  0.6475  0.2840
    1RES   H191  191   6.390   5.957   0.061 -0.9620  1.3456 -0.9096
    1RES   H192  192   6.247   5.958   7.614 -0.5733  1.7288  0.6715
    1RES   H193  193   6.518   5.938   7.581  1.0318  0.5405 -0.6687
    1RES   H194  194   6.497   6.107   7.585 -0.3230 -0.0857 -0.1191
    1RES   H195  195   6.308   5.831   7.408  0.5890 -1.0579 -0.4003
    1RES   H196  196   6.370   5.921   7.274  2.1836 -2.1079 -0.4258
    1RES   H197  197   6.487   5.849   7.376  0.2816  0.5243  1.1229
    1RES   O198  198   6.286   6.119   7.725 -0.2779  0.0295 -0.1434
    1RES   C199  199   6.174   6.163   7.651 -0.2286  0.4793 -0.2940
    1RES   C200  200   6.127   6.310   7.657  0.1957  0.0731  0.3528
    1RES   C201  201   6.242   6.412   7.654 -0.1360  0.0595  0.3189
    1RES   O202  202   6.204   6.517   7.570  0.3482 -0.4037  0.1495
    1RES   C203  203   6.259   6.644   7.606 -0.9348  0.1278 -0.1045
    1RES   H204  204   6.093   6.101   7.687  0.6440  0.1783  1.1771
    1RES   H205  205   6.190   6.147   7.544 -0.6276 -1.1641 -0.1162
    1RES   H206  206   6.065   6.333   7.570  1.6052  1.8131 -0.2398
    1RES   H207  207   6.263   6.444   7.756  0.2178 -1.9457  0.9034
    1RES   H208  208   6.335   6.371   7.615  0.7319  3.2515 -1.1494
    1RES   H209  209   6.253   6.726   7.535  1.9377  0.3551 -0.1277
    1RES   H210  210   6.363   6.644   7.638 -0.2174  0.8472 -2.3451
    1RES   H211  211   6.190   6.677   7.683 -0.4015 -0.6758  0.7266
    1RES   O212  212   6.051   6.331   7.774  0.1315  0.7376 -0.0337
    1RES   C213  213   5.972   6.452   7.779 -1.0140 -0.1134 -0.2884
    1RES   C214  214   5.876   6.440   0.082 -0.8277  0.3371 -0.0716
    1RES   C215  215   5.785   6.318   0.096 -0.2372  0.0745 -0.0535
    1RES   O216  216   5.731   6.312   0.229  0.3302 -0.4019 -0.1163
    1RES   C217  217   5.798   6.223   0.317  0.6695 -0.8100 -0.0620
    1RES   H218  218   5.910   6.458   7.689 -0.8134  1.7706 -0.3310
    1RES   H219  219   6.035   6.539   7.799 -2.1595  0.9890 -1.3522
    1RES   H220  220   5.944   6.458   0.165 -1.3086  1.8082  0.0221
    1RES   H221  221   5.701   6.326   0.028 -1.1294  0.3498  1.0609
    1RES   H222  222   5.839   6.229   0.065 -0.7250 -0.6754  1.1894
    1RES   H223  223   5.745   6.233   0.412  0.6485  2.1478 -0.3570
    1RES   H224  224   5.902   6.253   0.328  1.1021 -1.9532 -0.8841
    1RES   H225  225   5.784   6.120   0.283 -0.6600  0.0558 -2.2610
    1RES   O226  226   5.790   6.550   0.063 -0.0962  0.2037  0.0966
    1RES   C227  227   5.738   6.620   0.174 -0.6400  0.7185  0.1860
    1RES   C228  228   5.663   6.744   0.134  0.2736  0.3342 -0.4003
    1RES   C229  229   5.596   6.829   0.251 -0.7156  0.0086  0.0244
    1RES   O230  230   5.696   6.871   0.351 -0.0309  0.4050  0.0110
    1RES   C231  231   5.627   6.956   0.449 -0.0482 -0.2548  0.3634
    1RES   H232  232   5.819   6.661   0.234  1.6338  0.1304 -2.3852
    1RES   H233  233   5.681   6.554   0.240 -1.1187  0.2282 -0.7041
    1RES   H234  234   5.580   6.718   0.068  0.8526 -0.7660 -0.6986
    1RES   H235  235   5.532   6.762   0.308 -0.0628 -2.6717 -2.2715
    1RES   H236  236   5.537   6.911   0.210 -1.8701 -1.7411 -1.8473
    1RES   H237  237   5.524   6.924   0.467 -0.0791  0.0604  0.7593
    1RES   H238  238   5.615   7.060   0.420 -0.7569 -0.1639  0.9471
    1RES   H239  239   5.683   6.946   0.543  0.8531  0.9918 -0.0320
    1RES   O240  240   5.756   6.833   0.062  0.1450  0.0237  0.5290
    1RES   C241  241   5.731   6.829   7.740 -0.3261 -0.0865  0.1389
    1RES   C242  242   5.819   6.925   7.664  0.3534 -0.0235  0.0671
    1RES   C243  243   5.831   6.870   7.520 -0.4691 -0.0381 -0.6936
    1RES   O244  244   5.919   6.944   7.439  0.0395  0.4168  0.2664
    1RES   C245  245   5.964   6.872   7.323  0.3730  0.1935 -0.4107
    1RES   H246  246   5.625   6.849   7.720 -1.0452 -3.3965  0.4004
    1RES   H247  247   5.749   6.725   7.712  0.6391  0.2949 -0.6768
    1RES   H248  248   5.922   6.935   7.699  0.8133  2.3485 -1.8697
    1RES   H249  249   5.868   6.767   7.524 -0.3827  0.0112 -0.1727
    1RES   H250  250   5.734   6.854   7.473 -0.2899  1.6872 -1.6555
    1RES   H251  251   6.039   6.928   7.266 -1.3788  2.8348 -0.1692
    1RES   H252  252   5.885   6.851   7.251  0.7082  1.1082 -1.0452
    1RES   H253  253   6.004   6.772   7.342  1.4284  0.2711 -2.1364
    1RES   O254  254   5.763   7.047   7.671  0.1958 -0.2680 -0.4768
    1RES   C255  255   5.813   7.141   7.767 -0.5178 -1.0777  0.2269
    1RES   C256  256   5.755   7.280   7.750  1.2331 -0.0254  0.0385
    1RES   C257  257   5.757   7.352   0.075  0.8962 -0.7598 -0.9840
    1RES   O258  258   5.665   7.459   0.076  0.7023 -0.2234  0.5611
    1RES   C259  259   5.708   7.544   0.178 -0.4729 -0.7825 -0.9338
    1RES   H260  260   5.787   7.098   0.046  0.4240  3.5764  2.7060
    1RES   H261  261   5.922   7.148   7.769 -0.4827 -0.7729 -1.6043
    1RES   H262  262   5.653   7.269   7.713  1.0341  0.3538  0.4675
    1RES   H263  263   5.731   7.294   0.163  2.9435 -0.1241  0.0730
    1RES   H264  264   5.860   7.384   0.089 -0.0991  2.4227 -0.3717
    1RES   H265  265   5.627   7.612   0.201  0.4979 -0.4913  1.7259
    1RES   H266  266   5.784   7.609   0.136 -0.8323  0.0398 -0.3252
    1RES   H267  267   5.739   7.494   0.270  1.9222  1.7796 -0.3225
    1RES   O268  268   5.824   7.347   7.651  0.0024  0.4185  0.6258
    1RES   C269  269   5.759   7.458   7.600  0.5558 -0.1820  0.1359
    1RES   C270  270   5.832   7.485   7.476 -1.2118 -0.0840 -0.9190
    1RES   C271  271   5.794   7.381   7.370  0.0248 -0.0002  0.1443
    1RES   O272  272   5.845   7.414   7.240  0.6004 -0.0674  0.2103
    1RES   C273  273   5.847   7.306   7.147  0.0959 -0.0322 -0.2400
    1RES   H274  274   5.765   7.538   7.673  0.7657 -0.4166  0.3800
    1RES   H275  275   5.651   7.447   7.587  0.5466  0.4463 -0.3844
    1RES   H276  276   5.795   7.577   7.431  1.0495  1.7277  0.7879
    1RES   H277  277   5.685   7.376   7.367 -0.2431  2.3384  3.5267
    1RES   H278  278   5.819   7.277   7.394 -2.0830 -0.3153  1.0738
    1RES   H279  279   5.748   7.264   7.132  0.3291  0.2456 -2.7717
    1RES   H280  280   5.898   7.226   7.200 -0.5963 -0.6143 -0.4467
    1RES   H281  281   5.903   7.330   7.056  0.8420 -0.1728  0.1781
    1RES   H282  282   5.940   7.494   7.490 -1.6547  2.9653  1.2119
    2RES     O1  283   2.492   1.246   6.286  0.3369 -0.0729 -0.0990
    2RES     C2  284   2.536   1.234   6.154  1.2022  0.7696 -0.2512
    2RES     C3  285   2.686   1.224   6.157  0.4377  0.0890  0.1360
    2RES     C4  286   2.747   1.181   6.014  0.1747  0.2446  0.1091
    2RES     O5  287   2.884   1.144   6.026  0.2293 -0.1156 -0.1690
    2RES     C6  288   2.935   1.077   5.909  0.4513  0.0461  0.4063
    2RES     H7  289   2.502   1.140   6.110 -2.0987  0.3087  2.9782
    2RES     H8  290   2.502   1.323   6.101  0.9712  0.3576 -0.8002
    2RES     H9  291   2.732   1.158   6.230  2.7155  0.8765 -0.5453
    2RES    H10  292   2.746   1.252   5.932  1.4064  0.5387  0.3457
    2RES    H11  293   2.686   1.098   5.978 -0.7533  0.1537  1.8003
    2RES    H12  294   3.042   1.060   5.906  0.5240  0.6819 -0.8766
    2RES    H13  295   2.876   0.987   5.893  0.3721 -0.0957  1.4422
    2RES    H14  296   2.933   1.145   5.824  0.6261 -1.0673 -0.4980
    2RES    H15  297   2.557   1.307   6.318  0.3614 -0.6631  1.0134
    2RES    O16  298   2.732   1.356   6.187 -0.3149 -0.2495  0.2208
    2RES    C17  299   2.824   1.361   6.299  0.3194 -0.1038 -0.1172
    2RES    C18  300   2.854   1.506   6.344  0.7144 -0.6539 -0.1107
    2RES    C19  301   2.895   1.596   6.219 -0.3286  0.0961  0.4369
    2RES    O20  302   2.967   1.704   6.260  0.7346 -0.3441 -0.2536
    2RES    C21  303   3.065   1.759   6.182  0.1910  0.1310 -0.0001
    2RES    H22  304   2.917   1.311   6.272  0.4044 -0.3921  0.6823
    2RES    H23  305   2.789   1.300   6.383  0.5790 -0.5007 -0.2957
    2RES    H24  306   2.935   1.505   6.417  1.2772 -0.6967 -0.7328
    2RES    H25  307   2.937   1.522   6.150 -1.3657  0.0390 -0.1548
    2RES    H26  308   2.797   1.628   6.181  0.8852  2.6716 -0.6301
    2RES    H27  309   3.156   1.701   6.200 -0.9766 -1.2079  1.7500
    2RES    H28  310   3.089   1.861   6.213 -0.3881  0.3252 -0.1882
    2RES    H29  311   3.039   1.769   6.077 -1.3685 -0.7628  0.2837
    2RES    O30  312   2.734   1.563   6.408  0.0923  0.0234  0.7285
    2RES    C31  313   2.741   1.686   6.475 -0.4757 -0.7868  0.2138
    2RES    C32  314   2.598   1.728   6.521 -0.3739  1.2113  0.8785
    2RES    C33  315   2.512   1.615   6.580 -0.3843 -0.2005  0.4633
    2RES    O34  316   2.410   1.666   6.665 -0.1327 -0.0960  0.2707
    2RES    C35  317   2.312   1.567   6.708 -0.4756  0.4906 -0.1224
    2RES    H36  318   2.815   1.665   6.553 -1.0049 -0.9375  0.6748
    2RES    H37  319   2.781   1.759   6.405 -2.0881 -1.4961 -1.4727
    2RES    H38  320   2.612   1.793   6.607  0.8450  2.0655  0.0638
    2RES    H39  321   2.565   1.530   6.624 -1.7788 -1.1225  0.3962
    2RES    H40  322   2.465   1.565   6.495 -2.0238  0.9361  0.6737
    2RES    H41  323   2.276   1.503   6.628 -1.8103  0.2833  0.6229
    2RES    H42  324   2.229   1.621   6.756  1.7649  2.6433  1.4657
    2RES    H43  325   2.356   1.488   6.769  0.0457  0.8820  0.0093
    2RES    O44  326   2.543   1.800   6.412 -0.5501  0.5860  0.3716
    2RES    C45  327   2.442   1.884   6.464  0.2884 -0.0198 -0.4064
    2RES    C46  328   2.398   1.984   6.359 -0.4036 -0.4565 -0.4890
    2RES    C47  329   2.252   2.021   6.390 -0.4067  0.4053 -0.2669
    2RES    O48  330   2.200   2.108   6.289 -0.3804  0.3908 -0.0304
    2RES    C49  331   2.058   2.113   6.263 -0.0388  0.4327 -0.0867
    2RES    H50  332   2.466   1.940   6.555  1.0314 -1.5160  0.3324
    2RES    H51  333   2.360   1.817   6.487  0.5553  0.1177  0.9971
    2RES    H52  334   2.399   1.942   6.258  1.2245 -0.6792 -0.3865
    2RES    H53  335   2.178   1.942   6.401 -0.1285  0.5301  3.1853
    2RES    H54  336   2.257   2.083   6.480 -0.5478 -1.1241  0.8072
    2RES    H55  337   2.038   2.007   6.247  2.1158  0.1675 -1.2117
    2RES    H56  338   2.031   2.176   6.178 -1.0060  0.3738  0.1622
    2RES    H57  339   2.012   2.158   6.351  1.8276 -2.2217  2.3359
    2RES    O58  340   2.475   2.101   6.350 -0.0023 -0.1507 -0.3696
    2RES    C59  341   2.605   2.074   6.304  0.1380 -0.5333  0.6217
    2RES    C60  342   2.679   2.201   6.284 -1.5153 -0.3752  0.4049
    2RES    C61  343   2.794   2.176   6.184  0.7106  0.5809  0.1426
    2RES    O62  344   2.888   2.285   6.166  0.0680 -0.0819 -0.0800
    2RES    C63  345   2.972   2.264   6.054  0.6179 -0.2360  0.8003
    2RES    H64  346   2.619   2.011   6.217  4.1962  1.5448 -0.3539
    2RES    H65  347   2.662   2.027   6.384  0.3490 -1.6939 -0.2064
    2RES    H66  348   2.620   2.283   6.244 -0.3613  0.0549 -0.4333
    2RES    H67  349   2.855   2.087   6.198 -0.7380 -0.7411 -1.7505
    2RES    H68  350   2.743   2.159   6.089  2.0911  1.5407 -0.7849
    2RES    H69  351   2.924   2.286   5.959  2.1728 -0.1442  0.0189
    2RES    H70  352   3.013   2.163   6.052  1.2721 -0.0653  3.4267
    2RES    H71  353   3.060   2.328   6.066  0.4327 -0.4376  3.5351
    2RES    O72  354   2.739   2.241   6.397 -0.7634 -0.0686  0.8610
    2RES    C73  355   2.750   2.386   6.416  0.4718  0.6790 -0.4004
    2RES    C74  356   2.624   2.447   6.477 -0.2864  0.1265  0.2491
    2RES    C75  357   2.629   2.603   6.473 -1.0078  0.1303  0.2391
    2RES    O76  358   2.499   2.635   6.505 -0.0124  0.1444 -0.2647
    2RES    C77  359   2.481   2.773   6.535 -0.1704 -0.2646  0.3803
    2RES    H78  360   2.835   2.390   6.484 -1.4534 -1.5335  2.2499
    2RES    H79  361   2.778   2.436   6.323  0.8839 -1.6722 -1.5796
    2RES    H80  362   2.532   2.414   6.428  0.5584 -0.2610 -1.0975
    2RES    H81  363   2.643   2.642   6.372 -0.2170  1.7004  0.9523
    2RES    H82  364   2.713   2.643   6.529 -1.3962  1.1396  0.1173
    2RES    H83  365   2.534   2.810   6.623  2.9992 -1.2446 -1.0510
    2RES    H84  366   2.377   2.801   6.546 -0.0855  1.8365 -3.4840
    2RES    H85  367   2.490   2.830   6.443  0.4104  0.5580  0.9458
    2RES    O86  368   2.623   2.403   6.617 -0.1903  0.5679 -0.3336
    2RES    C87  369   2.515   2.321   6.641 -0.8825  0.1372 -0.9633
    2RES    C88  370   2.517   2.293   6.783 -0.3338  0.4750 -0.7193
    2RES    C89  371   2.416   2.180   6.818  0.5289 -0.1952  0.4212
    2RES    O90  372   2.392   2.169   6.960 -0.2070  0.6578 -0.0739
    2RES    C91  373   2.314   2.054   6.990  0.0981 -0.6108 -0.2304
    2RES    H92  374   2.420   2.362   6.606 -0.5493  1.7358 -0.0757
    2RES    H93  375   2.525   2.227   6.587  2.1629 -0.2175  0.1066
    2RES    H94  376   2.490   2.380   6.842 -1.6438  0.9438 -1.9590
    2RES    H95  377   2.320   2.205   6.774  0.6306 -0.6040 -0.0358
    2RES    H96  378   2.453   2.087   6.775 -1.6459 -1.8067  1.9675
    2RES    H97  379   2.296   2.039   7.096 -1.0244 -0.3375 -0.3737
    2RES    H98  380   2.222   2.074   6.936 -1.1892  0.3774  2.2652
    2RES    H99  381   2.348   1.959   6.950 -0.2353 -1.3930  1.3240
    2RES   O100  382   2.645   2.236   6.812 -0.0639  0.0168 -0.3752
    2RES   C101  383   2.681   2.255   6.947  0.0484 -0.3697  0.6916
    2RES   C102  384   2.825   2.209   6.975  0.4098 -0.0022 -0.3808
    2RES   C103  385   2.846   2.171   7.117 -0.6620  0.0134 -0.4332
    2RES   O104  386   2.973   2.115   7.127 -0.3643 -0.6580  0.8683
    2RES   C105  387   3.015   2.095   7.264  0.2460 -0.1733  0.0675
    2RES   H106  388   2.624   2.188   7.011 -0.7651 -0.3763 -0.0447
    2RES   H107  389   2.675   2.359   6.979 -2.3280 -0.5122  0.7564
    2RES   H108  390   2.855   2.120   6.919  0.7840  2.1040 -3.6874
    2RES   H109  391   2.775   2.101   7.162 -2.8572  2.2334 -0.3301
    2RES   H110  392   2.838   2.267   7.168 -0.4637  0.8493 -1.9474
    2RES   H111  393   3.038   2.191   7.311 -0.4415  0.1810 -0.3079
    2RES   H112  394   3.107   2.039   7.251 -0.6129 -1.3873 -0.9018
    2RES   H113  395   2.943   2.045   7.328 -0.0091  0.7652  0.5120
    2RES   O114  396   2.911   2.313   6.926 -0.3218 -0.3153  0.3179
    2RES   C115  397   2.952   2.311   6.787  0.5166 -0.4646  0.3282
    2RES   C116  398   3.053   2.197   6.750  0.1747 -0.1223 -0.2001
    2RES   C117  399   3.000   2.121   6.635  0.1139  0.2967 -0.1534
    2RES   O118  400   3.055   1.992   6.620 -0.4774  0.2911  0.3477
    2RES   C119  401   3.020   1.938   6.497 -0.0426  0.0310  0.4942
    2RES   H120  402   2.857   2.305   6.735  1.1033 -1.0304 -0.6904
    2RES   H121  403   3.005   2.402   6.761  1.6097 -0.9999  0.6136
    2RES   H122  404   3.061   2.127   6.833 -0.0807  1.1876  0.9516
    2RES   H123  405   2.892   2.110   6.648  0.2544  0.1614  0.9300
    2RES   H124  406   3.017   2.172   6.540  2.1430 -2.8937 -1.5712
    2RES   H125  407   3.028   1.829   6.491  0.2630  0.0892 -0.1859
    2RES   H126  408   3.086   1.977   6.420  0.7826  0.0786  1.2174
    2RES   H127  409   2.918   1.957   6.463  0.1623  0.7759  0.3015
    2RES   O128  410   3.184   2.257   6.718 -0.1968  0.2221  0.2359
    2RES   C129  411   3.293   2.187   6.783  0.8515 -0.2362  0.1455
    2RES   C130  412   3.418   2.280   6.796  0.1984 -0.6748 -0.1094
    2RES   C131  413   3.382   2.422   6.857  0.6433  0.3933  0.3423
    2RES   O132  414   3.495   2.484   6.925 -0.3812  0.3006 -0.7376
    2RES   C133  415   3.565   2.582   6.847  0.7247 -0.0230  0.4360
    2RES   H134  416   3.262   2.166   6.885 -0.8293 -0.4618 -0.3933
    2RES   H135  417   3.320   2.097   6.729  2.0299 -0.4576  1.1065
    2RES   H136  418   3.478   2.233   6.874  1.6599  1.3355  0.0210
    2RES   H137  419   3.295   2.417   6.923 -0.2259  2.7366 -0.5839
    2RES   H138  420   3.345   2.484   6.776 -2.7154 -2.4251 -0.3936
    2RES   H139  421   3.496   2.645   6.790  0.0249  0.3271  1.6563
    2RES   H140  422   3.621   2.644   6.917 -1.0442 -0.5052  2.3011
    2RES   H141  423   3.635   2.539   6.775 -0.5610  0.4572 -1.1329
    2RES   O142  424   3.482   2.295   6.668  0.1646  0.6414  0.2246
    2RES   C143  425   3.591   2.201   6.649 -0.1025  0.5701  0.2742
    2RES   C144  426   3.721   2.237   6.733  0.7935 -0.4316  0.0444
    2RES   C145  427   3.843   2.152   6.688  0.5752 -0.4823  0.2891
    2RES   O146  428   3.823   2.012   6.725 -0.1250 -0.4898  0.0038
    2RES   C147  429   3.931   1.931   6.684  0.5154  0.6247 -0.2801
    2RES   H148  430   3.569   2.096   6.668 -1.4655  0.6361 -0.8505
    2RES   H149  431   3.622   2.212   6.545  2.4395  1.4594  1.0902
    2RES   H150  432   3.739   2.344   6.719 -1.8485  0.2202  1.3592
    2RES   H151  433   3.934   2.208   6.708  1.2574 -1.2575 -0.5959
    2RES   H152  434   3.846   2.163   6.580  0.6610  0.0560  0.3453
    2RES   H153  435   4.030   1.965   6.717 -0.2249 -0.3033  3.1462
    2RES   H154  436   3.926   1.939   6.576  1.6562  1.2717 -0.2929
    2RES   H155  437   3.924   1.826   6.713 -1.8211  0.5870 -0.8911
    2RES   O156  438   3.704   2.219   6.872 -0.1344 -0.2214 -0.0864
    2RES   C157  439   3.792   2.308   6.947 -0.1433 -0.1811  0.0976
    2RES   C158  440   3.809   2.273   7.094  0.0524 -0.3687  0.4335
    2RES   C159  441   3.808   2.404   7.179 -0.0979 -0.1741  0.3486
    2RES   O160  442   3.915   2.493   7.139 -0.2937  0.4163  0.2253
    2RES   C161  443   3.964   2.593   7.223 -0.2126 -0.6023  0.3875
    2RES   H162  444   3.885   2.314   6.891 -0.8731 -0.0956 -1.1191
    2RES   H163  445   3.753   2.409   6.935 -1.6778 -0.6403  1.0051
    2RES   H164  446   3.717   2.218   7.116  0.5775 -1.4900 -0.1365
    2RES   H165  447   3.716   2.461   7.164 -0.5557 -1.5954 -2.7244
    2RES   H166  448   3.812   2.391   7.287  1.4643  1.6544  0.5444
    2RES   H167  449   3.883   2.665   7.236  0.1671  0.0042 -0.6209
    2RES   H168  450   4.043   2.641   7.167  0.0613 -0.4818  0.8691
    2RES   H169  451   4.010   2.560   7.317  1.8452 -1.8340 -1.0265
    2RES   O170  452   3.932   2.192   7.115  0.1419  0.6562  0.3410
    2RES   C171  453   3.938   2.069   7.040 -0.2724 -0.4152  0.2217
    2RES   C172  454   4.027   1.971   7.116 -0.2410 -0.2392  0.7605
    2RES   C173  455   4.096   1.877   7.015 -0.3720 -0.9190 -0.3086
    2RES   O174  456   4.208   1.816   7.082  0.3016  0.1116 -0.5650
    2RES   C175  457   4.331   1.881   7.059  0.5856  0.7850 -0.5573
    2RES   H176  458   3.983   2.094   6.945 -0.6848  0.7873  0.3293
    2RES   H177  459   3.838   2.027   7.027 -0.5864  0.2767  0.3302
    2RES   H178  460   4.111   2.022   7.162  0.4050 -0.9451  0.3822
    2RES   H179  461   4.023   1.801   6.990 -2.2515  1.2219 -1.6079
    2RES   H180  462   4.129   1.928   6.925 -0.3236  1.4825  0.9907
    2RES   H181  463   4.338   1.971   7.120  2.6042  0.7142 -0.6500
    2RES   H182  464   4.348   1.922   6.959 -3.6523  1.0182 -1.2447
    2RES   H183  465   4.413   1.816   7.091 -0.7302 -0.1714  0.9501
    2RES   O184  466   3.951   1.902   7.212  0.0699  0.4959 -0.2663
    2RES   C185  467   3.942   1.967   7.335 -0.8729 -0.5845 -0.3832
    2RES   C186  468   3.826   1.916   7.422 -0.1202  1.0565 -0.0872
    2RES   C187  469   3.800   2.016   7.539  0.4660 -0.3046 -0.1604
    2RES   O188  470   3.718   2.117   7.478 -0.0761  0.3712  0.3199
    2RES   C189  471   3.683   2.224   7.568  0.5708  0.0341  0.4330
    2RES   H190  472   3.929   2.075   7.322 -1.2813 -0.8474 -2.3616
    2RES   H191  473   4.034   1.970   7.392 -0.4991  0.5347 -1.0219
    2RES   H192  474   3.735   1.911   7.363  0.5444  0.9394 -1.1046
    2RES   H193  475   3.893   2.055   7.582  0.9423 -0.9742 -0.5649
    2RES   H194  476   3.747   1.961   7.616 -1.3523  0.1355 -1.0734
    2RES   H195  477   3.644   2.302   7.503  1.2818  0.2773  0.2918
    2RES   H196  478   3.621   2.196   7.654  1.9439 -0.5209  1.2621
    2RES   H197  479   3.775   2.273   7.599  2.0007 -1.9621 -0.5253
    2RES   O198  480   3.858   1.791   7.471  0.4224  0.7187  0.0031
    2RES   C199  481   3.798   1.695   7.384  0.4062 -0.5374  0.7068
    2RES   C200  482   3.859   1.561   7.393 -0.6634  0.2373  0.4282
    2RES   C201  483   3.789   1.471   7.289  0.1114  0.3944 -1.2105
    2RES   O202  484   3.852   1.339   7.291  0.4572 -0.2227  0.3916
    2RES   C203  485   3.764   1.247   7.234 -0.6810 -0.0902 -0.0632
    2RES   H204  486   3.818   1.731   7.283  0.0376  0.0832  0.8594
    2RES   H205  487   3.690   1.699   7.401  0.1516 -2.4975 -0.2266
    2RES   H206  488   3.966   1.571   7.373 -0.6169 -0.1788  0.4502
    2RES   H207  489   3.682   1.460   7.310 -0.0712  1.5061 -1.5111
    2RES   H208  490   3.806   1.511   7.189  1.0266 -1.3751 -1.7780
    2RES   H209  491   3.797   1.143   7.241  1.6693  0.7926  3.1879
    2RES   H210  492   3.774   1.257   7.126  2.2577  0.5784  0.2377
    2RES   H211  493   3.663   1.251   7.273  0.2390  1.3582  2.2539
    2RES   O212  494   3.834   1.496   7.518  0.6001  0.1924  0.0830
    2RES   C213  495   3.948   1.424   7.567  0.1544 -0.2128  0.0320
    2RES   C214  496   3.906   1.301   7.656 -0.4028 -0.1372 -0.4947
    2RES   C215  497   3.800   1.207   7.583 -0.5200  0.7929 -0.8366
    2RES   O216  498   3.794   1.070   7.636  0.8772  0.6612  0.2845
    2RES   C217  499   3.719   0.976   7.559  0.1387  0.3624 -0.6864
    2RES   H218  500   4.004   1.493   7.630  1.1287  1.1985 -2.3274
    2RES   H219  501   4.012   1.391   7.486 -0.6585  1.3891 -1.2727
    2RES   H220  502   3.986   1.232   7.683 -1.3883 -0.7463  0.9039
    2RES   H221  503   3.698   1.244   7.582 -0.7774  0.0682 -1.6757
    2RES   H222  504   3.838   1.205   7.481 -1.1781 -1.5820 -1.0626
    2RES   H223  505   3.743   0.873   7.588  0.0255  0.3118 -0.7747
    2RES   H224  506   3.737   0.985   7.452  0.3772 -0.3770 -0.7116
    2RES   H225  507   3.611   0.987   7.570 -0.2154 -2.4061 -0.8859
    2RES   O226  508   3.850   1.352   7.772  0.3355 -0.1919  0.0602
    2RES   C227  509   3.753   1.282   0.033  0.3871  0.5222 -0.3298
    2RES   C228  510   3.711   1.362   0.159  0.6740  0.7087  0.1245
    2RES   C229  511   3.622   1.270   0.252 -0.2519  0.0137  0.2864
    2RES   O230  512   3.490   1.308   0.227  0.1726 -0.1188 -0.1668
    2RES   C231  513   3.395   1.236   0.312  0.2070  0.3955  0.7398
    2RES   H232  514   3.796   1.192   0.077 -2.8547 -1.3113 -0.7294
    2RES   H233  515   3.660   1.269   7.795  0.7641 -0.8985 -0.6518
    2RES   H234  516   3.663   1.451   0.119 -0.5425  0.1922  0.4282
    2RES   H235  517   3.659   1.271   0.354 -3.1538  0.0868  1.3878
    2RES   H236  518   3.647   1.167   0.224 -1.4745  0.1598 -1.4716
    2RES   H237  519   3.381   1.136   0.269 -1.1361  0.3278  1.2933
    2RES   H238  520   3.296   1.281   0.301  0.1793  0.0473 -0.5035
    2RES   H239  521   3.415   1.216   0.417  0.2370 -0.5934  0.5548
    2RES   O240  522   3.824   1.405   0.226 -0.1781  0.0995 -0.1239
    2RES   C241  523   3.811   1.513   0.313  0.0515 -0.7026 -0.1890
    2RES   C242  524   3.938   1.506   0.399  0.9423 -0.1665  0.1809
    2RES   C243  525   3.933   1.604   0.520 -0.3862  0.5855  0.1446
    2RES   O244  526   4.063   1.612   0.579 -0.0059  0.5470  0.1259
    2RES   C245  527   4.067   1.696   0.691  0.0817  0.3310 -0.9205
    2RES   H246  528   3.728   1.521   0.384  0.3085  0.4374 -0.0115
    2RES   H247  529   3.807   1.609   0.261 -0.1420 -0.5706  0.0635
    2RES   H248  530   4.016   1.549   0.336  0.1246  1.6909  0.4169
    2RES   H249  531   3.918   1.702   0.475  4.0594  0.8730 -0.9677
    2RES   H250  532   3.849   1.589   0.587  0.3861 -0.5631  0.8832
    2RES   H251  533   4.022   1.794   0.676 -2.2476 -0.6800 -0.6571
    2RES   H252  534   4.169   1.717   0.724  0.4046 -0.5492 -1.3396
    2RES   H253  535   4.010   1.651   0.772  0.0988  0.8645 -0.6077
    2RES   O254  536   3.959   1.376   0.451  0.3557  0.0128  0.1477
    2RES   C255  537   4.095   1.346   0.446 -0.7928  0.2546 -0.7527
    2RES   C256  538   4.125   1.200   0.488 -0.8767 -0.0557  0.2031
    2RES   C257  539   4.059   1.179   0.624  0.3333  0.2551 -0.3053
    2RES   O258  540   4.113   1.076   0.700 -0.0910 -0.0181  0.3196
    2RES   C259  541   4.089   1.088   0.840 -0.2562 -1.0568  0.3281
    2RES   H260  542   4.139   1.354   0.347  2.8173 -3.5766  0.4174
    2RES   H261  543   4.163   1.403   0.508 -0.0560 -1.9479  0.5353
    2RES   H262  544   4.234   1.196   0.490 -0.8777 -0.1616  0.0258
    2RES   H263  545   4.077   1.271   0.679  0.3695  0.5745 -0.8513
    2RES   H264  546   3.951   1.164   0.621  0.4186 -0.6239  0.6217
    2RES   H265  547   3.985   1.114   0.858  0.3835  1.6271  0.3488
    2RES   H266  548   4.146   1.172   0.879 -1.6662 -0.8384  1.9885
    2RES   H267  549   4.108   0.995   0.894 -2.2296 -0.7725  1.5711
    2RES   O268  550   4.072   1.117   0.391 -0.1113 -0.0052  0.1331
    2RES   C269  551   4.119   0.995   0.392 -0.5345 -0.3147 -0.1953
    2RES   C270  552   4.068   0.916   0.272  0.0651  0.2350 -0.1604
    2RES   C271  553   3.918   0.934   0.236 -0.1823  0.1283  0.2276
    2RES   O272  554   3.894   0.842   0.127 -0.6688  0.1973  0.2793
    2RES   C273  555   3.753   0.842   0.085 -0.4448  0.1057  0.1786
    2RES   H274  556   4.073   0.949   0.480 -2.2307  0.4113 -0.6833
    2RES   H275  557   4.228   0.995   0.394 -0.4932 -0.4364 -1.6188
    2RES   H276  558   4.128   0.936   0.183  2.1677 -1.2448  0.8643
    2RES   H277  559   3.911   1.040   0.211  0.4727  0.2829  0.6990
    2RES   H278  560   3.857   0.905   0.321  0.4926 -1.0270  0.3305
    2RES   H279  561   3.693   0.800   0.166 -1.4016 -1.5179 -1.3456
    2RES   H280  562   3.735   0.776   7.817  1.1336 -0.7922  0.5291
    2RES   H281  563   3.723   0.946   0.071  0.1557  0.5554  2.1256
    2RES   H282  564   4.091   0.811   0.293  0.7560  0.0159 -1.9164
    3RES     O1  565   5.785   6.045   1.098 -0.1112 -0.8148  0.0448
    3RES     C2  566   5.856   6.037   0.978 -0.1852  0.2192  0.0693
    3RES     C3  567   5.830   6.158   0.886  0.0102  0.1070 -0.0243
    3RES     C4  568   5.949   6.185   0.792 -0.4652  0.2138  0.0306
    3RES     O5  569   6.057   6.088   0.797 -0.3351 -0.3374  0.3310
    3RES     C6  570   6.177   6.121   0.729 -0.3562  0.1664 -0.2436
    3RES     H7  571   5.961   6.037   1.006  0.6747 -1.1454 -2.9129
    3RES     H8  572   5.827   5.951   0.917  2.2202  0.1623 -1.0768
    3RES     H9  573   5.831   6.251   0.943  2.2398 -0.0729  0.2827
    3RES    H10  574   5.999   6.280   0.810  0.7938 -0.0695 -1.8291
    3RES    H11  575   5.907   6.198   0.692  1.5912  0.7624 -0.7770
    3RES    H12  576   6.249   6.040   0.740 -1.4879 -0.9045 -0.5625
    3RES    H13  577   6.161   6.121   0.621  2.6365  1.7376 -0.7361
    3RES    H14  578   6.218   6.215   0.765 -0.8156  1.2772 -2.5248
    3RES    H15  579   5.695   6.053   1.068  0.7193  2.2106 -1.9018
    3RES    O16  580   5.725   6.126   0.804  0.5169 -0.2450 -0.5600
    3RES    C17  581   5.605   6.198   0.807 -0.0490 -0.2243 -0.1222
    3RES    C18  582   5.528   6.189   0.944 -0.4228  0.5361  0.7888
    3RES    C19  583   5.395   6.270   0.941 -0.5101  0.2982  0.3923
    3RES    O20  584   5.328   6.259   0.815  0.0158  0.4644 -0.4639
    3RES    C21  585   5.195   6.314   0.818  0.8149  0.3643  0.0489
    3RES    H22  586   5.537   6.144   0.740 -0.6069 -0.0685  0.3192
    3RES    H23  587   5.612   6.299   0.768 -1.3933 -0.5488 -1.2375
    3RES    H24  588   5.593   6.247   1.010  0.9131  1.0341 -0.9297
    3RES    H25  589   5.345   6.246   1.034  1.7187  2.4546  2.2214
    3RES    H26  590   5.420   6.375   0.958  3.4943 -0.5950  0.5247
    3RES    H27  591   5.139   6.275   0.903  1.9127  0.0990  0.6646
    3RES    H28  592   5.139   6.291   0.728 -0.7911 -0.7828  1.3104
    3RES    H29  593   5.192   6.422   0.833 -0.4513  0.4134 -0.4953
    3RES    O30  594   5.511   6.059   1.000  0.0337  0.3991 -0.1462
    3RES    C31  595   5.443   5.970   0.913  0.7663  0.0888 -0.1902
    3RES    C32  596   5.389   5.844   0.983  0.1329 -0.5432  0.1314
    3RES    C33  597   5.324   5.873   1.122  0.6459 -0.5156 -0.5321
    3RES    O34  598   5.214   5.784   1.133 -0.1651  0.2972  0.2790
    3RES    C35  599   5.139   5.803   1.253  0.1872  0.2286  0.2229
    3RES    H36  600   5.357   6.027   0.880  2.0428  0.5878 -2.8171
    3RES    H37  601   5.501   5.943   0.824 -0.1378  2.2152 -1.4529
    3RES    H38  602   5.320   5.805   0.908 -0.3258 -0.8568  0.7042
    3RES    H39  603   5.286   5.975   1.124  2.4876  0.2210 -1.8460
    3RES    H40  604   5.386   5.862   1.211 -0.7671 -0.5777  0.4664
    3RES    H41  605   5.056   5.734   1.267 -0.8084  1.2823 -0.3676
    3RES    H42  606   5.106   5.907   1.251 -2.1296 -0.4787 -0.1539
    3RES    H43  607   5.198   5.781   1.341  2.4091  0.6259 -1.1237
    3RES    O44  608   5.499   5.753   0.998 -0.7993  0.2076 -0.1323
    3RES    C45  609   5.457   5.621   1.018 -0.3396 -0.4714 -0.1524
    3RES    C46  610   5.569   5.526   0.987 -0.3399  0.1628 -0.4044
    3RES    C47  611   5.536   5.373   1.004 -0.0832  1.0888 -0.1991
    3RES    O48  612   5.652   5.290   1.015  0.3481  0.5197 -0.5595
    3RES    C49  613   5.617   5.158   1.027 -0.0768  0.5089 -0.3564
    3RES    H50  614   5.372   5.607   0.951 -0.0808  0.0945 -0.6120
    3RES    H51  615   5.432   5.605   1.123  0.8178  4.1534  0.9454
    3RES    H52  616   5.644   5.549   1.062  0.5842 -2.9457 -0.3092
    3RES    H53  617   5.481   5.369   1.098  1.0830  1.1978  0.4984
    3RES    H54  618   5.475   5.342   0.919 -2.2323 -1.2755  2.0888
    3RES    H55  619   5.706   5.097   1.043 -1.0803 -1.1237 -0.8124
    3RES    H56  620   5.556   5.111   0.950  0.7242 -1.9146  0.4487
    3RES    H57  621   5.560   5.139   1.118 -0.0229  1.0190 -0.2192
    3RES    O58  622   5.621   5.534   0.843 -0.1824  0.1763 -0.1096
    3RES    C59  623   5.701   5.648   0.817 -0.1555  0.4173  0.1413
    3RES    C60  624   5.780   5.631   0.685 -0.6552  0.0443 -0.6764
    3RES    C61  625   5.854   5.756   0.652 -0.8614  0.6536 -0.2454
    3RES    O62  626   5.961   5.734   0.557  0.2180 -0.2110  0.1594
    3RES    C63  627   6.031   5.857   0.546  0.3100 -0.4493 -0.5590
    3RES    H64  628   5.766   5.659   0.904 -0.3839 -0.7200  0.4637
    3RES    H65  629   5.637   5.736   0.810  0.3908  0.9133  1.2565
    3RES    H66  630   5.850   5.550   0.703  1.2940  2.3646  2.9063
    3RES    H67  631   5.780   5.823   0.609 -0.6413  0.3570 -1.1018
    3RES    H68  632   5.899   5.797   0.743  0.4073 -1.7697  0.2585
    3RES    H69  633   6.126   5.836   0.497  0.0210  1.4326 -1.9842
    3RES    H70  634   6.062   5.891   0.645 -0.8158 -3.0589  0.7658
    3RES    H71  635   5.985   5.937   0.488  2.7315  1.1517 -0.3408
    3RES    O72  636   5.697   5.591   0.577  0.0709  0.2562 -0.1606
    3RES    C73  637   5.756   5.522   0.467 -0.0649 -0.1824 -0.3409
    3RES    C74  638   5.777   5.368   0.499  0.1064 -0.0754  0.9158
    3RES    C75  639   5.924   5.317   0.504  0.2661 -0.5056 -0.1241
    3RES    O76  640   5.932   5.213   0.607 -0.1190 -0.2204 -0.1439
    3RES    C77  641   5.961   5.273   0.732  0.5622  0.4553  0.2110
    3RES    H78  642   5.679   5.531   0.390 -0.5093 -3.7959 -0.3827
    3RES    H79  643   5.848   5.567   0.430  0.4721 -1.5408 -0.6644
    3RES    H80  644   5.722   5.351   0.591  0.1122 -3.3062  0.4070
    3RES    H81  645   5.993   5.397   0.529  1.2466 -1.0512 -1.0711
    3RES    H82  646   5.962   5.281   0.408 -0.0053  1.9529 -1.1765
    3RES    H83  647   5.961   5.196   0.809  1.7519 -1.8895 -2.0653
    3RES    H84  648   5.905   5.361   0.766  0.9604  0.0767  1.8902
    3RES    H85  649   6.057   5.324   0.735 -0.0108  1.5958 -0.3769
    3RES    O86  650   5.715   5.293   0.389 -0.4376 -0.1604 -0.0826
    3RES    C87  651   5.667   5.169   0.436  0.8234 -0.0564 -0.8130
    3RES    C88  652   5.575   5.099   0.333 -0.4916  0.0361  0.6086
    3RES    C89  653   5.629   5.120   0.194  0.1980 -0.0494 -0.0518
    3RES    O90  654   5.530   5.105   0.094  0.0226  0.3467  0.1889
    3RES    C91  655   5.456   5.226   0.063 -0.1209  1.0325  1.1903
    3RES    H92  656   5.756   5.110   0.457 -0.2198 -0.7436  1.9674
    3RES    H93  657   5.620   5.193   0.532  2.3917 -1.6216  0.3626
    3RES    H94  658   5.481   5.154   0.342 -1.5148 -1.8730  2.0889
    3RES    H95  659   5.676   5.217   0.180  1.7336 -1.0149 -1.9420
    3RES    H96  660   5.702   5.040   0.178  2.0343  1.5735  0.1321
    3RES    H97  661   5.522   5.305   0.026 -0.3337 -0.3253 -2.2426
    3RES    H98  662   5.368   5.218   0.001  1.3301  1.1321 -0.9238
    3RES    H99  663   5.406   5.248   0.158  0.4154  1.2129  1.4336
    3RES   O100  664   5.572   4.967   0.376 -0.0059 -0.1745  0.4410
    3RES   C101  665   5.466   4.888   0.324 -0.2525  0.6764  0.0320
    3RES   C102  666   5.447   4.752   0.397 -1.0115 -0.6534 -0.0529
    3RES   C103  667   5.375   4.655   0.305 -0.4653  0.7921  0.6173
    3RES   O104  668   5.445   4.633   0.188  0.0373  0.7463 -0.1820
    3RES   C105  669   5.393   4.514   0.123 -0.2786  0.4107 -0.0480
    3RES   H106  670   5.498   4.864   0.222 -1.4883  1.5915 -0.5859
    3RES   H107  671   5.375   4.947   0.314 -1.0365 -0.5415 -0.1803
    3RES   H108  672   5.534   4.699   0.435 -0.6575 -1.2432 -1.6597
    3RES   H109  673   5.268   4.674   0.295 -0.7062 -0.2024  1.2025
    3RES   H110  674   5.374   4.559   0.356  0.6665  2.2204  3.4211
    3RES   H111  675   5.426   4.423   0.174  0.1419 -0.3703 -1.6722
    3RES   H112  676   5.436   4.515   0.023 -0.5037  1.1504 -0.1339
    3RES   H113  677   5.285   4.504   0.110  0.0724 -1.1622 -2.0909
    3RES   O114  678   5.352   4.773   0.506 -0.1720 -0.0872 -0.3668
    3RES   C115  679   5.398   4.853   0.609 -0.2866  0.0155 -0.0164
    3RES   C116  680   5.315   4.838   0.733  0.3398 -0.3180 -0.3387
    3RES   C117  681   5.382   4.885   0.864  0.0899  0.2008 -0.1275
    3RES   O118  682   5.311   4.857   0.984 -0.2546  0.3837 -0.2300
    3RES   C119  683   5.390   4.859   1.107 -0.3243  0.2979  0.2930
    3RES   H120  684   5.501   4.822   0.628 -0.5537 -1.0230 -0.2432
    3RES   H121  685   5.401   4.956   0.574 -0.0356 -0.0774 -0.2702
    3RES   H122  686   5.302   4.732   0.758 -0.0050 -0.1489  0.2068
    3RES   H123  687   5.482   4.842   0.856 -1.0075 -2.1569 -1.5153
    3RES   H124  688   5.402   4.992   0.855  3.0590 -0.3780 -0.8611
    3RES   H125  689   5.320   4.855   1.189  1.5765 -0.3666  1.9280
    3RES   H126  690   5.442   4.954   1.121  2.3332 -1.1593  0.6346
    3RES   H127  691   5.456   4.773   1.098 -0.5822  0.2336 -1.2096
    3RES   O128  692   5.189   4.904   0.735 -0.6214  0.1662 -0.6994
    3RES   C129  693   5.102   4.861   0.637 -0.0020  0.9021  0.0905
    3RES   C130  694   4.959   4.906   0.667 -0.2235 -0.4556 -0.1051
    3RES   C131  695   4.863   4.901   0.542  0.0791 -0.8926  0.3793
    3RES   O132  696   4.735   4.973   0.565 -0.9933 -0.1396 -0.2574
    3RES   C133  697   4.663   5.020   0.445  0.0166 -0.1757 -0.3691
    3RES   H134  698   5.125   4.898   0.537 -0.7793 -0.5522 -0.6460
    3RES   H135  699   5.094   4.752   0.633  0.3846  0.9335 -1.8531
    3RES   H136  700   4.919   4.845   0.748  0.5388 -0.7348  0.0611
    3RES   H137  701   4.841   4.799   0.513  2.4319 -1.4371  0.4246
    3RES   H138  702   4.912   4.949   0.457  1.8525 -0.2671  1.7209
    3RES   H139  703   4.732   5.073   0.380  0.6524  0.3740  0.7315
    3RES   H140  704   4.617   4.933   0.398 -1.2861 -0.4163  1.3135
    3RES   H141  705   4.587   5.094   0.466  0.0133 -0.4579  0.6241
    3RES   O142  706   4.967   5.043   0.710  0.3640 -0.3816 -0.3740
    3RES   C143  707   4.941   5.069   0.844  0.0385  0.5951 -0.7554
    3RES   C144  708   4.956   5.222   0.866 -0.3154 -0.2542 -0.4898
    3RES   C145  709   5.022   5.253   0.997  0.3792  0.5975 -0.4702
    3RES   O146  710   5.092   5.385   0.978 -0.6387  0.3929  0.2179
    3RES   C147  711   5.139   5.418   1.111  0.0359 -0.0766 -0.5558
    3RES   H148  712   4.838   5.042   0.866  0.4848 -0.6530 -0.1017
    3RES   H149  713   5.003   5.010   0.913 -1.5725  1.7343  1.7494
    3RES   H150  714   5.029   5.261   0.795 -1.9614  1.2421 -1.3889
    3RES   H151  715   5.089   5.175   1.032 -0.1989 -0.0566 -0.8268
    3RES   H152  716   4.946   5.247   1.075 -0.4660 -0.6178 -1.3875
    3RES   H153  717   5.206   5.503   1.099  1.4051 -0.7736  1.8756
    3RES   H154  718   5.206   5.352   1.167 -1.5721 -1.1983  0.0854
    3RES   H155  719   5.052   5.447   1.170  0.2198 -1.6309  0.5058
    3RES   O156  720   4.830   5.284   0.869  0.0648 -0.2790  0.6621
    3RES   C157  721   4.770   5.286   0.735 -0.5624  0.3155 -0.8743
    3RES   C158  722   4.717   5.431   0.713 -0.3863  0.7584  0.3747
    3RES   C159  723   4.609   5.448   0.611  0.1774 -0.1924 -0.2826
    3RES   O160  724   4.575   5.588   0.604  0.0381  0.5090  0.2766
    3RES   C161  725   4.501   5.625   0.490  0.6694  0.1764  0.0171
    3RES   H162  726   4.823   5.249   0.647 -3.1002  1.8545 -3.0807
    3RES   H163  727   4.687   5.216   0.735  0.1320 -0.5330  1.1650
    3RES   H164  728   4.678   5.466   0.809 -0.5058 -0.6664  0.8609
    3RES   H165  729   4.651   5.406   0.520  1.9936 -1.3464  1.0501
    3RES   H166  730   4.524   5.381   0.623  1.1609 -1.5916 -1.0181
    3RES   H167  731   4.558   5.620   0.398 -0.4541  0.2439 -0.6859
    3RES   H168  732   4.462   5.724   0.513  0.2869  0.2509 -0.9561
    3RES   H169  733   4.413   5.564   0.471  1.1865  0.5405 -3.8560
    3RES   O170  734   4.828   5.496   0.646  0.0197  0.2959  0.4880
    3RES   C171  735   4.927   5.547   0.730  0.0666  0.4481 -0.4326
    3RES   C172  736   5.019   5.622   0.630 -0.2747  0.2406  0.2140
    3RES   C173  737   5.162   5.630   0.687 -0.2353 -0.2834  0.1908
    3RES   O174  738   5.243   5.682   0.587  0.0777 -0.4161 -0.8647
    3RES   C175  739   5.379   5.679   0.620 -0.9810 -0.1889  0.2800
    3RES   H176  740   4.980   5.467   0.780  0.5744  0.8139 -0.3874
    3RES   H177  741   4.883   5.618   0.800  0.2793 -2.2701  2.5295
    3RES   H178  742   5.022   5.581   0.529 -0.6226 -0.6831  0.5665
    3RES   H179  743   5.165   5.688   0.779  0.1515  0.1304 -0.0783
    3RES   H180  744   5.203   5.532   0.710 -1.4879 -0.7439  0.4584
    3RES   H181  745   5.410   5.579   0.652  0.5507  1.0467  2.7732
    3RES   H182  746   5.397   5.750   0.700  0.9666  0.5138 -0.7539
    3RES   H183  747   5.440   5.700   0.532  1.4271  2.0378  2.4132
    3RES   O184  748   4.984   5.765   0.626  0.1464  0.1400 -0.0154
    3RES   C185  749   4.903   5.801   0.517  0.6117 -0.7657  0.2177
    3RES   C186  750   4.884   5.949   0.504  0.1125 -0.2650 -0.1072
    3RES   C187  751   4.756   5.973   0.417 -0.3363 -0.0081 -0.1028
    3RES   O188  752   4.724   6.112   0.412 -0.1610 -0.3858 -0.8989
    3RES   C189  753   4.664   6.164   0.532  0.4551 -0.0801 -0.2853
    3RES   H190  754   4.809   5.751   0.539 -0.7855  1.6312 -0.0742
    3RES   H191  755   4.941   5.769   0.421 -2.3686  1.8821 -1.9427
    3RES   H192  756   4.877   5.983   0.607  2.1863  2.4377 -0.7878
    3RES   H193  757   4.672   5.917   0.457  0.5886 -1.7654 -0.5596
    3RES   H194  758   4.769   5.938   0.314  0.2149  1.0283 -0.3929
    3RES   H195  759   4.715   6.153   0.627 -1.9511 -2.6152  0.7855
    3RES   H196  760   4.623   6.264   0.515 -1.7805 -0.8680  0.2501
    3RES   H197  761   4.568   6.113   0.544 -0.4591  1.2255 -1.7769
    3RES   O198  762   4.986   5.999   0.417 -0.2764 -0.0798 -0.1192
    3RES   C199  763   5.107   6.005   0.484  0.4555 -0.1671 -0.4750
    3RES   C200  764   5.204   6.096   0.409  0.0497 -0.3284  0.3331
    3RES   C201  765   5.345   6.097   0.462 -0.4633  0.3529 -0.4436
    3RES   O202  766   5.413   5.985   0.405  0.3473 -0.3801  0.2933
    3RES   C203  767   5.538   5.972   0.462 -0.2675  0.1267 -0.3988
    3RES   H204  768   5.162   5.911   0.486  2.1909  0.8087 -0.7927
    3RES   H205  769   5.097   6.056   0.580 -1.7578  2.4079 -1.9948
    3RES   H206  770   5.202   6.073   0.303 -1.2641  1.8683 -0.1477
    3RES   H207  771   5.388   6.194   0.439 -0.0478  0.0297 -1.0673
    3RES   H208  772   5.333   6.074   0.568  0.5961 -1.9318 -0.7917
    3RES   H209  773   5.594   6.065   0.454  0.6643 -0.5366 -1.6641
    3RES   H210  774   5.585   5.899   0.397  0.6440  1.8811 -1.7541
    3RES   H211  775   5.533   5.933   0.563 -1.1391 -1.5721 -1.0711
    3RES   O212  776   5.152   6.226   0.428 -0.1883 -1.0549  0.6090
    3RES   C213  777   5.055   6.276   0.333 -0.4778  0.5274 -0.0028
    3RES   C214  778   4.973   6.389   0.400  0.8982 -0.4090  0.1068
    3RES   C215  779   4.863   6.437   0.310  0.0732  0.6809 -0.2372
    3RES   O216  780   4.905   6.443   0.172  0.5829  0.1418 -0.5306
    3RES   C217  781   4.807   6.484   0.084 -0.1411 -0.2163 -0.1404
    3RES   H218  782   4.974   6.207   0.310 -0.3452 -0.1273  1.4661
    3RES   H219  783   5.113   6.304   0.245  1.0078 -1.0391  0.4510
    3RES   H220  784   4.925   6.359   0.493 -0.3985 -1.1380 -0.7685
    3RES   H221  785   4.783   6.364   0.314 -0.7897  1.6151 -0.1607
    3RES   H222  786   4.820   6.532   0.342  1.1721  1.3625 -0.7316
    3RES   H223  787   4.707   6.446   0.104 -0.2450 -0.7045 -1.5170
    3RES   H224  788   4.832   6.455   7.799  1.2491  0.2124  0.0655
    3RES   H225  789   4.797   6.592   0.087  0.8746 -0.0212 -2.4417
    3RES   O226  790   5.061   6.495   0.435 -0.1084 -0.5912  0.0979
    3RES   C227  791   5.016   6.593   0.535  0.0703  0.9591  0.1810
    3RES   C228  792   5.140   6.679   0.575 -0.6571  0.8582 -0.2787
    3RES   C229  793   5.100   6.763   0.693  0.3742 -0.7271  0.3258
    3RES   O230  794   5.188   6.869   0.702 -0.0072 -0.5123  0.4576
    3RES   C231  795   5.170   6.958   0.813 -0.3545  0.0881 -0.7949
    3RES   H232  796   4.981   6.540   0.623  2.7243 -1.7651 -0.3088
    3RES   H233  797   4.938   6.663   0.506  0.5428  1.6852  0.6601
    3RES   H234  798   5.142   6.728   0.477  1.9593  2.1533  0.3528
    3RES   H235  799   5.092   6.708   0.787  1.6758 -0.6151  0.5127
    3RES   H236  800   4.995   6.790   0.682 -0.1169 -1.6952  2.2806
    3RES   H237  801   5.259   7.020   0.823 -0.2356  0.2328 -2.6636
    3RES   H238  802   5.144   6.909   0.907  0.5340  1.0028 -0.0649
    3RES   H239  803   5.090   7.031   0.801 -0.6257 -0.3578 -1.6956
    3RES   O240  804   5.248   6.594   0.615  0.0096  0.1068 -0.0653
    3RES   C241  805   5.365   6.599   0.535  0.1154 -0.9845  0.5171
    3RES   C242  806   5.484   6.557   0.616 -0.2177 -0.1051  0.1824
    3RES   C243  807   5.606   6.519   0.520 -0.1450  0.0161 -0.0123
    3RES   O244  808   5.717   6.486   0.597 -0.0375 -0.6694 -0.5111
    3RES   C245  809   5.812   6.595   0.610  0.2107  0.4394  0.4607
    3RES   H246  810   5.378   6.703   0.507 -1.7739 -0.9046 -0.1811
    3RES   H247  811   5.356   6.551   0.437  1.3309 -0.8596  0.3380
    3RES   H248  812   5.457   6.471   0.677 -0.2782 -0.9994 -1.0718
    3RES   H249  813   5.572   6.444   0.449  0.9324  0.3730 -0.9295
    3RES   H250  814   5.630   6.616   0.475  0.7826 -0.6885 -1.0592
    3RES   H251  815   5.843   6.616   0.507 -1.3318 -1.6546 -0.4788
    3RES   H252  816   5.900   6.571   0.670  1.0554  1.2196 -0.4401
    3RES   H253  817   5.774   6.690   0.649  1.6429  0.5412  1.6477
    3RES   O254  818   5.541   6.649   0.704  0.5376  0.4005  1.0152
    3RES   C255  819   5.467   6.664   0.825  0.1742 -0.0934  0.1590
    3RES   C256  820   5.544   6.765   0.911 -0.3926  0.0023  0.2390
    3RES   C257  821   5.456   6.830   1.018 -0.4114 -0.6277  0.7080
    3RES   O258  822   5.501   6.962   1.042 -0.2882 -0.2058 -0.4042
    3RES   C259  823   5.448   7.014   1.166  0.8519  0.6680  0.4066
    3RES   H260  824   5.367   6.706   0.811  0.2861 -0.1075 -0.7609
    3RES   H261  825   5.453   6.569   0.875 -0.0290  0.7222  1.6800
    3RES   H262  826   5.577   6.834   0.833 -1.6280 -1.4213 -1.5813
    3RES   H263  827   5.360   6.845   0.968  0.7326  3.4282 -0.4760
    3RES   H264  828   5.449   6.763   1.104 -1.2293 -1.3273  0.1029
    3RES   H265  829   5.473   7.116   1.196 -0.0923  0.9470  0.2372
    3RES   H266  830   5.491   6.938   1.231  0.8004  0.7514  0.5395
    3RES   H267  831   5.342   7.004   1.147  0.9318 -1.5742  1.0583
    3RES   O268  832   5.659   6.716   0.978 -0.2097 -0.2520 -0.3501
    3RES   C269  833   5.769   6.801   0.989  0.4275 -0.1108 -0.3459
    3RES   C270  834   5.866   6.731   1.079 -0.0729 -0.3614  0.7781
    3RES   C271  835   5.938   6.602   1.021 -0.8116 -0.4883  0.7988
    3RES   O272  836   6.054   6.563   1.097  0.2583  0.0680  0.1135
    3RES   C273  837   6.130   6.469   1.020 -0.2498  0.1792 -0.3829
    3RES   H274  838   5.745   6.892   1.045 -0.1581 -1.8262  2.3074
    3RES   H275  839   5.820   6.826   0.896 -1.0655  3.0185 -0.4041
    3RES   H276  840   5.935   6.813   1.099 -0.6920  0.6826 -1.1494
    3RES   H277  841   5.977   6.618   0.921  1.5959 -1.6047  1.5029
    3RES   H278  842   5.873   6.515   1.011  1.7712 -2.5610  1.2834
    3RES   H279  843   6.162   6.512   0.925 -1.3829 -0.5132 -1.0963
    3RES   H280  844   6.061   6.388   0.994  0.4577  0.6216 -3.8530
    3RES   H281  845   6.222   6.438   1.069 -0.2384 -0.2761 -0.6835
    3RES   H282  846   5.816   6.710   1.174 -0.0079  0.5872  1.0250
    4RES     O1  847   0.271   2.910   1.654  0.0081  0.2203  0.0242
    4RES     C2  848   0.264   2.776   1.693 -0.1364  0.0126 -0.1987
    4RES     C3  849   0.397   2.716   1.749 -0.0614  0.2859  1.3704
    4RES     C4  850   0.525   2.768   1.692 -0.1504 -0.5471  0.3161
    4RES     O5  851   0.621   2.663   1.689  0.1329 -0.3920 -0.0929
    4RES     C6  852   0.725   2.691   1.600  0.8766 -0.4556  0.5329
    4RES     H7  853   0.191   2.768   1.773  0.7640 -0.0113  0.6362
    4RES     H8  854   0.231   2.719   1.606 -0.7815  0.9380 -0.5634
    4RES     H9  855   0.410   2.609   1.731 -0.5480  0.4693 -0.1636
    4RES    H10  856   0.555   2.861   1.741 -2.2864  1.2512 -1.6097
    4RES    H11  857   0.500   2.787   1.587 -0.0810  0.4737  0.4795
    4RES    H12  858   0.769   2.790   1.615  1.1941 -0.4020 -0.7441
    4RES    H13  859   0.808   2.623   1.620  0.3620 -2.1106 -2.7232
    4RES    H14  860   0.700   2.676   1.495  1.0587  0.8818  0.2863
    4RES    H15  861   0.315   2.925   1.571  1.1468 -0.4024  0.5024
    4RES    O16  862   0.407   2.736   1.885 -0.4728 -0.2347 -0.0253
    4RES    C17  863   0.348   2.641   1.964 -0.7205 -0.3518  0.1774
    4RES    C18  864   0.338   2.685   2.110 -0.3602  0.3387 -0.6099
    4RES    C19  865   0.271   2.578   2.202 -0.0557  1.3910 -0.0391
    4RES    O20  866   0.329   2.446   2.194 -0.2012  0.4004  0.2510
    4RES    C21  867   0.453   2.429   2.258 -0.4570  0.2718  0.7104
    4RES    H22  868   0.390   2.540   1.968 -0.8747 -0.5026 -1.7989
    4RES    H23  869   0.246   2.631   1.928 -0.6535 -1.4317  0.2744
    4RES    H24  870   0.282   2.778   2.110  0.8087  1.0869  1.5512
    4RES    H25  871   0.278   2.623   2.301 -1.9258 -0.2409  0.8785
    4RES    H26  872   0.166   2.566   2.174  0.4792 -1.2023 -1.0992
    4RES    H27  873   0.536   2.468   2.199 -0.7828 -1.5900 -1.0237
    4RES    H28  874   0.463   2.322   2.277  0.2259 -0.2523 -2.3927
    4RES    H29  875   0.458   2.481   2.354  1.3129  0.7560  0.3681
    4RES    O30  876   0.468   2.717   2.155  0.3866 -0.4770 -0.7449
    4RES    C31  877   0.485   2.818   2.256 -0.9666  0.0581 -0.1498
    4RES    C32  878   0.632   2.871   2.261  0.3016 -0.3462 -1.0791
    4RES    C33  879   0.646   2.960   2.383  0.1444  1.1920  1.0601
    4RES    O34  880   0.775   2.958   2.438  0.3907 -0.0643 -0.4983
    4RES    C35  881   0.767   3.041   2.551  0.1168 -0.3823  0.2264
    4RES    H36  882   0.406   2.892   2.248 -2.6856 -1.7324  0.0468
    4RES    H37  883   0.456   2.773   2.351 -0.4825  1.0820  0.4931
    4RES    H38  884   0.704   2.789   2.256  2.0535  1.0933 -0.1864
    4RES    H39  885   0.577   2.926   2.461  1.0237 -1.2144  0.8204
    4RES    H40  886   0.610   3.059   2.352  1.5426  1.3892  0.0344
    4RES    H41  887   0.709   3.131   2.532  2.6825  1.3753  0.5008
    4RES    H42  888   0.870   3.072   2.572  0.9858 -2.0703 -1.3508
    4RES    H43  889   0.741   2.989   2.643  1.3442 -1.7857 -0.1941
    4RES    O44  890   0.670   2.951   2.146  0.6418  0.1453  0.1445
    4RES    C45  891   0.677   2.886   2.021  0.2516  0.0580 -0.0997
    4RES    C46  892   0.781   2.959   1.941 -0.3193  0.1972  0.3010
    4RES    C47  893   0.788   3.108   1.960  0.1845  0.5607  0.1828
    4RES    O48  894   0.848   3.171   1.843  0.4286 -0.0116  0.1769
    4RES    C49  895   0.853   3.311   1.858  0.0387  0.2604  0.8239
    4RES    H50  896   0.576   2.893   1.982  0.0587  2.6735  0.7858
    4RES    H51  897   0.700   2.780   2.027 -1.2934 -0.2650  0.2654
    4RES    H52  898   0.766   2.955   1.833  0.2588 -2.2473  0.2771
    4RES    H53  899   0.684   3.137   1.949  0.0365 -0.8959 -2.7877
    4RES    H54  900   0.828   3.137   2.057  0.0992  1.7765 -0.1461
    4RES    H55  901   0.756   3.361   1.847  0.5745  0.9732 -0.9258
    4RES    H56  902   0.922   3.354   1.786 -3.3339  1.8426 -1.6042
    4RES    H57  903   0.883   3.345   1.957 -1.7903  0.0167  1.4882
    4RES    O58  904   0.908   2.905   1.966 -0.3738 -0.4261 -0.0064
    4RES    C59  905   0.981   2.856   1.848  0.4880  0.2565  0.7554
    4RES    C60  906   1.118   2.799   1.894 -0.1907 -0.2805  0.3144
    4RES    C61  907   1.179   2.737   1.768  0.4982 -0.2152 -0.5440
    4RES    O62  908   1.302   2.686   1.809 -0.4305 -0.0846 -0.4202
    4RES    C63  909   1.361   2.596   1.708 -0.5913 -0.0749  0.6776
    4RES    H64  910   1.002   2.939   1.780 -1.6498  1.6111  1.6797
    4RES    H65  911   0.925   2.777   1.798 -2.6923  2.5483  0.5137
    4RES    H66  912   1.183   2.875   1.937 -0.6063 -0.0227  0.4954
    4RES    H67  913   1.121   2.654   1.730  0.6275 -1.2238  1.3763
    4RES    H68  914   1.190   2.812   1.690  1.5337  1.7883  1.4738
    4RES    H69  915   1.391   2.642   1.614  0.8075 -2.7427 -0.2486
    4RES    H70  916   1.283   2.531   1.667 -0.9149  1.4960 -1.2670
    4RES    H71  917   1.445   2.536   1.743 -1.4456 -1.4529  0.4426
    4RES    O72  918   1.111   2.676   1.972 -0.2968  0.5035 -0.4123
    4RES    C73  919   1.073   2.701   2.104 -0.5812  0.9576 -0.1921
    4RES    C74  920   1.092   2.566   2.180 -0.4092 -0.0865  0.1877
    4RES    C75  921   1.004   2.565   2.306  0.5267  0.3397 -0.6992
    4RES    O76  922   0.860   2.557   2.284  0.3868 -0.0599  0.0427
    4RES    C77  923   0.801   2.533   2.410 -0.2818  0.0649  0.0553
    4RES    H78  924   1.136   2.776   2.152 -2.5071  0.9826  2.4213
    4RES    H79  925   0.969   2.731   2.113 -1.3834 -1.3789 -1.2553
    4RES    H80  926   1.055   2.486   2.115 -1.2693  0.2505  0.2516
    4RES    H81  927   1.031   2.653   2.365 -1.6192  0.1803  0.5817
    4RES    H82  928   1.031   2.471   2.354 -1.0268 -0.2237 -0.8846
    4RES    H83  929   0.825   2.431   2.441  0.5994  0.6288  1.2638
    4RES    H84  930   0.693   2.544   2.407 -0.1609  2.4206  2.4669
    4RES    H85  931   0.840   2.598   2.489 -0.1578  0.4033 -0.2837
    4RES    O86  932   1.231   2.546   2.216  0.6856 -1.1816 -0.0708
    4RES    C87  933   1.311   2.483   2.118  0.7514 -0.5655  0.2133
    4RES    C88  934   1.457   2.474   2.162 -0.7812 -0.5436  0.2831
    4RES    C89  935   1.538   2.369   2.077 -0.2844  0.1787  0.5013
    4RES    O90  936   1.657   2.323   2.137  0.4060 -0.2108 -0.0019
    4RES    C91  937   1.734   2.227   2.069  0.5401 -0.0587  0.6436
    4RES    H92  938   1.282   2.377   2.117 -0.5785 -0.2120 -0.6886
    4RES    H93  939   1.297   2.514   2.015 -0.5146 -2.2788 -0.1610
    4RES    H94  940   1.461   2.435   2.264  0.5809 -1.7654 -0.2142
    4RES    H95  941   1.480   2.282   2.048  1.0145 -0.5274 -0.0574
    4RES    H96  942   1.568   2.419   1.985 -1.2164 -2.5823 -1.3428
    4RES    H97  943   1.831   2.219   2.118  1.1341 -0.2109 -0.5245
    4RES    H98  944   1.680   2.133   2.061 -1.2531  1.0028 -0.2302
    4RES    H99  945   1.753   2.262   1.967  0.6188  0.9802  1.0025
    4RES   O100  946   1.527   2.601   2.160 -0.1344  0.6729 -0.5346
    4RES   C101  947   1.494   2.716   2.241 -0.5536 -0.0376 -0.1213
    4RES   C102  948   1.559   2.717   2.385  0.6022  0.2936 -0.9545
    4RES   C103  949   1.460   2.713   2.510  0.3278 -0.4182  0.8059
    4RES   O104  950   1.539   2.716   2.623 -0.7828 -0.1597 -0.1081
    4RES   C105  951   1.470   2.757   2.742  0.0603 -0.5478 -0.1241
    4RES   H106  952   1.389   2.741   2.253 -0.3666  0.6444  0.1021
    4RES   H107  953   1.535   2.794   2.177 -1.5960  0.2019 -0.4937
    4RES   H108  954   1.622   2.627   2.389 -0.5416 -0.6191 -2.5206
    4RES   H109  955   1.402   2.622   2.498  1.1599 -0.7138 -1.2983
    4RES   H110  956   1.384   2.792   2.504  0.9402  0.1763  0.8912
    4RES   H111  957   1.526   2.791   2.829  0.5838  0.0912 -0.7134
    4RES   H112  958   1.401   2.681   2.778 -1.4229  1.5029  1.4721
    4RES   H113  959   1.402   2.838   2.714  0.5403  0.4593  1.5798
    4RES   O114  960   1.632   2.841   2.392 -0.2928  0.2268  0.3210
    4RES   C115  961   1.767   2.839   2.428 -0.2449 -0.4234  0.0300
    4RES   C116  962   1.821   2.982   2.430 -0.8208  0.1496  0.1454
    4RES   C117  963   1.967   2.988   2.485 -0.1840 -0.7280 -1.0104
    4RES   O118  964   2.005   3.122   2.507  0.3290 -0.2224  0.2049
    4RES   C119  965   2.126   3.143   2.576  1.0894 -0.2619  0.2724
    4RES   H120  966   1.775   2.796   2.528 -1.3924 -3.7082 -1.2488
    4RES   H121  967   1.826   2.791   2.350  1.0785  0.0122  0.7447
    4RES   H122  968   1.764   3.048   2.496  0.3743  1.5474 -0.1940
    4RES   H123  969   1.978   2.942   2.583  0.5163  0.9598 -0.2844
    4RES   H124  970   2.039   2.935   2.422 -0.2352 -0.4129 -1.3385
    4RES   H125  971   2.217   3.099   2.535  0.8180 -1.0160  0.4647
    4RES   H126  972   2.108   3.098   2.674  1.0411  0.7165  0.7178
    4RES   H127  973   2.153   3.246   2.600  1.9456 -0.0630 -1.4607
    4RES   O128  974   1.828   3.033   2.296 -0.0616  0.0500  0.3644
    4RES   C129  975   1.727   3.138   2.275  0.1145  0.4951 -0.4218
    4RES   C130  976   1.761   3.190   2.132  0.0956 -0.4657  0.1278
    4RES   C131  977   1.739   3.334   2.120 -0.0296 -1.0641  0.3822
    4RES   O132  978   1.795   3.381   1.996  0.2822  0.7209  0.4645
    4RES   C133  979   1.777   3.518   1.969 -0.2731  0.1097 -0.6566
    4RES   H134  980   1.627   3.096   2.284 -0.1930  1.5470  1.3470
    4RES   H135  981   1.732   3.228   2.336 -0.4740  0.6647 -0.6214
    4RES   H136  982   1.864   3.169   2.103 -0.2307  1.1085 -2.2651
    4RES   H137  983   1.783   3.394   2.199  2.1786 -0.2527 -1.4192
    4RES   H138  984   1.631   3.348   2.124  0.1990  0.3901  1.8901
    4RES   H139  985   1.675   3.548   1.991 -0.9018 -0.3500 -2.8302
    4RES   H140  986   1.821   3.583   2.045 -2.5411  1.0355 -0.1034
    4RES   H141  987   1.803   3.546   1.867 -0.6745 -1.3751 -1.1711
    4RES   O142  988   1.670   3.133   2.039 -0.1831  0.2364  0.8488
    4RES   C143  989   1.715   3.012   1.992 -0.1964 -0.1106 -0.0085
    4RES   C144  990   1.605   2.945   1.906  0.5271 -0.3326  0.5723
    4RES   C145  991   1.632   2.798   1.859 -0.0668  0.7228  0.2171
    4RES   O146  992   1.750   2.798   1.778 -0.0667 -0.1047 -0.5490
    4RES   C147  993   1.751   2.693   1.679  0.1659  0.3933 -0.3633
    4RES   H148  994   1.800   3.047   1.932 -1.8168  2.7304 -0.7516
    4RES   H149  995   1.743   2.940   2.069  0.7918  0.1499 -0.1112
    4RES   H150  996   1.515   2.947   1.968 -0.1552  2.0592 -0.4499
    4RES   H151  997   1.542   2.751   1.820  0.4317 -0.2003  0.1652
    4RES   H152  998   1.664   2.735   1.942 -0.1085 -0.7137 -0.8219
    4RES   H153  999   1.661   2.680   1.619 -0.1929 -4.5410  1.0960
    4RES   H154 1000   1.756   2.608   1.746  1.0503  2.3249  2.0920
    4RES   H155 1001   1.843   2.681   1.620 -1.0009 -1.0488 -1.9344
    4RES   O156 1002   1.585   3.027   1.799  0.3318  1.0399  0.1335
    4RES   C157 1003   1.454   3.002   1.733 -0.1084 -0.0459 -0.4891
    4RES   C158 1004   1.430   3.118   1.634  0.0875  0.3943 -0.1643
    4RES   C159 1005   1.288   3.170   1.608 -0.4542 -0.7997  0.8027
    4RES   O160 1006   1.214   3.067   1.547  0.2066 -0.1684 -0.2962
    4RES   C161 1007   1.074   3.105   1.549  0.4460 -0.3355  0.3880
    4RES   H162 1008   1.437   2.909   1.680  0.6719 -0.9859  0.8943
    4RES   H163 1009   1.371   3.005   1.805  1.6802 -1.4635  1.6763
    4RES   H164 1010   1.480   3.203   1.679  1.8726  0.2284 -1.7888
    4RES   H165 1011   1.249   3.197   1.705  0.1307  2.1123  0.2737
    4RES   H166 1012   1.291   3.263   1.551  1.0561 -2.1932 -1.4672
    4RES   H167 1013   1.073   3.206   1.506  3.2356 -1.1015 -1.6007
    4RES   H168 1014   1.039   3.095   1.652  0.3816  1.7273  0.5860
    4RES   H169 1015   1.018   3.036   1.485 -0.4739 -0.4520  1.2963
    4RES   O170 1016   1.484   3.081   1.513  0.3792  0.2461 -0.3749
    4RES   C171 1017   1.623   3.054   1.515  0.0215 -0.2383  0.4732
    4RES   C172 1018   1.676   3.028   1.377 -0.1666  0.4116 -0.6387
    4RES   C173 1019   1.839   3.011   1.376  0.8694 -0.5118 -0.3657
    4RES   O174 1020   1.888   2.988   1.249 -0.1519 -0.1708 -0.1598
    4RES   C175 1021   2.018   2.945   1.252 -0.4821  0.1803  0.2512
    4RES   H176 1022   1.654   2.978   1.586 -1.4803  1.3409  2.9101
    4RES   H177 1023   1.672   3.147   1.544 -1.3171  0.8571 -0.6638
    4RES   H178 1024   1.634   2.940   1.329  0.5875 -0.0957 -0.3864
    4RES   H179 1025   1.867   3.110   1.413 -0.9072  1.2513 -3.4508
    4RES   H180 1026   1.857   2.939   1.455 -0.3077  0.5934  0.9298
    4RES   H181 1027   2.041   2.854   1.307  1.2134  0.3614 -0.1213
    4RES   H182 1028   2.059   3.038   1.293  0.2193  0.1344 -0.3424
    4RES   H183 1029   2.051   2.929   1.150 -1.7754 -4.6364  0.4755
    4RES   O184 1030   1.649   3.144   1.313 -0.0393  0.1003  0.1420
    4RES   C185 1031   1.622   3.147   1.170  0.2783  0.1677 -0.1004
    4RES   C186 1032   1.527   3.267   1.140  0.6525 -0.3750  0.0219
    4RES   C187 1033   1.468   3.238   0.996 -0.0075  0.4745  0.2753
    4RES   O188 1034   1.350   3.320   0.983 -0.2861  0.0524 -0.4470
    4RES   C189 1035   1.298   3.294   0.853  0.1364 -0.7504 -0.1046
    4RES   H190 1036   1.567   3.059   1.139 -0.3194  0.8681 -1.0636
    4RES   H191 1037   1.714   3.145   1.110  0.4251  0.9928  0.0802
    4RES   H192 1038   1.447   3.265   1.214  2.2125  2.4969  1.9085
    4RES   H193 1039   1.437   3.134   0.986 -1.4953  1.1429 -2.5152
    4RES   H194 1040   1.541   3.275   0.924  1.6913  1.4257  2.4258
    4RES   H195 1041   1.372   3.303   0.774  1.9821  1.3473  1.7863
    4RES   H196 1042   1.263   3.191   0.851  0.0255 -0.6964 -1.2297
    4RES   H197 1043   1.218   3.367   0.846  1.5413  0.8008 -0.2844
    4RES   O198 1044   1.595   3.392   1.133  0.3870  0.5900 -0.1538
    4RES   C199 1045   1.520   3.496   1.198 -0.2710  0.5624  0.0262
    4RES   C200 1046   1.504   3.484   1.356  0.4376 -0.1442  0.1255
    4RES   C201 1047   1.398   3.582   1.414 -0.2116  1.1786 -0.2053
    4RES   O202 1048   1.357   3.531   1.543 -0.0240  0.5651 -0.0279
    4RES   C203 1049   1.213   3.531   1.565 -0.7509 -0.1430  0.1761
    4RES   H204 1050   1.423   3.495   1.148  0.5073 -0.7723 -1.4854
    4RES   H205 1051   1.561   3.590   1.162  1.1248 -0.4463 -1.1167
    4RES   H206 1052   1.481   3.381   1.384  2.7973 -0.6960  0.0935
    4RES   H207 1053   1.454   3.674   1.430 -1.4448  1.4009  3.3128
    4RES   H208 1054   1.314   3.603   1.347 -2.6765 -2.8605  1.4187
    4RES   H209 1055   1.183   3.633   1.585  1.4510  0.3451  1.1723
    4RES   H210 1056   1.190   3.472   1.654 -1.0852 -0.6138 -0.2174
    4RES   H211 1057   1.156   3.486   1.483 -0.8822 -2.4224  1.4506
    4RES   O212 1058   1.627   3.527   1.412  0.5673 -0.2885 -0.3597
    4RES   C213 1059   1.665   3.448   1.518  0.1091  0.1352 -0.0969
    4RES   C214 1060   1.805   3.482   1.565 -0.1052  0.3113 -0.0596
    4RES   C215 1061   1.868   3.368   1.646 -0.2822 -0.4389 -0.1153
    4RES   O216 1062   1.933   3.280   1.561  0.1164 -0.3007  0.9086
    4RES   C217 1063   1.996   3.175   1.638  0.6193  0.4745  0.1310
    4RES   H218 1064   1.674   3.345   1.486 -1.4298  0.0399 -0.3013
    4RES   H219 1065   1.589   3.459   1.596 -0.3869 -2.7303 -0.1256
    4RES   H220 1066   1.880   3.500   1.488  1.0726 -1.3424  0.6636
    4RES   H221 1067   1.939   3.411   1.717 -1.1541  0.5911  0.1413
    4RES   H222 1068   1.789   3.325   1.708 -1.8673  1.5757 -0.6912
    4RES   H223 1069   1.913   3.124   1.687 -1.1520  1.4577 -1.7435
    4RES   H224 1070   2.055   3.223   1.716  1.3641 -0.0751 -0.0926
    4RES   H225 1071   2.057   3.116   1.570 -0.9823  0.8995 -1.7399
    4RES   O226 1072   1.818   3.603   1.648 -0.0900  0.2658  0.2653
    4RES   C227 1073   1.783   3.717   1.574  0.2951 -0.1612  0.3089
    4RES   C228 1074   1.736   3.822   1.673 -0.6834 -0.3829 -0.4701
    4RES   C229 1075   1.755   3.968   1.625 -1.5442 -0.1220  0.0113
    4RES   O230 1076   1.734   4.063   1.725  0.1865 -0.5103 -0.0687
    4RES   C231 1077   1.606   4.132   1.702 -0.1020 -0.5070 -0.8367
    4RES   H232 1078   1.715   3.707   1.490  2.5144  0.2942 -1.6038
    4RES   H233 1079   1.874   3.756   1.529 -1.5179  1.5410 -2.0171
    4RES   H234 1080   1.781   3.816   1.773  0.1189 -0.8194 -0.8554
    4RES   H235 1081   1.702   3.990   1.533  0.4892 -0.5694 -1.3107
    4RES   H236 1082   1.858   3.993   1.598 -1.8278  0.1582 -0.8198
    4RES   H237 1083   1.525   4.074   1.747  0.7876 -1.1744 -0.0849
    4RES   H238 1084   1.595   4.157   1.597 -0.7419  0.9079 -0.4400
    4RES   H239 1085   1.609   4.221   1.765  1.7401 -0.3081 -1.1694
    4RES   O240 1086   1.592   3.809   1.678  0.3583  0.4956  0.1842
    4RES   C241 1087   1.551   3.721   1.781 -0.3652  0.0746 -0.7586
    4RES   C242 1088   1.394   3.733   1.800  1.0293  0.0784  0.0224
    4RES   C243 1089   1.326   3.624   1.881 -0.5286 -0.0139 -0.1257
    4RES   O244 1090   1.187   3.637   1.866  0.4055 -0.3585 -0.1126
    4RES   C245 1091   1.115   3.538   1.935 -0.0569 -0.4695 -0.0317
    4RES   H246 1092   1.614   3.735   1.869 -0.1845  1.6305 -1.1250
    4RES   H247 1093   1.568   3.618   1.748  1.2299 -0.4094  1.4827
    4RES   H248 1094   1.354   3.733   1.699  0.2027  0.1262  0.3458
    4RES   H249 1095   1.359   3.524   1.851  0.6953  0.7623 -1.4431
    4RES   H250 1096   1.359   3.636   1.984  1.4098  4.3588 -1.1406
    4RES   H251 1097   1.118   3.566   2.041 -0.5575  1.3611 -0.4773
    4RES   H252 1098   1.156   3.438   1.930 -0.6668 -0.6777 -1.1444
    4RES   H253 1099   1.017   3.535   1.887 -1.5370  2.4926  2.5971
    4RES   O254 1100   1.376   3.855   1.869  0.4024 -0.1267 -0.1295
    4RES   C255 1101   1.282   3.942   1.798  0.6130  0.1429  0.1553
    4RES   C256 1102   1.261   4.067   1.885 -0.1728 -0.2448 -0.2110
    4RES   C257 1103   1.216   4.182   1.793 -0.7204 -0.2066 -0.1367
    4RES   O258 1104   1.101   4.137   1.716 -0.7597 -0.4176 -0.4969
    4RES   C259 1105   1.053   4.221   1.619  0.2249  0.1257  0.0969
    4RES   H260 1106   1.313   3.968   1.696  1.6621  0.2474  0.4906
    4RES   H261 1107   1.181   3.909   1.777  1.0531 -0.7360 -0.6323
    4RES   H262 1108   1.354   4.097   1.932 -1.4788  1.7047  1.1850
    4RES   H263 1109   1.186   4.267   1.854  2.0455 -0.0418  1.1121
    4RES   H264 1110   1.289   4.219   1.720  0.2594  3.3561  2.4978
    4RES   H265 1111   1.054   4.325   1.651  3.5913  0.8335 -2.0795
    4RES   H266 1112   0.955   4.181   1.591  0.1244 -0.6325  1.4768
    4RES   H267 1113   1.118   4.218   1.532 -0.5914 -3.6805 -0.4835
    4RES   O268 1114   1.171   4.038   1.992 -0.2168  0.3366 -0.0687
    4RES   C269 1115   1.231   4.011   2.120  0.2446 -0.6420 -0.4033
    4RES   C270 1116   1.144   3.945   2.230 -0.7299  0.0670 -0.4552
    4RES   C271 1117   1.224   3.897   2.348  0.2547 -0.0747 -0.0549
    4RES   O272 1118   1.295   3.999   2.405 -0.6607  0.1001 -0.5659
    4RES   C273 1119   1.374   3.959   2.515  0.2341  0.7071 -0.2662
    4RES   H274 1120   1.282   4.097   2.162  0.6654 -1.6089  1.1273
    4RES   H275 1121   1.300   3.929   2.099  1.3394  0.2333 -0.2207
    4RES   H276 1122   1.064   4.009   2.267 -0.7228 -1.3965  2.2009
    4RES   H277 1123   1.296   3.821   2.317  0.1202 -1.5534  3.0647
    4RES   H278 1124   1.158   3.848   2.419 -1.9260 -1.5588 -2.9918
    4RES   H279 1125   1.446   4.036   2.541 -0.6334  2.0433 -1.7092
    4RES   H280 1126   1.428   3.865   2.509 -0.1866  0.5812 -2.4417
    4RES   H281 1127   1.309   3.940   2.601 -1.8902  1.3943 -1.6769
    4RES   H282 1128   1.101   3.860   2.176  1.2898 -1.2673 -0.0306
    5RES     O1 1129   2.881   2.420   3.091 -0.1665  0.4278  0.4181
    5RES     C2 1130   2.984   2.320   3.102 -0.7419 -0.3482 -0.7156
    5RES     C3 1131   2.939   2.210   3.208 -0.9083 -0.0929 -0.2251
    5RES     C4 1132   2.984   2.066   3.168 -0.6527  0.2837  0.5715
    5RES     O5 1133   2.889   1.955   3.190  0.0363  0.3935 -0.0222
    5RES     C6 1134   2.946   1.832   3.148  0.0879 -0.2294 -0.7586
    5RES     H7 1135   2.989   2.277   3.002  0.3142  0.3835 -0.9905
    5RES     H8 1136   3.080   2.368   3.118 -0.5750 -0.8324 -0.2574
    5RES     H9 1137   2.835   2.201   3.238 -0.7841 -1.9161 -0.2897
    5RES    H10 1138   3.068   2.044   3.234  0.7112  1.1366 -0.8443
    5RES    H11 1139   3.019   2.054   3.066 -1.8633  0.6451  0.1100
    5RES    H12 1140   3.046   1.811   3.185  0.7191  1.0867 -1.7010
    5RES    H13 1141   2.881   1.756   3.191 -0.1320  0.7931  0.7272
    5RES    H14 1142   2.933   1.810   3.041  1.2353  2.8933 -1.5761
    5RES    H15 1143   2.928   2.496   3.063  0.0548  0.1856  0.1216
    5RES    O16 1144   3.007   2.246   3.329  0.0741  0.4673 -0.6018
    5RES    C17 1145   2.963   2.175   3.444  0.1010 -0.2919  0.5174
    5RES    C18 1146   3.034   2.225   3.566 -0.5971  0.0196 -0.1008
    5RES    C19 1147   2.971   2.159   3.688 -0.6658 -0.0984 -0.2279
    5RES    O20 1148   3.009   2.219   3.802  0.2843 -0.0232 -0.0873
    5RES    C21 1149   3.031   2.134   3.910  0.3345  0.5257  0.3886
    5RES    H22 1150   2.980   2.069   3.422  2.6142  0.0514  0.7178
    5RES    H23 1151   2.857   2.187   3.466 -0.0672  0.3348 -0.5643
    5RES    H24 1152   3.026   2.333   3.567  1.2335  0.1815  1.8860
    5RES    H25 1153   2.862   2.169   3.696 -0.8274 -0.9800 -1.0787
    5RES    H26 1154   3.002   2.054   3.688  2.6317  0.8346 -0.3351
    5RES    H27 1155   2.948   2.064   3.919  1.4327 -0.7022  1.1404
    5RES    H28 1156   3.041   2.187   4.005 -0.1081  0.9353  0.2125
    5RES    H29 1157   3.122   2.075   3.902  0.5305  0.5918  1.9178
    5RES    O30 1158   3.172   2.188   3.551  0.3789  0.1009 -0.0533
    5RES    C31 1159   3.273   2.274   3.499 -0.1440 -0.7056 -0.1756
    5RES    C32 1160   3.331   2.362   3.613  0.2796 -0.6165 -0.7946
    5RES    C33 1161   3.395   2.497   3.569 -0.0654 -0.2699 -0.3397
    5RES    O34 1162   3.398   2.583   3.688  0.3884  0.1923  0.3012
    5RES    C35 1163   3.438   2.711   3.658 -0.1931 -0.1666  0.4612
    5RES    H36 1164   3.348   2.206   3.459  0.5191 -0.6294  0.9086
    5RES    H37 1165   3.239   2.322   3.407  1.1226 -1.1398 -0.8949
    5RES    H38 1166   3.253   2.389   3.684  2.7636  1.6926  1.1613
    5RES    H39 1167   3.333   2.557   3.502  4.1986  3.0607 -1.5658
    5RES    H40 1168   3.493   2.482   3.523 -0.1519 -0.2079 -0.5473
    5RES    H41 1169   3.456   2.774   3.745  2.8357  0.2559 -0.3839
    5RES    H42 1170   3.357   2.763   3.607  0.0916  0.6270  0.8077
    5RES    H43 1171   3.526   2.714   3.593  0.2245 -0.2160  1.0188
    5RES    O44 1172   3.437   2.292   3.683  0.0753  0.2367 -0.4567
    5RES    C45 1173   3.392   2.187   3.773 -1.1959  0.1482  0.1498
    5RES    C46 1174   3.503   2.139   3.870 -0.6881  0.2051 -0.1282
    5RES    C47 1175   3.440   2.063   3.985  0.4624  0.1123  0.3589
    5RES    O48 1176   3.526   2.058   4.098  0.6880 -0.0550  0.3338
    5RES    C49 1177   3.642   1.979   4.090  0.1365  0.3448 -0.5284
    5RES    H50 1178   3.360   2.101   3.714  0.8402  0.1630 -1.0201
    5RES    H51 1179   3.314   2.230   3.835 -0.6204  1.8922 -0.3161
    5RES    H52 1180   3.542   2.233   3.910  0.7697 -0.2390 -0.4624
    5RES    H53 1181   3.347   2.109   4.019 -0.5551 -2.4217  1.1210
    5RES    H54 1182   3.413   1.966   3.942 -1.5204  1.3444 -1.2926
    5RES    H55 1183   3.629   1.897   4.018  0.4113 -0.9799  0.9094
    5RES    H56 1184   3.649   1.929   4.186  0.4705 -0.3335 -0.9005
    5RES    H57 1185   3.730   2.042   4.079  0.1044  0.6209  0.7282
    5RES    O58 1186   3.597   2.052   3.806 -0.3137 -0.0400  0.1636
    5RES    C59 1187   3.700   2.124   3.727  0.8108  0.2002 -0.1361
    5RES    C60 1188   3.820   2.033   3.703 -0.1182  0.1984  0.3841
    5RES    C61 1189   3.946   2.115   3.689 -0.6248 -0.1149  0.6081
    5RES    O62 1190   4.069   2.038   3.678 -0.1212 -0.0427  0.5105
    5RES    C63 1191   4.191   2.111   3.673  0.5849 -0.0583 -0.6820
    5RES    H64 1192   3.730   2.216   3.778 -1.9552  1.1620 -0.1517
    5RES    H65 1193   3.658   2.176   3.641  1.1382 -0.1681 -0.5186
    5RES    H66 1194   3.828   1.967   3.790  0.4399  0.7740  0.7825
    5RES    H67 1195   3.943   2.173   3.597 -0.3739  0.1698  0.7810
    5RES    H68 1196   3.960   2.185   3.771  3.2389 -0.1878  0.1281
    5RES    H69 1197   4.261   2.066   3.602 -0.5625 -1.1670 -1.1348
    5RES    H70 1198   4.241   2.112   3.770 -2.0038 -0.0456  0.6899
    5RES    H71 1199   4.178   2.212   3.635  0.4579  0.6069  1.0531
    5RES    O72 1200   3.794   1.967   3.579 -0.0580 -0.0172  0.7101
    5RES    C73 1201   3.856   1.840   3.567 -0.3583 -0.0258  0.0019
    5RES    C74 1202   3.801   1.775   3.432 -0.5031  0.1981  0.2278
    5RES    C75 1203   3.842   1.623   3.432 -0.1744 -0.4892  0.2754
    5RES    O76 1204   3.725   1.556   3.480 -0.5249 -0.0810 -0.3946
    5RES    C77 1205   3.745   1.420   3.491  0.0200  0.0966  0.5266
    5RES    H78 1206   3.963   1.860   3.565 -0.1345 -1.1589  0.3436
    5RES    H79 1207   3.842   1.771   3.651 -3.9001  0.9876  0.3112
    5RES    H80 1208   3.693   1.776   3.418 -0.2259  0.9609 -2.1320
    5RES    H81 1209   3.926   1.606   3.499  1.0434  0.8283 -0.8580
    5RES    H82 1210   3.869   1.592   3.331 -0.5941 -1.3906  0.4298
    5RES    H83 1211   3.752   1.372   3.394  0.9667 -1.5434  1.3726
    5RES    H84 1212   3.672   1.359   3.545  1.6974 -1.5984  0.9205
    5RES    H85 1213   3.834   1.400   3.551 -0.1984  1.5831  1.3735
    5RES    O86 1214   3.867   1.838   3.324 -0.2275  0.1963 -0.8120
    5RES    C87 1215   3.800   1.933   3.247 -0.2392 -0.1905 -0.1904
    5RES    C88 1216   3.893   2.008   3.143 -0.0704 -0.3532  0.2093
    5RES    C89 1217   3.806   2.100   3.054  0.9083  0.0434  0.0632
    5RES    O90 1218   3.877   2.152   2.941  0.5465  0.8508  0.0328
    5RES    C91 1219   3.949   2.264   2.971 -0.2732  0.0129 -0.4915
    5RES    H92 1220   3.719   1.884   3.192  0.0517  1.5042 -2.1837
    5RES    H93 1221   3.747   1.996   3.318 -0.7842  0.0542 -0.8094
    5RES    H94 1222   3.952   1.936   3.086  0.8631  0.4727  0.1157
    5RES    H95 1223   3.726   2.033   3.022 -1.6494  1.8079  2.5312
    5RES    H96 1224   3.759   2.173   3.120 -0.8168  0.3984 -1.5422
    5RES    H97 1225   4.046   2.249   3.018 -1.0581  1.5521  1.7502
    5RES    H98 1226   3.945   2.335   2.888 -1.2585  0.7000  0.1319
    5RES    H99 1227   3.893   2.314   3.050  1.6984 -1.6039  1.9835
    5RES   O100 1228   3.994   2.088   3.211  0.1180  0.3575 -0.0843
    5RES   C101 1229   4.097   2.013   3.272 -0.0392  0.4164 -1.0919
    5RES   C102 1230   4.230   2.086   3.253  0.7398  0.0094  0.3870
    5RES   C103 1231   4.338   1.996   3.304 -0.2595  0.1604  0.0620
    5RES   O104 1232   4.468   2.042   3.270 -0.2277 -0.0356 -0.2009
    5RES   C105 1233   4.567   1.980   3.349  0.1898  0.2973 -0.2869
    5RES   H106 1234   4.087   1.912   3.232 -1.9586 -0.5957  1.7776
    5RES   H107 1235   4.072   2.000   3.377 -1.3100  0.8476 -1.3280
    5RES   H108 1236   4.245   2.106   3.146 -0.6173  0.2800  0.2375
    5RES   H109 1237   4.346   1.892   3.270  0.5770 -0.3026  1.6152
    5RES   H110 1238   4.324   1.989   3.411  0.0827 -0.9065  0.0513
    5RES   H111 1239   4.663   1.997   3.300  0.1687 -1.7751 -1.1105
    5RES   H112 1240   4.555   1.873   3.368 -0.1202  0.1556 -1.2373
    5RES   H113 1241   4.583   2.026   3.446  0.3369  3.2298 -1.6653
    5RES   O114 1242   4.224   2.207   3.334 -0.7248 -0.2883  0.4305
    5RES   C115 1243   4.213   2.326   3.254 -0.1965 -0.3414  0.4095
    5RES   C116 1244   4.241   2.451   3.331  0.0806  0.5060  0.5261
    5RES   C117 1245   4.240   2.581   3.247 -0.9231  0.0821 -0.3827
    5RES   O118 1246   4.114   2.611   3.192 -0.5323 -0.6740  0.1284
    5RES   C119 1247   4.112   2.611   3.049  0.2900  0.5087  0.4808
    5RES   H120 1248   4.283   2.322   3.170  1.5338 -2.9869  1.9006
    5RES   H121 1249   4.111   2.337   3.218 -0.0436 -0.0023  0.0769
    5RES   H122 1250   4.344   2.445   3.367 -0.0329  2.4332  1.2557
    5RES   H123 1251   4.278   2.663   3.308 -0.7081 -1.1173  1.1194
    5RES   H124 1252   4.316   2.555   3.174 -2.5488 -2.0677 -1.3972
    5RES   H125 1253   4.135   2.515   3.003 -1.5176  0.0775  0.4253
    5RES   H126 1254   4.175   2.693   3.015  2.5518 -2.3458 -2.5659
    5RES   H127 1255   4.012   2.636   3.013  0.8587 -0.2547 -1.7169
    5RES   O128 1256   4.187   2.466   3.456  0.3258  0.0263  0.3455
    5RES   C129 1257   4.044   2.465   3.459  0.6101  0.5853 -0.2257
    5RES   C130 1258   3.997   2.526   3.599  0.5508  0.1734  1.0947
    5RES   C131 1259   3.851   2.497   3.642  0.0566 -0.2571 -1.4018
    5RES   O132 1260   3.834   2.498   3.781  0.6402 -0.0466 -0.0132
    5RES   C133 1261   3.693   2.508   3.813 -0.0601 -0.3180  0.2860
    5RES   H134 1262   3.991   2.509   3.374 -1.0713 -1.3658 -0.2397
    5RES   H135 1263   4.015   2.360   3.450  2.4778 -0.1291  1.6371
    5RES   H136 1264   4.054   2.480   3.680  1.0258  0.0616  0.7001
    5RES   H137 1265   3.828   2.394   3.616 -0.6050  0.4706 -3.7871
    5RES   H138 1266   3.786   2.554   3.576 -0.6030 -0.5069 -0.9704
    5RES   H139 1267   3.652   2.601   3.773 -0.6207 -0.5986  0.2070
    5RES   H140 1268   3.641   2.430   3.758 -1.1136 -0.3392  1.2919
    5RES   H141 1269   3.664   2.497   3.917  0.0037  3.6309  0.8235
    5RES   O142 1270   4.008   2.664   3.596  0.1407 -0.0838 -0.1146
    5RES   C143 1271   4.111   2.713   3.680  0.5353 -0.5425  0.2954
    5RES   C144 1272   4.100   2.872   3.695  0.0949 -0.5473 -0.0750
    5RES   C145 1273   4.225   2.948   3.720 -0.5444  0.4989 -0.2942
    5RES   O146 1274   4.323   2.939   3.620  0.3311 -0.0097 -0.0278
    5RES   C147 1275   4.447   3.006   3.637 -0.4752 -0.0150 -0.0109
    5RES   H148 1276   4.123   2.668   3.778 -2.7213 -1.6826  0.2290
    5RES   H149 1277   4.193   2.674   3.619 -0.9570 -0.1082 -2.0630
    5RES   H150 1278   4.068   2.912   3.599  1.6957  1.6209  0.2486
    5RES   H151 1279   4.276   2.921   3.812 -0.1114 -1.5441 -1.1099
    5RES   H152 1280   4.203   3.054   3.733  0.7444  0.7252  0.1113
    5RES   H153 1281   4.423   3.109   3.662  1.0364  0.3963 -0.1668
    5RES   H154 1282   4.520   3.000   3.556 -0.3791  0.2364  0.0562
    5RES   H155 1283   4.489   2.949   3.720 -1.0289 -1.5917 -0.7989
    5RES   O156 1284   4.019   2.915   3.802 -0.3597  0.1726 -0.3006
    5RES   C157 1285   3.896   2.852   3.810 -0.2084 -0.1316 -0.6541
    5RES   C158 1286   3.805   2.956   3.884  0.5080  0.1512 -0.0079
    5RES   C159 1287   3.676   2.882   3.928 -0.1885  0.2412  1.6469
    5RES   O160 1288   3.577   2.964   3.984 -0.1021  0.0862 -0.3454
    5RES   C161 1289   3.471   2.886   4.028  0.9195 -0.0782  0.1319
    5RES   H162 1290   3.865   2.803   3.718 -2.0079 -0.6565  0.1976
    5RES   H163 1291   3.909   2.764   3.873 -1.5193  0.7464  0.8914
    5RES   H164 1292   3.851   3.000   3.973  0.5256  0.6525 -0.2632
    5RES   H165 1293   3.633   2.832   3.841 -0.4534  0.2341  1.7816
    5RES   H166 1294   3.699   2.799   3.995  0.6579 -0.0810  0.9639
    5RES   H167 1295   3.407   2.944   4.095  0.9937 -1.6510  1.6090
    5RES   H168 1296   3.492   2.791   4.077 -1.2348 -0.0322  1.2102
    5RES   H169 1297   3.408   2.866   3.942  0.7939 -1.7249  0.5954
    5RES   O170 1298   3.756   3.051   3.780  0.0103 -0.0064 -0.4981
    5RES   C171 1299   3.766   3.182   3.832 -0.0805  0.0306 -0.1536
    5RES   C172 1300   3.909   3.249   3.828 -0.1603  1.3044  1.0849
    5RES   C173 1301   3.921   3.365   3.924 -0.7571 -0.0967 -0.0013
    5RES   O174 1302   4.062   3.397   3.936  0.0919  0.3054 -0.6959
    5RES   C175 1303   4.100   3.532   3.977 -0.5434  0.5699  0.4659
    5RES   H176 1304   3.718   3.188   3.930  1.6796  0.8529  0.6832
    5RES   H177 1305   3.701   3.246   3.772  1.6625 -1.3786 -3.7092
    5RES   H178 1306   3.987   3.178   3.856 -1.6450 -0.8572 -0.0986
    5RES   H179 1307   3.866   3.455   3.896 -0.8833 -0.3969 -0.7268
    5RES   H180 1308   3.894   3.339   4.026  0.8551  1.0129  0.7411
    5RES   H181 1309   4.209   3.525   3.979 -0.7029 -2.3093  0.8553
    5RES   H182 1310   4.057   3.566   4.071  2.1676  0.2860  1.8660
    5RES   H183 1311   4.070   3.606   3.903  2.9448  1.0067 -0.6017
    5RES   O184 1312   3.921   3.313   3.698  0.0815 -0.2051 -0.3009
    5RES   C185 1313   3.898   3.240   3.586  0.3549 -0.3258 -0.3012
    5RES   C186 1314   4.007   3.270   3.480  0.1762  0.1512 -0.2950
    5RES   C187 1315   3.944   3.375   3.386  0.2905 -0.2431 -0.6817
    5RES   O188 1316   4.037   3.443   3.300  0.2975  0.5437  0.3540
    5RES   C189 1317   3.977   3.554   3.239  0.1980 -0.3162  0.6040
    5RES   H190 1318   3.794   3.258   3.561  0.1588  2.0481  2.0318
    5RES   H191 1319   3.899   3.134   3.613 -0.4422 -0.2629 -0.0378
    5RES   H192 1320   4.098   3.303   3.530  1.7625 -1.1520 -2.2323
    5RES   H193 1321   3.890   3.446   3.450  0.2409  0.8484 -1.9107
    5RES   H194 1322   3.856   3.331   3.339  0.3245 -1.3980  0.2930
    5RES   H195 1323   4.050   3.573   3.160  1.0073 -0.4406  1.3123
    5RES   H196 1324   3.875   3.539   3.203  0.4303 -0.4778 -0.0003
    5RES   H197 1325   3.960   3.646   3.294 -1.3755  0.3842 -0.9892
    5RES   O198 1326   4.034   3.145   3.429 -0.2334  0.6710  0.4394
    5RES   C199 1327   4.159   3.137   3.359  0.0142  0.3636 -0.5877
    5RES   C200 1328   4.125   3.024   3.256  0.1757  0.1490 -0.2747
    5RES   C201 1329   4.255   2.949   3.214  0.3252 -0.4030  0.7797
    5RES   O202 1330   4.362   3.046   3.182  0.0327 -0.7549 -0.0152
    5RES   C203 1331   4.498   3.003   3.202  0.3284  0.5299  0.2965
    5RES   H204 1332   4.237   3.113   3.431 -2.6707 -1.4173  1.8654
    5RES   H205 1333   4.167   3.232   3.308  0.3689 -0.0531 -1.3146
    5RES   H206 1334   4.065   2.943   3.299  0.1472  1.0899  1.4984
    5RES   H207 1335   4.282   2.877   3.291 -3.0716 -1.4852  1.0458
    5RES   H208 1336   4.244   2.886   3.126  2.7710  0.1046  0.0545
    5RES   H209 1337   4.556   3.083   3.155  1.5102 -0.2217  0.4649
    5RES   H210 1338   4.507   2.909   3.147 -0.6470 -0.7687  2.3233
    5RES   H211 1339   4.526   2.994   3.307  1.5681  0.7506 -0.0034
    5RES   O212 1340   4.066   3.083   3.142 -0.2332 -0.1004  0.1559
    5RES   C213 1341   3.929   3.060   3.137 -0.3895  0.0825  0.4633
    5RES   C214 1342   3.888   3.093   2.992  0.2591  0.0283  1.0091
    5RES   C215 1343   3.844   3.239   2.965  0.2202  0.6042  0.2895
    5RES   O216 1344   3.839   3.278   2.829  0.0702  0.4702  0.4197
    5RES   C217 1345   3.788   3.408   2.814  0.9567 -0.9847  0.6099
    5RES   H218 1346   3.868   3.122   3.202  0.9430  0.9648  0.8732
    5RES   H219 1347   3.912   2.953   3.149  4.0043 -0.3667  4.0660
    5RES   H220 1348   3.979   3.075   2.936  0.0972  1.2644  0.3309
    5RES   H221 1349   3.749   3.253   3.016  0.5223 -0.3131  1.1322
    5RES   H222 1350   3.917   3.307   3.009  1.6902  0.4614 -1.8285
    5RES   H223 1351   3.682   3.402   2.840  0.5331 -1.5720 -1.1601
    5RES   H224 1352   3.785   3.432   2.708 -1.9337 -0.0987  0.8325
    5RES   H225 1353   3.839   3.485   2.872  0.8313 -0.7721  0.4345
    5RES   O226 1354   3.785   3.007   2.950 -0.2024 -0.4485 -0.4710
    5RES   C227 1355   3.807   2.947   2.821 -0.4295 -0.6144 -1.2848
    5RES   C228 1356   3.668   2.884   2.793 -0.7219  0.0104 -0.3366
    5RES   C229 1357   3.632   2.894   2.644 -0.7619 -0.8057 -0.0099
    5RES   O230 1358   3.508   2.829   2.647  0.2373  0.1497 -0.0936
    5RES   C231 1359   3.454   2.819   2.513 -0.5684 -0.2222 -0.2527
    5RES   H232 1360   3.881   2.867   2.813 -1.8869 -2.1662  0.4302
    5RES   H233 1361   3.833   3.021   2.745  0.7019  0.4991  0.1425
    5RES   H234 1362   3.586   2.927   2.851 -0.3934 -0.2593  0.3317
    5RES   H235 1363   3.709   2.851   2.580 -0.0757  1.2840 -0.5934
    5RES   H236 1364   3.616   2.997   2.614 -2.7062 -0.6935  1.3001
    5RES   H237 1365   3.515   2.756   2.448  1.4235 -0.5458  1.8586
    5RES   H238 1366   3.446   2.913   2.460  0.5718 -0.6271 -1.1412
    5RES   H239 1367   3.352   2.781   2.522  0.2211 -2.0303  1.5326
    5RES   O240 1368   3.659   2.750   2.840  0.5482  0.5967  0.1691
    5RES   C241 1369   3.644   2.735   2.982 -0.7893 -0.1583  0.1449
    5RES   C242 1370   3.638   2.582   3.021  0.3336 -0.6354  0.8314
    5RES   C243 1371   3.683   2.550   3.155 -0.0895  0.7968  0.2337
    5RES   O244 1372   3.699   2.403   3.169  0.2671  0.1180 -1.1111
    5RES   C245 1373   3.705   2.374   3.305 -0.4230 -0.0239  0.7250
    5RES   H246 1374   3.553   2.785   3.015 -0.6501 -0.3631  0.8395
    5RES   H247 1375   3.726   2.768   3.046 -0.3266 -2.6294  0.8671
    5RES   H248 1376   3.703   2.525   2.955 -0.3759 -1.8169  1.1373
    5RES   H249 1377   3.783   2.591   3.171  0.5789 -0.0357 -1.6117
    5RES   H250 1378   3.616   2.583   3.233 -0.5504 -1.2789  0.7471
    5RES   H251 1379   3.610   2.372   3.359 -0.9774 -1.9581 -0.2842
    5RES   H252 1380   3.771   2.430   3.371 -2.5253  1.6785  1.4614
    5RES   H253 1381   3.731   2.271   3.326  2.1636  0.8253  1.8143
    5RES   O254 1382   3.502   2.541   3.018 -0.0682  0.1423 -0.6468
    5RES   C255 1383   3.456   2.507   2.889  0.5123 -0.4688 -0.2882
    5RES   C256 1384   3.311   2.449   2.878  0.5680  0.4496 -1.2647
    5RES   C257 1385   3.243   2.459   2.744  0.2548  0.1480 -0.5731
    5RES   O258 1386   3.118   2.390   2.734 -0.3189  0.1731  0.1140
    5RES   C259 1387   3.061   2.380   2.605 -0.3082  0.4664  0.4757
    5RES   H260 1388   3.441   2.607   2.848 -3.3919 -0.3568  1.2357
    5RES   H261 1389   3.523   2.447   2.827 -0.8792  0.1124 -2.3958
    5RES   H262 1390   3.244   2.496   2.950 -1.4622  0.3772 -3.0812
    5RES   H263 1391   3.223   2.566   2.732  0.4240  0.2359 -0.0675
    5RES   H264 1392   3.311   2.424   2.666  0.7646  0.6497 -0.3570
    5RES   H265 1393   3.012   2.474   2.579  0.0265  0.8661  1.2838
    5RES   H266 1394   2.985   2.303   2.608 -2.4345  2.5393  2.5098
    5RES   H267 1395   3.132   2.354   2.526 -2.3390  1.5000 -1.7783
    5RES   O268 1396   3.307   2.312   2.915  0.3247 -0.4007 -0.2839
    5RES   C269 1397   3.366   2.273   3.038 -0.8079  0.3368 -0.0370
    5RES   C270 1398   3.329   2.131   3.071  0.3436 -0.3810  0.8208
    5RES   C271 1399   3.342   2.091   3.214  0.2709  0.0470  0.6796
    5RES   O272 1400   3.321   1.952   3.243  0.4872  0.3821 -0.5959
    5RES   C273 1401   3.351   1.932   3.379  0.3146 -0.2238 -0.0932
    5RES   H274 1402   3.346   2.341   3.121 -3.0400  1.2573 -1.2867
    5RES   H275 1403   3.475   2.273   3.026 -0.9417 -0.1895 -1.2798
    5RES   H276 1404   3.225   2.118   3.042  0.9604 -4.2590 -0.0360
    5RES   H277 1405   3.270   2.150   3.269 -0.3534 -0.9656  0.9643
    5RES   H278 1406   3.435   2.135   3.249 -0.2706  0.4389  1.6354
    5RES   H279 1407   3.435   1.986   3.422 -1.0060  0.7001  1.3925
    5RES   H280 1408   3.363   1.825   3.393  0.2615 -0.4146 -1.4189
    5RES   H281 1409   3.265   1.967   3.437  0.5892  0.5058 -0.1139
    5RES   H282 1410   3.380   2.063   3.002 -0.1661  0.2688 -0.2091
    6RES     O1 1411   2.097   1.081   5.459  0.3512  0.2304 -0.0681
    6RES     C2 1412   2.210   1.119   5.376 -0.0550 -0.3196  0.0143
    6RES     C3 1413   2.313   1.009   5.342 -0.0503 -0.0947  0.0673
    6RES     C4 1414   2.382   1.043   5.207 -0.4635  0.3803 -0.7328
    6RES     O5 1415   2.454   0.930   5.167 -0.6630  0.3965  0.1497
    6RES     C6 1416   2.525   0.951   5.042  0.0976 -0.5250 -0.1005
    6RES     H7 1417   2.162   1.147   5.282  0.1668 -1.1897 -0.3579
    6RES     H8 1418   2.253   1.211   5.414 -2.6748  0.4563  1.2424
    6RES     H9 1419   2.257   0.915   5.341 -1.2741  0.6267 -0.0391
    6RES    H10 1420   2.442   1.132   5.228 -0.3654  0.6845 -2.2242
    6RES    H11 1421   2.300   1.061   5.138 -1.0590  2.0616  0.3754
    6RES    H12 1422   2.592   0.867   5.019  1.0074  0.3303 -0.6219
    6RES    H13 1423   2.459   0.948   4.956 -1.1814  0.7809  0.8049
    6RES    H14 1424   2.573   1.049   5.041  1.1939 -0.8926  4.2809
    6RES    H15 1425   2.064   1.155   5.507  0.4546 -1.0617  2.0577
    6RES    O16 1426   2.418   1.005   5.439 -0.2144 -0.3056 -0.1291
    6RES    C17 1427   2.374   0.921   5.550  0.5083 -0.1693 -0.5526
    6RES    C18 1428   2.478   0.944   5.664 -0.9458  0.4303  0.5923
    6RES    C19 1429   2.445   0.871   5.792  0.2044 -0.4983  0.0391
    6RES    O20 1430   2.530   0.911   5.901 -0.3829 -0.0132  1.1421
    6RES    C21 1431   2.496   0.856   6.028 -0.1827  0.1060 -0.4139
    6RES    H22 1432   2.367   0.818   5.515  0.4406  0.3690 -2.2121
    6RES    H23 1433   2.278   0.955   5.587  1.1443  0.9124  0.1316
    6RES    H24 1434   2.495   1.050   5.683  0.6677  0.2262  0.3489
    6RES    H25 1435   2.344   0.898   5.823 -0.2102 -1.0999 -0.7805
    6RES    H26 1436   2.442   0.762   5.784 -1.1245 -0.3657 -1.4829
    6RES    H27 1437   2.395   0.892   6.050  0.7083  1.9177  0.7887
    6RES    H28 1438   2.569   0.896   6.097 -2.6897 -1.4561  3.3377
    6RES    H29 1439   2.505   0.748   6.012  0.9687  0.0661  0.4697
    6RES    O30 1440   2.593   0.871   5.623  0.3854  0.0322  0.3962
    6RES    C31 1441   2.691   0.946   5.553 -0.9022  0.2186  0.4184
    6RES    C32 1442   2.791   0.856   5.480  0.2949  0.5632 -0.2120
    6RES    C33 1443   2.905   0.942   5.417 -0.3562  0.0007  0.2312
    6RES    O34 1444   3.032   0.881   5.447 -0.1526  0.4395 -0.3693
    6RES    C35 1445   3.090   0.919   5.579 -0.3319 -0.7780 -0.9813
    6RES    H36 1446   2.650   1.006   5.472  0.3631 -1.4042 -1.4880
    6RES    H37 1447   2.733   1.009   5.631  1.3386  1.5664 -1.8036
    6RES    H38 1448   2.830   0.797   5.563  0.5965  0.7012 -0.2572
    6RES    H39 1449   2.895   1.048   5.438 -0.0522  0.0909 -0.0713
    6RES    H40 1450   2.896   0.948   5.309 -1.6304 -1.3562  0.2435
    6RES    H41 1451   3.139   1.016   5.569 -1.0066 -0.3021  0.2598
    6RES    H42 1452   3.176   0.853   5.595  0.2077  0.1534 -0.0122
    6RES    H43 1453   3.031   0.910   5.669  2.3080 -2.5127  0.6446
    6RES    O44 1454   2.732   0.780   5.380  0.4064  0.4928 -0.0784
    6RES    C45 1455   2.822   0.688   5.305 -0.0748 -0.0835 -0.4514
    6RES    C46 1456   2.776   0.651   5.161  0.0725  0.1013 -0.4615
    6RES    C47 1457   2.886   0.584   5.071  0.1542 -0.0441 -0.0397
    6RES    O48 1458   2.840   0.609   4.937 -0.3773 -0.3872  0.1375
    6RES    C49 1459   2.938   0.577   4.842 -0.1573  0.1344  0.2991
    6RES    H50 1460   2.823   0.596   5.363 -0.4181  1.0154  1.3207
    6RES    H51 1461   2.929   0.708   5.306  0.0711 -0.8314 -0.4303
    6RES    H52 1462   2.754   0.748   5.114  1.0727  1.6207  2.1367
    6RES    H53 1463   2.984   0.623   5.096  0.7787 -0.2386 -2.1152
    6RES    H54 1464   2.881   0.476   5.088  2.8631 -0.0065  1.1648
    6RES    H55 1465   3.015   0.654   4.833 -0.9968  1.3987  3.1114
    6RES    H56 1466   2.886   0.563   4.747  1.1196 -1.5450 -0.1838
    6RES    H57 1467   2.990   0.484   4.865 -1.6649  0.0459  3.5556
    6RES    O58 1468   2.666   0.554   5.159  0.1337  0.3292 -0.4817
    6RES    C59 1469   2.536   0.592   5.201 -0.1179  0.1409  0.3912
    6RES    C60 1470   2.428   0.515   5.123 -0.2752  0.1389  0.5567
    6RES    C61 1471   2.313   0.615   5.079 -0.4480 -0.2136  0.2810
    6RES    O62 1472   2.226   0.545   4.990 -0.0661  0.1716  0.0491
    6RES    C63 1473   2.110   0.495   5.051  0.2995  0.6209  0.1956
    6RES    H64 1474   2.527   0.697   5.175 -1.2524  0.8957  3.5831
    6RES    H65 1475   2.536   0.588   5.310  1.2270  1.4828  0.4660
    6RES    H66 1476   2.486   0.484   5.036  2.3921 -1.4873  2.8161
    6RES    H67 1477   2.260   0.650   5.168  0.3811  2.8147 -0.3636
    6RES    H68 1478   2.351   0.709   5.038 -1.9035  0.6727  0.9404
    6RES    H69 1479   2.136   0.429   5.134  0.5245  0.0444 -0.3225
    6RES    H70 1480   2.040   0.465   4.973  0.7063  0.8653 -0.2730
    6RES    H71 1481   2.053   0.579   5.088  0.7447  0.9824  0.0637
    6RES    O72 1482   2.367   0.401   5.188  0.2034  0.2528  0.1451
    6RES    C73 1483   2.456   0.286   5.192  0.7255 -0.5976  0.3619
    6RES    C74 1484   2.449   0.220   5.051 -0.3078 -0.1104 -0.9943
    6RES    C75 1485   2.413   0.069   5.074 -0.2459 -0.2594  0.6476
    6RES    O76 1486   2.438   0.003   4.952  0.0555 -0.2555 -0.0333
    6RES    C77 1487   2.400   7.686   4.971  0.1928  0.0165  0.0369
    6RES    H78 1488   2.554   0.313   5.232  0.5846  0.7696 -0.2039
    6RES    H79 1489   2.420   0.215   5.267  1.3327 -1.4767 -0.1577
    6RES    H80 1490   2.361   0.250   4.995 -0.9930 -2.2319 -1.0789
    6RES    H81 1491   2.308   0.066   5.101 -0.4467  0.3549 -0.0541
    6RES    H82 1492   2.478   0.027   5.150 -0.6147 -2.1569 -0.0434
    6RES    H83 1493   2.431   7.652   5.070  2.1545  1.9262  0.0949
    6RES    H84 1494   2.443   7.625   4.891  1.7567  0.9298  0.1575
    6RES    H85 1495   2.294   7.667   4.955  0.5703 -0.2886 -2.2007
    6RES    O86 1496   2.564   0.249   4.976 -0.2023 -0.2417  0.7158
    6RES    C87 1497   2.538   0.277   4.840 -0.0773  0.0646  0.5000
    6RES    C88 1498   2.668   0.309   4.758 -0.4165  0.6976 -0.1737
    6RES    C89 1499   2.766   0.188   4.748  0.2014  0.1513  0.7806
    6RES    O90 1500   2.890   0.223   4.681  0.5335  0.3757 -0.5609
    6RES    C91 1501   2.985   0.124   4.655  0.3243 -0.3350  0.1819
    6RES    H92 1502   2.487   0.201   4.780  0.0390 -0.2530  0.8056
    6RES    H93 1503   2.472   0.362   4.824 -0.1583 -0.5907 -3.1572
    6RES    H94 1504   2.720   0.386   4.816  0.7279  0.9097 -1.4655
    6RES    H95 1505   2.787   0.144   4.845  3.6592 -1.4873 -0.6316
    6RES    H96 1506   2.724   0.106   4.689  1.8823  0.1260 -0.4041
    6RES    H97 1507   3.070   0.150   4.591  0.2563 -0.6241 -0.0307
    6RES    H98 1508   3.016   0.097   4.756  1.0549  0.9143  0.3031
    6RES    H99 1509   2.936   0.036   4.614  2.7246 -1.3775 -0.5950
    6RES   O100 1510   2.642   0.371   4.633 -0.3968  1.0484 -0.4588
    6RES   C101 1511   2.569   0.296   4.539  0.7322  0.4504  0.8203
    6RES   C102 1512   2.569   0.375   4.403  0.3396 -0.4980  0.2838
    6RES   C103 1513   2.485   0.297   4.297  0.5989  0.1379 -0.0007
    6RES   O104 1514   2.402   0.393   4.230 -0.5258  0.6924  0.3363
    6RES   C105 1515   2.290   0.330   4.176  0.5914 -0.5595  0.3348
    6RES   H106 1516   2.467   0.280   4.573 -0.2832  0.1441 -2.2251
    6RES   H107 1517   2.628   0.206   4.524  0.0843  0.2851 -0.9155
    6RES   H108 1518   2.513   0.465   4.427  0.2776 -0.7469  1.0926
    6RES   H109 1519   2.418   0.239   4.360 -0.9690 -1.3232 -2.8891
    6RES   H110 1520   2.533   0.220   4.237 -2.3770 -1.3774 -0.5392
    6RES   H111 1521   2.302   0.246   4.108 -0.3040  0.8066 -1.5693
    6RES   H112 1522   2.234   0.405   4.120  0.7563 -1.7146 -1.4128
    6RES   H113 1523   2.224   0.301   4.258 -1.5095 -1.1989 -1.5509
    6RES   O114 1524   2.691   0.402   4.340 -0.5340 -0.0072  0.4089
    6RES   C115 1525   2.753   0.524   4.376  0.3347 -0.7220 -0.9146
    6RES   C116 1526   2.898   0.524   4.342 -0.0062 -0.0030 -0.4453
    6RES   C117 1527   2.964   0.411   4.425 -0.1772  0.4797 -0.4205
    6RES   O118 1528   3.102   0.453   4.423  0.1856 -0.2401  0.1805
    6RES   C119 1529   3.195   0.355   4.455 -0.1096 -0.0160  0.2756
    6RES   H120 1530   2.703   0.606   4.325  1.8704  1.3499  0.7813
    6RES   H121 1531   2.727   0.550   4.479 -2.0017  0.1758 -1.6988
    6RES   H122 1532   2.947   0.620   4.361 -0.0938 -0.0205 -0.1239
    6RES   H123 1533   2.926   0.395   4.526  1.0368 -3.7377 -0.5480
    6RES   H124 1534   2.932   0.324   4.368 -1.5638  1.2794 -0.8810
    6RES   H125 1535   3.187   0.284   4.373  0.7234  0.5242 -0.2900
    6RES   H126 1536   3.167   0.301   4.545 -0.3399  2.8683  1.9747
    6RES   H127 1537   3.295   0.395   4.471 -0.8364  1.2375  1.8404
    6RES   O128 1538   2.893   0.500   4.201  0.7857 -0.6773  0.3435
    6RES   C129 1539   3.021   0.495   4.144  0.2903  0.9008  0.2524
    6RES   C130 1540   3.029   0.459   3.996  0.2959 -0.2670  0.2051
    6RES   C131 1541   3.164   0.418   3.943  0.3001  0.4341  0.2892
    6RES   O132 1542   3.143   0.372   3.810 -0.2192 -0.4137  0.0408
    6RES   C133 1543   3.108   0.231   3.799 -0.1498 -0.6800  0.3160
    6RES   H134 1544   3.087   0.578   4.167  1.4441  0.9145 -2.8405
    6RES   H135 1545   3.069   0.408   4.188 -0.9397 -0.3844 -0.9089
    6RES   H136 1546   2.966   0.372   3.976 -1.2330  0.2453  2.5373
    6RES   H137 1547   3.200   0.341   4.012  1.2121  1.5453  1.0703
    6RES   H138 1548   3.239   0.497   3.943  2.7013 -1.7647 -1.0517
    6RES   H139 1549   3.054   0.250   3.707  1.8238 -0.0687 -0.7413
    6RES   H140 1550   3.194   0.165   3.792  0.6036  0.2804  0.3228
    6RES   H141 1551   3.034   0.197   3.872 -2.3717 -0.7815 -1.9332
    6RES   O142 1552   2.986   0.572   3.920 -0.0093 -0.5586  0.0225
    6RES   C143 1553   2.844   0.578   3.908 -0.2608  0.5731 -0.2896
    6RES   C144 1554   2.803   0.658   3.780 -0.0983 -0.4143 -0.0299
    6RES   C145 1555   2.662   0.712   3.779 -0.6287  0.6000  0.4456
    6RES   O146 1556   2.568   0.604   3.761  0.1020  0.0912  0.2249
    6RES   C147 1557   2.484   0.599   3.876 -0.5505  0.2157 -0.1312
    6RES   H148 1558   2.796   0.481   3.914 -0.4224  0.7246  1.3550
    6RES   H149 1559   2.812   0.637   3.994  0.9283  0.2210  0.4089
    6RES   H150 1560   2.883   0.730   3.765 -0.2124 -0.2586  0.1121
    6RES   H151 1561   2.656   0.766   3.684 -2.7879 -2.8638 -1.5218
    6RES   H152 1562   2.628   0.785   3.853 -1.1306 -1.2545  2.1033
    6RES   H153 1563   2.419   0.511   3.879 -1.1045  0.5876 -0.9716
    6RES   H154 1564   2.417   0.685   3.880 -1.3073 -0.1792 -2.8416
    6RES   H155 1565   2.548   0.586   3.962  0.7964 -1.1563 -1.3131
    6RES   O156 1566   2.822   0.563   3.672  0.7684  0.3324 -0.5746
    6RES   C157 1567   2.934   0.587   3.590 -0.3922 -0.4990  0.7779
    6RES   C158 1568   2.956   0.469   3.488  0.0691  0.6794  0.1490
    6RES   C159 1569   3.105   0.423   3.471  0.0437  0.1051 -0.6480
    6RES   O160 1570   3.125   0.285   3.424 -0.0987  0.1364 -0.4359
    6RES   C161 1571   3.259   0.255   3.384  0.6686  0.2370  0.2959
    6RES   H162 1572   2.916   0.682   3.540 -0.4238  0.6070  2.8431
    6RES   H163 1573   3.029   0.604   3.642  0.2939  1.9766 -1.2044
    6RES   H164 1574   2.918   0.376   3.530  0.4139  0.9096  0.9996
    6RES   H165 1575   3.153   0.486   3.396 -0.8962  1.1711 -0.3639
    6RES   H166 1576   3.154   0.446   3.565 -0.4899 -1.4354  0.0170
    6RES   H167 1577   3.266   0.146   3.377 -1.2644  0.0174  1.2448
    6RES   H168 1578   3.328   0.300   3.455  1.7232  1.2039 -1.3238
    6RES   H169 1579   3.272   0.298   3.285  0.0870 -0.1435  0.0470
    6RES   O170 1580   2.902   0.502   3.364 -0.4063  0.2038 -0.3814
    6RES   C171 1581   2.753   0.515   3.363  0.9581  0.1964  0.3106
    6RES   C172 1582   2.717   0.505   3.215  0.7875  0.4381 -0.2979
    6RES   C173 1583   2.568   0.556   3.191 -0.5264 -0.0726 -0.1779
    6RES   O174 1584   2.548   0.614   3.063  0.4321 -0.0677 -0.2056
    6RES   C175 1585   2.416   0.671   3.058  0.1587 -0.7216  0.3078
    6RES   H176 1586   2.731   0.612   3.407  2.0289 -0.4080  2.2201
    6RES   H177 1587   2.698   0.439   3.418 -1.2472  1.4082 -0.1747
    6RES   H178 1588   2.788   0.569   3.162  0.5681  0.5924 -0.4054
    6RES   H179 1589   2.513   0.468   3.223  0.1555 -0.5568 -0.3240
    6RES   H180 1590   2.531   0.627   3.265 -0.5116  1.5409 -1.6663
    6RES   H181 1591   2.412   0.740   2.973 -1.9094 -0.7041  0.4119
    6RES   H182 1592   2.396   0.726   3.149 -2.1059 -0.5726 -0.2507
    6RES   H183 1593   2.349   0.586   3.057 -0.1293 -0.5600 -4.2473
    6RES   O184 1594   2.725   0.377   3.169  0.0418  0.5076  0.0812
    6RES   C185 1595   2.854   0.326   3.157  0.4566 -0.1406  0.6311
    6RES   C186 1596   2.837   0.208   3.062  0.1639  0.3443 -0.5869
    6RES   C187 1597   2.963   0.118   3.066  0.3985  0.2939  0.5027
    6RES   O188 1598   2.924   7.799   3.039  0.0266 -0.3920  0.1227
    6RES   C189 1599   3.035   7.715   3.008 -0.0789  0.3876 -0.3433
    6RES   H190 1600   2.886   0.294   3.256 -2.9328 -2.0481  1.1881
    6RES   H191 1601   2.919   0.404   3.118  2.1832 -0.2363  3.2350
    6RES   H192 1602   2.743   0.156   3.081  0.2746  0.5273  0.5344
    6RES   H193 1603   3.007   0.123   3.165 -0.1741 -3.4091  1.0327
    6RES   H194 1604   3.031   0.166   2.997  0.5452 -0.8883 -0.1992
    6RES   H195 1605   3.070   7.736   2.908 -1.4383  2.3516 -0.4468
    6RES   H196 1606   3.109   7.733   3.086 -1.6272  0.6708  1.0973
    6RES   H197 1607   2.999   7.613   3.016 -2.2697  1.0853 -0.8979
    6RES   O198 1608   2.839   0.282   2.941  0.2773  0.1195 -0.5195
    6RES   C199 1609   2.714   0.288   2.877  0.7719  0.3297  0.1271
    6RES   C200 1610   2.692   0.161   2.793 -0.4409 -1.3952  0.1069
    6RES   C201 1611   2.593   0.186   2.675 -0.1453  0.2681 -0.3411
    6RES   O202 1612   2.577   0.078   2.591  0.4317  0.1411 -0.5310
    6RES   C203 1613   2.678   0.076   2.495  0.3062  0.3872 -0.5148
    6RES   H204 1614   2.729   0.369   2.804  3.0477 -0.5066 -0.3801
    6RES   H205 1615   2.634   0.304   2.949  1.3114 -1.9683  1.2640
    6RES   H206 1616   2.785   0.118   2.759 -1.1176 -0.1682 -3.4757
    6RES   H207 1617   2.498   0.210   2.722  1.4376  0.1383  3.0571
    6RES   H208 1618   2.623   0.272   2.615 -1.2476 -0.0349 -1.3292
    6RES   H209 1619   2.780   0.075   2.533  0.1400  0.6666 -0.0578
    6RES   H210 1620   2.673   0.160   2.425 -1.8056 -0.1184 -1.0134
    6RES   H211 1621   2.663   7.802   2.437 -0.2191 -0.6101  1.1517
    6RES   O212 1622   2.633   0.066   2.879 -0.8028 -0.1207 -0.1702
    6RES   C213 1623   2.655   7.744   2.864  0.5688  0.4394 -0.1567
    6RES   C214 1624   2.623   7.694   3.005  0.7361 -0.0848 -0.9550
    6RES   C215 1625   2.695   7.559   3.043 -0.1693 -0.2877  0.3848
    6RES   O216 1626   2.686   7.537   3.187 -0.5310  0.0214  0.1581
    6RES   C217 1627   2.783   7.436   3.221 -0.2874 -0.1380 -0.8496
    6RES   H218 1628   2.760   7.728   2.838  0.0022 -0.1728 -2.0839
    6RES   H219 1629   2.604   7.694   2.782  1.7425 -0.3112 -0.4490
    6RES   H220 1630   2.647   7.766   3.084 -0.2114  1.4089 -2.0094
    6RES   H221 1631   2.643   7.483   2.985  0.2380  0.7248 -1.3606
    6RES   H222 1632   2.800   7.554   3.012 -0.5809  1.8456 -1.4790
    6RES   H223 1633   2.886   7.465   3.205 -0.1949  0.2677  0.3620
    6RES   H224 1634   2.771   7.341   3.169  1.7715 -0.7798 -0.1819
    6RES   H225 1635   2.780   7.408   3.327 -0.2543  1.3133 -0.4572
    6RES   O226 1636   2.485   7.678   2.998 -0.1907  0.4414  0.1324
    6RES   C227 1637   2.412   7.702   3.119 -0.2962 -0.5218  0.5803
    6RES   C228 1638   2.259   7.683   3.089  0.8855  0.0731  0.4884
    6RES   C229 1639   2.157   7.651   3.201 -0.5497  0.1614 -0.3373
    6RES   O230 1640   2.072   7.559   3.147  0.0819 -0.4871 -0.5779
    6RES   C231 1641   1.978   7.506   3.238  0.3644  0.1031 -0.4172
    6RES   H232 1642   2.421   7.806   3.153  2.4337 -0.6337  0.2928
    6RES   H233 1643   2.442   7.626   3.191  2.4944 -1.8576 -1.8942
    6RES   H234 1644   2.262   7.602   3.016  1.4576  2.0039 -1.7075
    6RES   H235 1645   2.099   7.738   3.233 -1.9517 -0.9360  0.1523
    6RES   H236 1646   2.206   7.602   3.285 -0.5879  1.8602  0.6914
    6RES   H237 1647   1.912   7.444   3.177  2.1601 -0.5506 -1.7294
    6RES   H238 1648   1.917   7.585   3.283  0.0194  0.6081 -1.7369
    6RES   H239 1649   2.028   7.444   3.313 -1.0282 -3.6661 -2.4551
    6RES   O240 1650   2.212   7.806   3.026  0.0119  0.5308  0.3033
    6RES   C241 1651   2.245   0.008   2.892 -0.0600 -0.1052  0.1855
    6RES   C242 1652   2.185   0.142   2.851  0.1737 -0.0299 -0.7952
    6RES   C243 1653   2.259   0.267   2.918  0.3644 -0.2154  0.3710
    6RES   O244 1654   2.189   0.390   2.892 -0.2096 -0.4903  0.1001
    6RES   C245 1655   2.076   0.408   2.971 -0.2699  0.2742  0.4894
    6RES   H246 1656   2.178   7.748   2.853 -1.9535  1.1501  0.8465
    6RES   H247 1657   2.346   7.811   2.853 -0.3429 -3.0357  0.3809
    6RES   H248 1658   2.079   0.151   2.874  0.8205  2.2070  1.5440
    6RES   H249 1659   2.273   0.259   3.026  1.2809  1.6161  0.4155
    6RES   H250 1660   2.361   0.282   2.882  0.1237 -1.1865 -0.7464
    6RES   H251 1661   1.991   0.342   2.952 -0.3455 -0.2567  2.6181
    6RES   H252 1662   2.047   0.513   2.962 -0.8901  0.0795  0.1468
    6RES   H253 1663   2.102   0.398   3.076  2.1861  0.6943 -0.0485
    6RES   O254 1664   2.187   0.144   2.712 -0.6058 -0.1098  0.1853
    6RES   C255 1665   2.112   0.243   2.649 -0.2492  0.1431  0.1890
    6RES   C256 1666   2.124   0.207   2.498 -0.1027  0.3737  0.0434
    6RES   C257 1667   2.272   0.216   2.459 -0.6920 -0.1260  0.1768
    6RES   O258 1668   2.279   0.255   2.316 -0.0438 -0.5050 -0.0843
    6RES   C259 1669   2.400   0.251   2.250 -0.0860 -0.3426 -0.4152
    6RES   H260 1670   2.011   0.257   2.687  0.0134  2.4981  0.0902
    6RES   H261 1671   2.162   0.339   2.662  0.8478 -0.3577 -0.2620
    6RES   H262 1672   2.059   0.273   2.441  1.3716  1.4130 -0.4674
    6RES   H263 1673   2.324   0.293   2.515  0.9684  1.0921 -2.9144
    6RES   H264 1674   2.323   0.122   2.481 -1.8707 -0.6577  0.7100
    6RES   H265 1675   2.447   0.153   2.256  0.5465  0.0108  0.5962
    6RES   H266 1676   2.472   0.317   2.298 -1.1921  1.4007 -1.1307
    6RES   H267 1677   2.379   0.270   2.145  0.4339 -1.5542 -0.7490
    6RES   O268 1678   2.069   0.073   2.481  0.1229 -0.6399 -0.4703
    6RES   C269 1679   2.051   0.036   2.345 -0.7129 -0.1530  0.0986
    6RES   C270 1680   1.974   7.719   2.335 -0.5361 -0.1441  0.1704
    6RES   C271 1681   1.927   7.679   2.198 -0.5088 -0.0076  0.3794
    6RES   O272 1682   1.879   7.548   2.206  0.3933  0.0835 -0.0718
    6RES   C273 1683   1.849   7.490   2.070  0.4738 -0.1208  0.2192
    6RES   H274 1684   2.144   0.042   2.289 -0.5521 -0.4922  0.3313
    6RES   H275 1685   1.995   0.117   2.299  1.8216  1.5682 -0.0543
    6RES   H276 1686   2.032   7.635   2.374  0.4821 -0.5100 -2.0610
    6RES   H277 1687   2.005   7.692   2.123 -1.1695  0.6199 -0.2147
    6RES   H278 1688   1.838   7.738   2.174  0.0066  0.7852  0.3928
    6RES   H279 1689   1.804   7.391   2.082 -1.7690  1.0334  1.5499
    6RES   H280 1690   1.940   7.477   2.012 -0.2388 -0.9195 -0.7414
    6RES   H281 1691   1.773   7.543   2.011 -0.8670 -1.3925  0.7767
    6RES   H282 1692   1.879   7.716   2.390  0.5993 -1.2588  2.1175
    7RES     O1 1693   0.905   3.634   5.213 -0.4894  0.2227 -0.0198
    7RES     C2 1694   0.937   3.518   5.284 -0.2094  0.0689  0.5878
    7RES     C3 1695   1.083   3.471   5.278  0.2089 -0.2855 -0.0089
    7RES     C4 1696   1.103   3.361   5.387  0.6597 -0.5560  0.1506
    7RES     O5 1697   1.080   3.415   5.518  0.1431 -0.7407 -0.3751
    7RES     C6 1698   1.111   3.330   5.626  1.0869  0.8465 -0.4796
    7RES     H7 1699   0.921   3.545   5.388  1.7966  1.3371  0.5878
    7RES     H8 1700   0.872   3.438   5.248  0.3560 -0.5296  0.8906
    7RES     H9 1701   1.149   3.556   5.296 -1.3251  0.6005  1.5565
    7RES    H10 1702   1.198   3.307   5.386  0.4467 -0.9348  0.0929
    7RES    H11 1703   1.031   3.281   5.369 -1.3292  1.3987 -0.7169
    7RES    H12 1704   1.216   3.306   5.647  0.0671 -3.2913  0.2280
    7RES    H13 1705   1.076   3.375   5.718 -1.2116  0.0945 -0.9681
    7RES    H14 1706   1.065   3.232   5.622  0.9950  0.8703  0.0107
    7RES    H15 1707   0.959   3.635   5.136 -0.0197 -1.4118  0.2794
    7RES    O16 1708   1.109   3.411   5.153  0.7375 -0.4419  0.0635
    7RES    C17 1709   1.250   3.372   5.130  0.3873  0.2258  0.3880
    7RES    C18 1710   1.290   3.369   4.987 -0.5209 -0.8552  0.3720
    7RES    C19 1711   1.443   3.348   4.978 -0.3299 -0.3594 -0.1812
    7RES    O20 1712   1.493   3.413   4.868  0.1887 -0.3117  0.2415
    7RES    C21 1713   1.572   3.332   4.786  0.7494  0.0321 -0.0658
    7RES    H22 1714   1.276   3.280   5.181  1.1876 -0.6520 -1.5483
    7RES    H23 1715   1.312   3.450   5.174  2.1977 -1.2215  0.4712
    7RES    H24 1716   1.264   3.472   4.963  2.3495 -0.5410 -1.5073
    7RES    H25 1717   1.487   3.394   5.066 -1.1087 -0.1885  0.1210
    7RES    H26 1718   1.468   3.243   4.993 -0.1991 -0.2570  0.3018
    7RES    H27 1719   1.627   3.393   4.715 -0.1105 -1.3535 -1.9584
    7RES    H28 1720   1.511   3.259   4.734  0.6184  1.4955 -2.0121
    7RES    H29 1721   1.648   3.281   4.846  0.8423  0.1084 -0.1174
    7RES    O30 1722   1.208   3.265   4.932 -0.1463 -0.2999 -0.5534
    7RES    C31 1723   1.199   3.273   4.789 -0.1052  0.6632  0.1746
    7RES    C32 1724   1.117   3.155   4.746 -0.9598  0.1184  1.2011
    7RES    C33 1725   1.096   3.170   4.598  0.5741  0.1335 -0.2814
    7RES    O34 1726   1.050   3.055   4.525  0.4766  0.5044  0.7266
    7RES    C35 1727   0.914   3.025   4.540 -0.5662 -0.4371 -0.0366
    7RES    H36 1728   1.157   3.365   4.747 -1.7230 -0.2527 -0.2471
    7RES    H37 1729   1.296   3.261   4.740 -1.1353 -0.1700 -1.7237
    7RES    H38 1730   1.162   3.058   4.766 -2.3252 -0.7196  0.3555
    7RES    H39 1731   1.188   3.203   4.550  2.0909  2.6945  4.1046
    7RES    H40 1732   1.026   3.252   4.583 -1.3092 -1.6084 -1.3040
    7RES    H41 1733   0.854   3.110   4.508  1.5245  0.9106 -0.4747
    7RES    H42 1734   0.890   2.994   4.641  0.8430  1.7100  0.9952
    7RES    H43 1735   0.895   2.939   4.475 -3.6943  1.8013 -2.2745
    7RES    O44 1736   0.991   3.157   4.815  0.2051 -0.5470 -0.4830
    7RES    C45 1737   0.970   3.075   4.928 -0.0578  0.1271  0.8136
    7RES    C46 1738   0.825   3.075   4.985 -0.1788 -0.0642 -0.0851
    7RES    C47 1739   0.792   3.221   5.035  0.3876  0.8133 -0.8863
    7RES    O48 1740   0.679   3.216   5.122  0.2102  0.1800  0.0871
    7RES    C49 1741   0.596   3.326   5.098  0.5128 -0.4614  0.2377
    7RES    H50 1742   1.030   3.097   5.016  1.5165 -1.7050  0.2403
    7RES    H51 1743   0.994   2.975   4.892 -1.1812  0.0957  0.1346
    7RES    H52 1744   0.808   3.008   5.069  2.9881 -1.4915 -0.5362
    7RES    H53 1745   0.871   3.248   5.106 -0.4478 -1.0362  0.7818
    7RES    H54 1746   0.789   3.292   4.952 -0.9549  0.2810 -1.3063
    7RES    H55 1747   0.516   3.318   5.172 -1.4104 -0.3651 -1.7818
    7RES    H56 1748   0.553   3.312   4.999  1.7790  1.3655 -0.5940
    7RES    H57 1749   0.642   3.425   5.095 -0.7902  0.2416  2.5121
    7RES    O58 1750   0.732   3.050   4.883 -0.2935  0.2286 -0.1736
    7RES    C59 1751   0.620   2.981   4.928  0.2566  0.1198  0.0881
    7RES    C60 1752   0.637   2.834   4.901 -0.1513  0.2122 -0.1696
    7RES    C61 1753   0.502   2.764   4.880 -0.0595  0.0639  0.4475
    7RES    O62 1754   0.518   2.646   4.802 -0.2167 -0.5523  0.1145
    7RES    C63 1755   0.407   2.563   4.772  0.5447 -0.6350  0.3651
    7RES    H64 1756   0.538   3.019   4.867 -0.2868 -0.0509  0.7036
    7RES    H65 1757   0.584   3.008   5.028  0.2638  0.4019  0.0154
    7RES    H66 1758   0.687   2.820   4.805 -1.6455 -1.2045 -0.7705
    7RES    H67 1759   0.465   2.739   4.980 -0.5934  0.4021  0.3348
    7RES    H68 1760   0.432   2.831   4.832  1.9609 -0.6005 -3.6456
    7RES    H69 1761   0.350   2.531   4.860 -1.2895 -0.1650 -0.6137
    7RES    H70 1762   0.430   2.466   4.727  1.1838 -0.9836  1.4274
    7RES    H71 1763   0.342   2.618   4.704  2.6885  1.5236  0.0101
    7RES    O72 1764   0.692   2.769   5.021  0.2907 -0.4461 -0.1704
    7RES    C73 1765   0.766   2.647   4.987  0.9157  0.7178  0.2182
    7RES    C74 1766   0.851   2.594   5.106  0.4114  0.1972  0.3372
    7RES    C75 1767   0.770   2.599   5.237 -0.3464  0.3002 -0.3724
    7RES    O76 1768   0.845   2.548   5.343 -0.0338  0.5506 -0.5767
    7RES    C77 1769   0.757   2.507   5.443  0.5309  0.0647 -0.7854
    7RES    H78 1770   0.689   2.576   4.959 -0.8699  1.7430  2.3618
    7RES    H79 1771   0.819   2.669   4.893  0.7840  1.4317  0.3047
    7RES    H80 1772   0.864   2.487   5.091 -1.1467 -0.1555  1.4196
    7RES    H81 1773   0.691   2.526   5.223  0.5938 -1.3602  2.4847
    7RES    H82 1774   0.743   2.704   5.253 -0.6428  0.0840  0.5736
    7RES    H83 1775   0.695   2.426   5.406 -1.0319 -0.2797  2.4035
    7RES    H84 1776   0.701   2.591   5.485 -2.2824 -1.3725 -1.5675
    7RES    H85 1777   0.822   2.474   5.525 -1.7984  0.9760  1.5026
    7RES    O86 1778   0.985   2.657   5.110  0.2357 -0.1477 -0.0258
    7RES    C87 1779   1.086   2.569   5.148  0.7788  0.3138  0.7316
    7RES    C88 1780   1.231   2.630   5.144 -0.6778 -0.4002 -0.0841
    7RES    C89 1781   1.333   2.566   5.233  0.1092  0.1236  0.3336
    7RES    O90 1782   1.452   2.642   5.237 -0.3101  0.0508  0.4569
    7RES    C91 1783   1.553   2.612   5.137  0.8390  0.5042 -1.0089
    7RES    H92 1784   1.059   2.535   5.248  0.5577  0.2962  0.6651
    7RES    H93 1785   1.085   2.479   5.086  0.1617  0.9353 -0.1770
    7RES    H94 1786   1.236   2.736   5.173  2.7036 -0.9196  1.5092
    7RES    H95 1787   1.284   2.565   5.330 -0.6502  0.4863 -0.0465
    7RES    H96 1788   1.344   2.465   5.195  1.7154  0.5429 -0.3775
    7RES    H97 1789   1.513   2.645   5.042 -0.8134  0.8353 -0.2108
    7RES    H98 1790   1.633   2.680   5.168 -0.8616  2.3729 -0.6465
    7RES    H99 1791   1.592   2.511   5.146 -0.4041 -0.1125 -2.4063
    7RES   O100 1792   1.282   2.624   5.011  0.2347 -0.2452  0.5710
    7RES   C101 1793   1.213   2.696   4.910  0.8522 -0.0721  0.6608
    7RES   C102 1794   1.280   2.649   4.778 -0.3723 -0.0906 -0.3740
    7RES   C103 1795   1.270   2.761   4.675  0.4608 -0.0227 -0.2215
    7RES   O104 1796   1.362   2.744   4.577 -1.0901  0.0436  0.4636
    7RES   C105 1797   1.352   2.839   4.462  0.2372  0.2847 -0.3072
    7RES   H106 1798   1.236   2.798   4.940 -1.8140  0.6797  0.2458
    7RES   H107 1799   1.105   2.683   4.903  0.8088 -0.2431  1.5099
    7RES   H108 1800   1.383   2.652   4.814 -0.9995  2.5052  1.3570
    7RES   H109 1801   1.302   2.847   4.734  2.7044 -0.7436 -0.3228
    7RES   H110 1802   1.164   2.776   4.654 -0.6555 -0.7847  4.2833
    7RES   H111 1803   1.339   2.944   4.488  1.9674  0.3847  0.2403
    7RES   H112 1804   1.266   2.810   4.402  0.4171  1.1975 -1.0072
    7RES   H113 1805   1.433   2.840   4.389  0.5914  0.8950  0.0964
    7RES   O114 1806   1.206   2.534   4.734 -0.0885  0.1548 -0.1365
    7RES   C115 1807   1.277   2.437   4.666 -0.2139  0.1841  0.0109
    7RES   C116 1808   1.194   2.319   4.619 -0.4927  0.3116  0.5534
    7RES   C117 1809   1.260   2.241   4.499  1.0090  0.2028  0.5034
    7RES   O118 1810   1.152   2.209   4.406 -0.3279  0.0814 -0.0502
    7RES   C119 1811   1.184   2.133   4.294  0.3540  0.1069  0.1180
    7RES   H120 1812   1.320   2.504   4.591 -0.3713  1.5339  1.0892
    7RES   H121 1813   1.367   2.397   4.714 -0.2304 -0.3978 -0.4439
    7RES   H122 1814   1.101   2.355   4.574 -0.0443  0.0928 -0.5836
    7RES   H123 1815   1.324   2.307   4.441 -0.8516  2.2972  0.7800
    7RES   H124 1816   1.326   2.162   4.536  0.9363 -0.3606 -0.5523
    7RES   H125 1817   1.102   2.140   4.222 -1.1969 -0.4063  1.7843
    7RES   H126 1818   1.195   2.025   4.310 -1.0372 -0.2027 -0.9139
    7RES   H127 1819   1.271   2.178   4.246 -1.2094  2.4976 -0.5266
    7RES   O128 1820   1.161   2.240   4.731  0.0722 -0.2101  0.3676
    7RES   C129 1821   1.065   2.139   4.710  0.1227  0.3411 -0.5671
    7RES   C130 1822   1.078   2.050   4.830  0.3362  0.5497 -0.1063
    7RES   C131 1823   0.979   1.931   4.815 -0.6663  0.0054  0.6313
    7RES   O132 1824   1.019   1.814   4.890 -0.0267 -0.1597  0.1137
    7RES   C133 1825   0.924   1.712   4.890  0.2479  0.3135  0.2232
    7RES   H134 1826   0.961   2.172   4.710  0.9028  2.8781  1.2365
    7RES   H135 1827   1.086   2.085   4.617  1.1747  0.8967 -0.6580
    7RES   H136 1828   1.181   2.015   4.830  0.5753  1.2145 -1.8828
    7RES   H137 1829   0.982   1.893   4.713  0.8310  0.3577  0.5477
    7RES   H138 1830   0.877   1.970   4.821 -0.9114 -0.4096 -0.8019
    7RES   H139 1831   0.956   1.630   4.955 -1.0878  0.6279  1.3091
    7RES   H140 1832   0.826   1.754   4.914  0.4443  2.0165 -1.8447
    7RES   H141 1833   0.915   1.654   4.799  2.1067 -0.6932  0.6508
    7RES   O142 1834   1.039   2.137   4.939  0.5092  0.9940 -0.3852
    7RES   C143 1835   1.066   2.080   5.065 -0.0092 -0.4905 -0.2908
    7RES   C144 1836   0.990   2.164   5.168  0.0102  0.0153  0.2577
    7RES   C145 1837   1.061   2.173   5.306  0.2822  0.0191  0.8367
    7RES   O146 1838   0.996   2.277   5.388  0.3949  0.0969  0.5508
    7RES   C147 1839   1.082   2.321   5.499  0.8001  0.3453  0.5460
    7RES   H148 1840   1.034   1.976   5.074 -2.3772  0.0114 -2.2587
    7RES   H149 1841   1.170   2.086   5.099 -0.5885  0.1589  1.4031
    7RES   H150 1842   0.970   2.264   5.127 -0.8966 -0.3727 -0.2592
    7RES   H151 1843   1.164   2.203   5.286  0.4374  0.2932  2.0427
    7RES   H152 1844   1.076   2.074   5.351  1.7927  0.6688  1.7844
    7RES   H153 1845   1.179   2.364   5.472  0.9557 -0.2842  0.0786
    7RES   H154 1846   1.108   2.222   5.535 -1.1023 -1.1704 -2.0261
    7RES   H155 1847   1.027   2.380   5.571 -0.2698  0.4170 -0.3181
    7RES   O156 1848   0.864   2.102   5.199  0.2578  0.2549  0.3121
    7RES   C157 1849   0.744   2.179   5.167  0.2246 -0.2031  0.0057
    7RES   C158 1850   0.618   2.127   5.232  0.5252 -0.4027  0.6433
    7RES   C159 1851   0.494   2.176   5.160 -0.7304 -0.4774  0.2218
    7RES   O160 1852   0.498   2.319   5.159  0.6896  0.1671 -0.4930
    7RES   C161 1853   0.378   2.376   5.098  0.1592  0.5956  0.3013
    7RES   H162 1854   0.756   2.286   5.184  0.0508 -0.0828 -0.6001
    7RES   H163 1855   0.725   2.159   5.062 -0.6401 -0.3704  0.1895
    7RES   H164 1856   0.620   2.018   5.232 -0.3800 -0.4241 -0.7033
    7RES   H165 1857   0.486   2.129   5.062  2.3959 -0.3613 -0.1423
    7RES   H166 1858   0.401   2.138   5.202 -0.9358  0.1180  0.3107
    7RES   H167 1859   0.299   2.376   5.172 -0.1077 -0.3831  0.0249
    7RES   H168 1860   0.348   2.318   5.011  0.7115 -1.2200  1.2962
    7RES   H169 1861   0.387   2.479   5.064 -1.0537  0.4358 -0.5275
    7RES   O170 1862   0.603   2.177   5.365 -0.3662  0.0624 -0.1100
    7RES   C171 1863   0.653   2.092   5.468  0.1071 -0.9628  0.4397
    7RES   C172 1864   0.734   2.153   5.589 -0.0851 -0.1021 -0.3591
    7RES   C173 1865   0.841   2.057   5.647 -0.3281  0.6832 -0.1422
    7RES   O174 1866   0.946   2.112   5.734  0.3320 -0.1045  0.0016
    7RES   C175 1867   0.902   2.215   5.827  0.7684  1.1541  0.3476
    7RES   H176 1868   0.730   2.029   5.422  1.5789  0.7479  0.5201
    7RES   H177 1869   0.580   2.015   5.496 -0.1677 -0.1026  2.1466
    7RES   H178 1870   0.792   2.242   5.561 -0.2981 -1.2420 -4.6684
    7RES   H179 1871   0.792   1.976   5.701  2.2667 -0.6761  0.2162
    7RES   H180 1872   0.902   2.016   5.567 -0.1692  0.4938  0.0770
    7RES   H181 1873   0.865   2.307   5.782  1.5535  2.0072  1.4032
    7RES   H182 1874   0.981   2.244   5.897 -0.0881  1.3423  1.2360
    7RES   H183 1875   0.824   2.171   5.888  0.1643 -0.0478 -1.2606
    7RES   O184 1876   0.650   2.178   5.704 -0.2862  0.4484  0.5987
    7RES   C185 1877   0.566   2.297   5.689 -0.3907  0.1371 -0.6468
    7RES   C186 1878   0.508   2.332   5.832  0.8760  0.0949 -0.1073
    7RES   C187 1879   0.395   2.436   5.822  0.0717 -0.3808  0.2229
    7RES   O188 1880   0.325   2.429   5.947  0.5210  0.2388 -0.1951
    7RES   C189 1881   0.239   2.532   5.960 -0.3408 -0.6599 -0.0363
    7RES   H190 1882   0.488   2.261   5.622 -0.2719  0.3901 -0.9240
    7RES   H191 1883   0.626   2.377   5.645 -0.5498  2.0108  2.3730
    7RES   H192 1884   0.467   2.240   5.872  0.0366  1.0279  1.2236
    7RES   H193 1885   0.329   2.402   5.743 -0.4917  2.2007 -0.4658
    7RES   H194 1886   0.435   2.529   5.780  0.0551 -1.1576 -1.5507
    7RES   H195 1887   0.184   2.513   6.052 -2.0481  0.0664 -0.9005
    7RES   H196 1888   0.287   2.630   5.957 -2.4316  0.3730 -0.1901
    7RES   H197 1889   0.164   2.523   5.882 -0.9984  0.0493  0.5178
    7RES   O198 1890   0.614   2.378   5.913  0.0412  0.2338  0.0927
    7RES   C199 1891   0.581   2.427   6.044  0.1645  0.3222 -0.0373
    7RES   C200 1892   0.717   2.462   6.122 -0.7514  0.4237 -0.6077
    7RES   C201 1893   0.701   2.478   6.272  0.3296  0.3396 -0.0906
    7RES   O202 1894   0.829   2.469   6.332  0.0606 -0.1161  0.6421
    7RES   C203 1895   0.816   2.468   6.473 -0.0882 -0.3165 -0.1300
    7RES   H204 1896   0.518   2.355   6.096  0.4508  1.2055  1.5432
    7RES   H205 1897   0.525   2.520   6.037 -0.4782 -0.0601 -0.0074
    7RES   H206 1898   0.788   2.382   6.105 -0.5235  0.5328 -0.1709
    7RES   H207 1899   0.645   2.568   6.298  0.6657 -0.1083  2.2879
    7RES   H208 1900   0.646   2.390   6.303  0.9643  0.5383  1.6604
    7RES   H209 1901   0.916   2.479   6.514 -0.1385  0.5249 -0.2094
    7RES   H210 1902   0.774   2.376   6.514 -1.1213  0.4200  0.4977
    7RES   H211 1903   0.746   2.542   6.513  0.4611  0.5118 -0.6688
    7RES   O212 1904   0.754   2.596   6.081 -0.8420 -0.3177  0.1492
    7RES   C213 1905   0.901   2.607   6.073 -0.0183 -0.1612  0.6611
    7RES   C214 1906   0.948   2.593   5.931 -1.2954  0.5346  0.1976
    7RES   C215 1907   1.096   2.537   5.916 -0.5317 -0.2289 -0.0595
    7RES   O216 1908   1.125   2.508   5.780  0.3429  0.2582 -0.2022
    7RES   C217 1909   1.265   2.489   5.759  0.1949 -0.0729  0.3256
    7RES   H218 1910   0.963   2.546   6.139 -0.5863 -0.8061  0.6033
    7RES   H219 1911   0.924   2.712   6.090 -0.5426  0.0369  0.1720
    7RES   H220 1912   0.881   2.523   5.881 -1.4243  0.4385  0.5061
    7RES   H221 1913   1.171   2.609   5.950 -0.6283 -0.0591 -0.2093
    7RES   H222 1914   1.101   2.451   5.983 -1.0129 -0.1174  0.1218
    7RES   H223 1915   1.311   2.587   5.765  1.5573 -0.8507  3.7219
    7RES   H224 1916   1.303   2.441   5.668  3.3077 -0.3787  1.7328
    7RES   H225 1917   1.300   2.419   5.835  1.3540  1.0941  0.8745
    7RES   O226 1918   0.929   2.722   5.872  0.3568  0.0334  0.0130
    7RES   C227 1919   0.939   2.723   5.733  0.4179  0.1481  0.1146
    7RES   C228 1920   0.879   2.842   5.674 -0.1275 -0.7243 -0.1908
    7RES   C229 1921   0.926   2.858   5.527 -0.6816 -0.1450  0.1110
    7RES   O230 1922   0.879   2.985   5.483 -0.0897 -0.3446 -0.8088
    7RES   C231 1923   0.910   3.004   5.347 -0.0844 -0.3030  0.2264
    7RES   H232 1924   0.896   2.633   5.688  1.4913 -0.6601  0.6720
    7RES   H233 1925   1.045   2.727   5.707  0.9639  0.1174  2.2335
    7RES   H234 1926   0.904   2.928   5.736  0.4720 -1.0691  0.0493
    7RES   H235 1927   0.906   2.776   5.458  0.6936 -0.4772  0.0902
    7RES   H236 1928   1.034   2.860   5.534 -0.6713 -2.8558  1.3744
    7RES   H237 1929   1.017   2.994   5.325 -0.7251 -0.4504 -3.1097
    7RES   H238 1930   0.884   3.103   5.310  2.0558 -0.4077 -1.6763
    7RES   H239 1931   0.858   2.936   5.280 -0.2199  2.6499 -2.8015
    7RES   O240 1932   0.736   2.838   5.674  0.3749 -0.3563  0.0665
    7RES   C241 1933   0.672   2.831   5.800 -0.6438  0.5382  0.1948
    7RES   C242 1934   0.526   2.869   5.798  0.2352  0.0079 -0.1235
    7RES   C243 1935   0.467   2.864   5.938 -0.0394 -0.2529 -0.0569
    7RES   O244 1936   0.335   2.909   5.928  0.7363  0.1171  0.0147
    7RES   C245 1937   0.266   2.892   6.058  0.0966 -0.1123  0.0785
    7RES   H246 1938   0.730   2.884   5.876  1.0334 -2.3091  0.9871
    7RES   H247 1939   0.668   2.730   5.842 -1.4345  0.0288 -1.1060
    7RES   H248 1940   0.461   2.807   5.736 -0.7547  1.0756 -0.1679
    7RES   H249 1941   0.468   2.764   5.981 -1.9411  0.2555  1.2334
    7RES   H250 1942   0.521   2.931   6.004 -0.1165  1.4737 -1.7157
    7RES   H251 1943   0.171   2.936   6.028  0.1815 -1.0524 -1.6240
    7RES   H252 1944   0.301   2.954   6.141  0.7618  0.8765 -0.9210
    7RES   H253 1945   0.241   2.791   6.088  0.3471  0.3927  2.0772
    7RES   O254 1946   0.524   3.007   5.757  0.2473  0.8883 -0.1448
    7RES   C255 1947   0.480   3.029   5.622  0.5165 -0.2202  0.4566
    7RES   C256 1948   0.450   3.182   5.596  0.0166 -0.2417 -0.5032
    7RES   C257 1949   0.588   3.254   5.579 -0.9967  0.3226  0.0202
    7RES   O258 1950   0.594   3.391   5.613  0.4455 -0.2349  0.3497
    7RES   C259 1951   0.716   3.453   5.569  0.8035  0.6067 -0.4280
    7RES   H260 1952   0.543   2.981   5.547  0.8221  0.9759 -0.0649
    7RES   H261 1953   0.384   2.979   5.611  0.2796  0.1703  0.6920
    7RES   H262 1954   0.414   3.217   5.693 -0.9244  1.4881 -1.4607
    7RES   H263 1955   0.669   3.203   5.631 -1.7516 -1.3805 -0.4498
    7RES   H264 1956   0.622   3.236   5.477  2.1922 -1.2265  1.2892
    7RES   H265 1957   0.732   3.446   5.462 -0.5138 -1.2583 -0.5243
    7RES   H266 1958   0.798   3.396   5.613  1.0054  1.8598  0.8625
    7RES   H267 1959   0.722   3.557   5.602 -0.9329  0.2635  1.0565
    7RES   O268 1960   0.350   3.214   5.497  0.0967  0.4682  0.4110
    7RES   C269 1961   0.319   3.355   5.494  0.1820 -0.6142  0.5351
    7RES   C270 1962   0.177   3.378   5.453 -0.8432  0.6004  0.3587
    7RES   C271 1963   0.148   3.524   5.417 -0.2434 -0.6507  0.7424
    7RES   O272 1964   0.254   3.573   5.334  0.1213 -0.2803  0.2844
    7RES   C273 1965   0.238   3.527   5.201  0.0440 -0.2053  0.8398
    7RES   H274 1966   0.389   3.397   5.422 -1.3837  1.4968  0.1927
    7RES   H275 1967   0.344   3.401   5.590 -0.9138 -1.9484  1.4794
    7RES   H276 1968   0.161   3.304   5.375  1.1556  0.2488  0.2363
    7RES   H277 1969   0.154   3.584   5.508  0.3080  0.8404 -0.2631
    7RES   H278 1970   0.049   3.529   5.371 -1.1564  0.7557  2.7340
    7RES   H279 1971   0.315   3.563   5.133  0.1308  2.0523  2.0638
    7RES   H280 1972   0.148   3.572   5.160 -0.2423 -1.1180  0.4703
    7RES   H281 1973   0.225   3.419   5.198  1.1483 -0.3115 -0.4676
    7RES   H282 1974   0.114   3.345   5.536 -1.4434 -3.8739 -1.6868
    8RES     O1 1975   4.828   5.569   6.607  0.1058 -0.8490  0.0175
    8RES     C2 1976   4.943   5.628   6.663 -0.1889 -0.4370  0.0023
    8RES     C3 1977   4.930   5.784   6.659  0.6130 -0.0308 -0.1262
    8RES     C4 1978   5.025   5.846   6.768  0.5043  0.2759  0.1506
    8RES     O5 1979   5.030   5.991   6.764  0.4406 -0.1581 -0.9405
    8RES     C6 1980   5.121   6.040   6.863 -0.0807  0.2692 -0.1960
    8RES     H7 1981   4.941   5.615   6.771  0.7161 -0.3475  0.0328
    8RES     H8 1982   5.039   5.595   6.623  0.3670  0.0417  0.9391
    8RES     H9 1983   4.828   5.812   6.684  0.7346 -0.2319  0.6092
    8RES    H10 1984   5.122   5.801   6.743  0.0541 -0.9709  0.6292
    8RES    H11 1985   4.986   5.819   6.866  1.1317  1.2998  0.6947
    8RES    H12 1986   5.147   6.144   6.845  1.4599  0.3611  2.3031
    8RES    H13 1987   5.063   6.044   6.955  2.3701 -0.2836  1.4225
    8RES    H14 1988   5.209   5.976   6.865  0.6211  1.2491  0.8577
    8RES    H15 1989   4.754   5.627   6.617  1.7621  1.3819 -0.2614
    8RES    O16 1990   4.974   5.829   6.536 -0.4387  0.3457  0.2505
    8RES    C17 1991   4.902   5.934   6.477  0.5571  0.0654 -0.5905
    8RES    C18 1992   4.954   5.983   6.350 -0.1693  0.4380 -0.1418
    8RES    C19 1993   4.839   6.048   6.274  0.5041 -0.5857  0.4263
    8RES    O20 1994   4.878   6.095   6.148  0.2514  0.3252  0.7599
    8RES    C21 1995   4.943   6.221   6.134  0.3596 -0.4001 -0.3712
    8RES    H22 1996   4.885   6.014   6.548  0.1480 -1.5232  1.1510
    8RES    H23 1997   4.813   5.876   6.453  0.6514 -0.4146  0.2043
    8RES    H24 1998   4.987   5.913   6.273 -2.0395  0.5894 -1.0932
    8RES    H25 1999   4.770   5.966   6.256 -2.0269  0.7717  3.3441
    8RES    H26 2000   4.793   6.123   6.338 -1.5900  0.3571 -2.0893
    8RES    H27 2001   4.878   6.297   6.179  0.4806 -1.4015  1.5172
    8RES    H28 2002   4.951   6.251   6.029 -1.4919  0.4608 -0.3020
    8RES    H29 2003   5.044   6.230   6.173  0.5036  1.8597 -1.1700
    8RES    O30 2004   5.039   6.097   6.375  0.3840 -0.3286  0.6893
    8RES    C31 2005   5.167   6.050   6.414 -0.6279 -0.0142 -0.6505
    8RES    C32 2006   5.259   6.169   6.438  0.1034  0.1890  0.3635
    8RES    C33 2007   5.407   6.134   6.423 -0.1531 -0.6269 -1.1015
    8RES    O34 2008   5.448   6.021   6.500 -0.0716 -0.0921 -0.2587
    8RES    C35 2009   5.450   6.049   6.640 -0.2332  0.2148  0.2775
    8RES    H36 2010   5.165   5.996   6.508  2.5308 -0.0995 -0.5881
    8RES    H37 2011   5.205   5.991   6.331  1.5208  1.4743 -0.7547
    8RES    H38 2012   5.243   6.238   6.355  0.8124  1.5898  1.3730
    8RES    H39 2013   5.469   6.221   6.445 -0.7058  0.1080 -2.4210
    8RES    H40 2014   5.445   6.099   6.327  0.7359 -1.1572 -0.5642
    8RES    H41 2015   5.523   6.128   6.660  0.9960 -0.4849 -1.2593
    8RES    H42 2016   5.493   5.964   6.693 -0.8331  0.0117  0.4411
    8RES    H43 2017   5.349   6.066   6.676 -0.1592  1.6620 -0.1843
    8RES    O44 2018   5.231   6.248   6.554 -0.3845 -0.0258 -0.1196
    8RES    C45 2019   5.107   6.323   6.543  0.0572 -0.3550  0.1579
    8RES    C46 2020   5.132   6.469   6.480  0.2937 -0.1988  0.3059
    8RES    C47 2021   5.004   6.515   6.414  0.5571  0.7922 -0.4733
    8RES    O48 2022   4.893   6.533   6.505  0.1417 -0.2129  0.1512
    8RES    C49 2023   4.771   6.555   6.430  0.5940 -0.3492 -0.2099
    8RES    H50 2024   5.086   6.343   6.648  0.8573 -0.7934  0.4113
    8RES    H51 2025   5.010   6.282   6.518 -0.3875  1.0986 -0.5512
    8RES    H52 2026   5.196   6.448   6.393 -0.0885  1.8031 -0.4873
    8RES    H53 2027   5.022   6.602   6.351  3.5105  0.7770  0.2766
    8RES    H54 2028   4.986   6.439   6.338  0.4835 -1.4152  1.7053
    8RES    H55 2029   4.751   6.467   6.369 -0.8011 -1.3080  1.5944
    8RES    H56 2030   4.753   6.643   6.368  0.1830  0.5189  1.1206
    8RES    H57 2031   4.702   6.551   6.514  0.6251  1.6984 -0.0653
    8RES    O58 2032   5.171   6.571   6.562  0.3503  0.5044  0.2111
    8RES    C59 2033   5.298   6.549   6.625  0.1910 -0.0708 -0.1569
    8RES    C60 2034   5.349   6.690   6.658 -0.6193 -0.4774 -0.4494
    8RES    C61 2035   5.231   6.763   6.724 -0.1458  0.1177 -0.0168
    8RES    O62 2036   5.277   6.879   6.798 -0.1590  0.0468 -0.3161
    8RES    C63 2037   5.177   6.944   6.866 -0.2492  0.6267  0.2841
    8RES    H64 2038   5.365   6.499   6.554 -2.2925  0.0572 -2.6598
    8RES    H65 2039   5.284   6.476   6.705  0.9133  0.9004  0.8669
    8RES    H66 2040   5.434   6.665   6.721 -0.7319  1.1997  0.3887
    8RES    H67 2041   5.161   6.802   6.650  1.4741  0.1663 -1.5519
    8RES    H68 2042   5.177   6.696   6.791 -0.3480 -0.8257 -1.1186
    8RES    H69 2043   5.228   7.020   6.926  0.8563 -1.6707  2.3031
    8RES    H70 2044   5.107   6.883   6.923  0.3724  0.6342  1.0648
    8RES    H71 2045   5.110   6.984   6.789  0.7759 -0.5564 -1.2298
    8RES    O72 2046   5.405   6.750   6.550 -0.4175 -0.0998  0.2117
    8RES    C73 2047   5.478   6.867   6.577  0.8025 -0.4108 -0.1825
    8RES    C74 2048   5.560   6.906   6.451 -0.0322  0.7217  0.5649
    8RES    C75 2049   5.677   6.805   6.433  0.0647 -0.1727  1.1621
    8RES    O76 2050   5.755   6.850   6.313 -0.1957  0.0335 -0.4905
    8RES    C77 2051   5.867   6.760   6.290 -0.2215  0.6422  0.2116
    8RES    H78 2052   5.394   6.936   6.587  0.4772 -1.0614  1.7411
    8RES    H79 2053   5.551   6.873   6.657  2.0636  1.3175 -1.4359
    8RES    H80 2054   5.499   6.916   6.361  0.5676  4.8471  0.5315
    8RES    H81 2055   5.625   6.715   6.401 -2.4193  1.7100 -0.2926
    8RES    H82 2056   5.741   6.790   6.520  1.1598 -0.9244  0.2533
    8RES    H83 2057   5.949   6.775   6.360  1.9101 -0.0400 -2.0704
    8RES    H84 2058   5.902   6.779   6.188 -1.0273  1.6713  0.1295
    8RES    H85 2059   5.832   6.658   6.307  0.2610  0.5177  0.4793
    8RES    O86 2060   5.617   7.039   6.475  0.0702  0.3734 -0.1706
    8RES    C87 2061   5.644   7.107   6.354 -0.3044  0.2586 -0.3263
    8RES    C88 2062   5.645   7.262   6.378 -0.9224  0.4576 -0.5620
    8RES    C89 2063   5.698   7.342   6.264  0.6853 -0.0377  0.7503
    8RES    O90 2064   5.740   7.467   6.310 -0.4208  0.6722 -0.4583
    8RES    C91 2065   5.766   7.563   6.213  0.0872 -0.1937 -0.0882
    8RES    H92 2066   5.740   7.083   6.308 -0.7469  1.5682 -1.9545
    8RES    H93 2067   5.575   7.088   6.272 -1.5867  1.2996  0.4910
    8RES    H94 2068   5.699   7.283   6.470 -3.0498 -1.7895  1.2622
    8RES    H95 2069   5.770   7.291   6.200 -0.2122 -1.8122  1.1292
    8RES    H96 2070   5.618   7.359   6.192  0.5966  0.3448  0.9379
    8RES    H97 2071   5.678   7.587   6.153  1.9284  1.4729 -2.2245
    8RES    H98 2072   5.779   7.658   6.264  0.9679  0.4200 -1.4347
    8RES    H99 2073   5.855   7.530   6.159 -1.0711  0.0455 -2.1668
    8RES   O100 2074   5.509   7.294   6.387 -0.2299  0.2036  0.3022
    8RES   C101 2075   5.482   7.405   6.469 -0.1313  0.2816 -0.0223
    8RES   C102 2076   5.335   7.420   6.487 -0.0222  0.0480 -0.3353
    8RES   C103 2077   5.264   7.289   6.549  0.4922  0.1931 -0.6825
    8RES   O104 2078   5.151   7.337   6.606  0.5957 -0.1547  0.1171
    8RES   C105 2079   5.066   7.238   6.659  0.4064  0.0429  0.4111
    8RES   H106 2080   5.520   7.494   6.419  2.7424  0.2730  2.0226
    8RES   H107 2081   5.529   7.392   6.566 -0.6987 -0.7572  0.1242
    8RES   H108 2082   5.324   7.504   6.555 -0.0150 -0.1519 -0.0863
    8RES   H109 2083   5.330   7.232   6.615  0.3706 -0.1611 -0.8692
    8RES   H110 2084   5.233   7.213   6.477  0.2572 -2.4490  2.1210
    8RES   H111 2085   4.974   7.290   6.686  0.5211  1.9846 -2.7387
    8RES   H112 2086   5.113   7.185   6.742 -0.3276 -2.4503 -0.7304
    8RES   H113 2087   5.038   7.158   6.591 -0.2068 -1.7455  2.6958
    8RES   O114 2088   5.280   7.453   6.357 -0.6731  0.1881  0.2137
    8RES   C115 2089   5.255   7.592   6.330  0.2276  0.3538  1.1333
    8RES   C116 2090   5.119   7.633   6.393 -1.0658  0.0200  0.1405
    8RES   C117 2091   5.112   7.781   6.417 -0.7262 -0.5435 -0.7643
    8RES   O118 2092   4.994   0.000   6.491  0.6223 -0.1230  0.0570
    8RES   C119 2093   4.908   0.082   6.411  0.2224 -0.6098 -0.6828
    8RES   H120 2094   5.336   7.648   6.376 -0.1861  2.5964 -0.8019
    8RES   H121 2095   5.250   7.613   6.224  2.1013  0.8867  1.1281
    8RES   H122 2096   5.112   7.579   6.487  0.4118  1.1921  0.9513
    8RES   H123 2097   5.184   7.813   6.493 -1.9896  1.8492 -0.5299
    8RES   H124 2098   5.134   0.015   6.324  2.9080  1.8573  1.2766
    8RES   H125 2099   4.826   0.122   6.471 -0.4095 -0.8294 -1.3934
    8RES   H126 2100   4.854   0.025   6.336 -1.6883 -3.8529  2.9868
    8RES   H127 2101   4.954   0.160   6.350  1.7890 -1.8570 -1.1178
    8RES   O128 2102   5.006   7.596   6.322  0.3433 -0.0834  0.0544
    8RES   C129 2103   4.974   7.457   6.323  0.1866  0.1165 -0.6269
    8RES   C130 2104   4.828   7.447   6.268 -1.3438  0.2695  0.1616
    8RES   C131 2105   4.755   7.319   6.314  0.7675  0.2682  0.5205
    8RES   O132 2106   4.616   7.339   6.323  0.3304  0.3499 -0.2034
    8RES   C133 2107   4.551   7.225   6.369  0.5553  0.4295  0.2341
    8RES   H134 2108   5.040   7.392   6.265 -0.4394 -0.3275 -0.8493
    8RES   H135 2109   4.980   7.420   6.425  1.1464 -0.5314 -0.9099
    8RES   H136 2110   4.771   7.530   6.310 -1.4826  0.8502 -1.1398
    8RES   H137 2111   4.808   7.286   6.404  2.1826 -0.1281 -0.4404
    8RES   H138 2112   4.765   7.237   6.243  2.5542  0.2950  0.7170
    8RES   H139 2113   4.450   7.255   6.395  0.3217  0.2118 -0.4208
    8RES   H140 2114   4.553   7.142   6.299 -0.2113 -1.1631  2.0680
    8RES   H141 2115   4.595   7.191   6.463 -0.2056 -0.6607  0.2072
    8RES   O142 2116   4.815   7.439   6.126 -0.1362  0.2181 -0.0051
    8RES   C143 2117   4.866   7.552   6.051 -0.1703  0.3862 -0.2859
    8RES   C144 2118   4.853   7.534   5.903 -0.3555 -0.3842 -0.1953
    8RES   C145 2119   4.706   7.507   5.860 -0.0714  1.2781 -0.4074
    8RES   O146 2120   4.682   7.528   5.717  0.4414 -0.5233 -0.7490
    8RES   C147 2121   4.552   7.527   5.681 -0.0312 -0.1806  0.6021
    8RES   H148 2122   4.807   7.637   6.084  1.3472  0.2410  2.9380
    8RES   H149 2123   4.965   7.594   6.073 -1.2735  2.1093  1.5858
    8RES   H150 2124   4.875   7.623   5.843  0.2943 -0.0832  0.4768
    8RES   H151 2125   4.640   7.574   5.915 -0.3938 -0.1266  0.9563
    8RES   H152 2126   4.670   7.406   5.880  2.4290  0.8188  2.2073
    8RES   H153 2127   4.506   7.614   5.727  0.9628  0.2188  0.8538
    8RES   H154 2128   4.504   7.441   5.728  1.9347 -2.9271 -2.1400
    8RES   H155 2129   4.536   7.527   5.573  1.5602 -0.1268  0.3561
    8RES   O156 2130   4.936   7.429   5.865  0.1092 -0.1183 -0.4565
    8RES   C157 2131   4.993   7.447   5.741  0.1730  0.0260  0.7165
    8RES   C158 2132   5.103   7.554   5.746 -0.0616 -0.2125 -0.1312
    8RES   C159 2133   5.145   7.585   5.599 -0.6871  0.1941 -1.0701
    8RES   O160 2134   5.209   7.709   5.561 -0.1400 -0.2859  0.1329
    8RES   C161 2135   5.339   7.705   5.614  0.0674 -0.0473  0.6590
    8RES   H162 2136   5.060   7.365   5.716  0.3897  0.7376 -1.0925
    8RES   H163 2137   4.912   7.456   5.669 -0.8968 -0.9101  1.7969
    8RES   H164 2138   5.079   7.650   5.793 -0.2302  1.7059 -3.8658
    8RES   H165 2139   5.198   7.501   5.555  0.8738  0.3230  0.5071
    8RES   H166 2140   5.057   7.581   5.535 -2.3467  0.1374  1.1480
    8RES   H167 2141   5.399   7.620   5.581  0.6192  0.8109 -0.5891
    8RES   H168 2142   5.344   7.694   5.723 -1.7062  0.0023  0.7596
    8RES   H169 2143   5.390   7.794   5.576 -0.4565 -0.2843 -0.5895
    8RES   O170 2144   5.215   7.496   5.810 -0.2207 -0.5533  1.0262
    8RES   C171 2145   5.233   7.523   5.944  0.4440  0.3869  0.7061
    8RES   C172 2146   5.368   7.454   5.990 -0.3506  0.6416 -0.1083
    8RES   C173 2147   5.491   7.477   5.899 -0.1346 -0.5482  0.6307
    8RES   O174 2148   5.616   7.410   5.950 -0.1448  0.0311 -0.1127
    8RES   C175 2149   5.724   7.418   5.862 -0.1645 -0.1872 -0.0076
    8RES   H176 2150   5.143   7.494   5.998 -0.0438  1.2031  0.3436
    8RES   H177 2151   5.236   7.630   5.968 -1.0594  0.2322  1.6799
    8RES   H178 2152   5.403   7.472   6.092  1.5546 -1.8994 -0.2900
    8RES   H179 2153   5.478   7.435   5.799 -0.8038 -1.0733  0.9267
    8RES   H180 2154   5.521   7.580   5.878  1.0162 -0.7917  1.0582
    8RES   H181 2155   5.754   7.523   5.868 -0.2187 -0.1561 -0.2796
    8RES   H182 2156   5.691   7.386   5.763  0.8941  2.2017 -1.1748
    8RES   H183 2157   5.809   7.351   5.875  1.9673  2.1173 -1.5169
    8RES   O184 2158   5.340   7.318   5.981  0.4541  0.5424  0.3605
    8RES   C185 2159   5.294   7.264   6.102  0.1426  0.7812 -0.6768
    8RES   C186 2160   5.267   7.112   6.092 -0.1415  0.5260  0.4153
    8RES   C187 2161   5.179   7.061   6.207 -0.3522  1.0684 -0.1903
    8RES   O188 2162   5.135   6.921   6.175 -0.1998  0.1340  0.4197
    8RES   C189 2163   5.209   6.827   6.243  0.0159  0.2791 -0.1104
    8RES   H190 2164   5.203   7.315   6.135 -0.0727  0.4658 -0.7812
    8RES   H191 2165   5.372   7.276   6.177 -1.4993 -1.4418  1.4905
    8RES   H192 2166   5.220   7.089   5.996 -0.2621 -0.2514  0.6630
    8RES   H193 2167   5.090   7.124   6.213  0.7801  2.8307 -1.6163
    8RES   H194 2168   5.233   7.060   6.301 -0.0313 -2.2279 -0.3325
    8RES   H195 2169   5.163   6.730   6.223 -0.8679  1.1675 -2.5880
    8RES   H196 2170   5.317   6.826   6.226  0.0835  2.2645  0.0874
    8RES   H197 2171   5.186   6.825   6.350 -0.6827 -0.4067 -0.2710
    8RES   O198 2172   5.390   7.046   6.097  0.0198  0.8492  0.3719
    8RES   C199 2173   5.485   7.068   5.990  0.0588 -0.6286  0.2791
    8RES   C200 2174   5.602   6.975   5.994 -0.4985  0.0839 -0.1653
    8RES   C201 2175   5.720   7.035   5.907  0.1731  0.4639  0.1807
    8RES   O202 2176   5.849   6.970   5.936 -0.2110 -0.3413 -0.3449
    8RES   C203 2177   5.863   6.829   5.914 -0.2072  0.0331 -0.8797
    8RES   H204 2178   5.519   7.171   6.002  0.2318 -0.6109 -0.3475
    8RES   H205 2179   5.444   7.063   5.889 -0.7604  0.7669  0.5257
    8RES   H206 2180   5.644   6.967   6.094 -0.5072 -1.9632 -0.3034
    8RES   H207 2181   5.698   7.020   5.802 -2.0304  0.3518  0.6426
    8RES   H208 2182   5.743   7.138   5.934 -0.5841  0.8242 -0.5282
    8RES   H209 2183   5.799   6.766   5.974 -1.6456 -0.5535 -2.9738
    8RES   H210 2184   5.963   6.790   5.935 -0.1265  0.7785  0.1459
    8RES   H211 2185   5.855   6.800   5.809  2.1697  0.4178 -1.2144
    8RES   O212 2186   5.574   6.857   5.924  0.2057  0.1814  0.2321
    8RES   C213 2187   5.506   6.768   6.014  0.3998  0.2136 -0.0050
    8RES   C214 2188   5.511   6.627   5.968 -0.2030  0.5186  0.2287
    8RES   C215 2189   5.426   6.534   6.055 -0.4030 -0.8102  0.0133
    8RES   O216 2190   5.377   6.422   5.977 -0.1058  0.2575 -0.9106
    8RES   C217 2191   5.297   6.336   6.053  1.2993  0.4178  0.4519
    8RES   H218 2192   5.404   6.805   6.005  0.4588  0.0855 -1.3057
    8RES   H219 2193   5.545   6.754   6.115  0.3961 -0.5080 -0.0957
    8RES   H220 2194   5.468   6.623   5.868  2.1682  0.1707 -0.7893
    8RES   H221 2195   5.484   6.498   6.141 -0.4717 -2.2671 -0.5312
    8RES   H222 2196   5.340   6.588   6.094  0.7149 -0.0223  1.4514
    8RES   H223 2197   5.262   6.251   5.994  3.7386  0.5872 -1.3049
    8RES   H224 2198   5.210   6.394   6.085  0.5503  0.1263 -1.0402
    8RES   H225 2199   5.343   6.297   6.144  0.2134 -1.0299  0.4006
    8RES   O226 2200   5.652   6.582   5.960 -0.0309  0.2151 -0.4339
    8RES   C227 2201   5.683   6.481   5.863  0.4219 -0.2494 -0.2327
    8RES   C228 2202   5.780   6.377   5.922 -0.7835 -0.4326  0.0634
    8RES   C229 2203   5.892   6.449   6.014  0.2218 -0.2606  0.3889
    8RES   O230 2204   6.018   6.373   6.005 -0.7307  0.2219 -0.6357
    8RES   C231 2205   6.014   6.250   6.074  0.1653 -0.3664  0.4789
    8RES   H232 2206   5.731   6.537   5.782 -0.1642  0.2507 -0.2364
    8RES   H233 2207   5.589   6.440   5.828  1.0893 -1.6685 -0.4100
    8RES   H234 2208   5.823   6.316   5.842 -0.2170 -1.1487  0.8956
    8RES   H235 2209   5.862   6.480   6.114  1.0670  2.8750 -0.2957
    8RES   H236 2210   5.911   6.542   5.960 -0.1595  0.4208  1.4118
    8RES   H237 2211   6.030   6.262   6.181  0.9481  0.7052  0.2491
    8RES   H238 2212   6.081   6.178   6.027  0.1041 -0.5587  0.6822
    8RES   H239 2213   5.917   6.203   6.059  0.9942 -2.4946  1.5558
    8RES   O240 2214   5.692   6.301   6.007 -0.5569 -0.0428  0.0215
    8RES   C241 2215   5.644   6.176   5.951  0.5157 -0.2465 -0.1130
    8RES   C242 2216   5.585   6.077   6.052 -0.4623 -0.1898  0.2803
    8RES   C243 2217   5.463   6.004   5.989 -0.0655  0.4126  0.6641
    8RES   O244 2218   5.405   5.914   6.083 -0.2811  0.1312 -0.1834
    8RES   C245 2219   5.266   5.893   6.065  0.0881 -0.0590  0.1733
    8RES   H246 2220   5.720   6.127   5.890 -0.3213 -2.0377  0.2422
    8RES   H247 2221   5.564   6.208   5.884  1.0329 -0.1448 -0.6837
    8RES   H248 2222   5.553   6.138   6.137  0.9969  1.5277 -0.3749
    8RES   H249 2223   5.395   6.080   5.948  0.4368  0.7296  0.4093
    8RES   H250 2224   5.496   5.952   5.899 -0.2118 -0.1573  0.9397
    8RES   H251 2225   5.206   5.983   6.071 -0.6675 -0.5854  0.5384
    8RES   H252 2226   5.234   5.815   6.134 -0.6743 -1.5400 -1.8082
    8RES   H253 2227   5.247   5.863   5.962  0.1593  0.2900  0.0567
    8RES   O254 2228   5.685   5.976   6.063  0.0239 -0.0798 -0.1128
    8RES   C255 2229   5.681   5.925   6.194 -0.2308 -0.1539 -0.1441
    8RES   C256 2230   5.781   6.000   6.282 -0.1406 -0.9776 -0.0053
    8RES   C257 2231   5.923   5.968   6.235  0.1910 -0.2162  0.3480
    8RES   O258 2232   6.018   6.024   6.323 -0.3603 -0.1310  0.1874
    8RES   C259 2233   6.146   5.960   6.309 -0.3876 -0.9215  0.1338
    8RES   H260 2234   5.584   5.926   6.244 -0.5490 -0.4270 -0.7576
    8RES   H261 2235   5.720   5.824   6.184  0.9996  0.4435 -1.6595
    8RES   H262 2236   5.794   5.967   6.385  0.7474  0.4059  0.3447
    8RES   H263 2237   5.935   5.861   6.218 -0.9020 -0.2200 -0.4358
    8RES   H264 2238   5.935   6.014   6.137 -1.1304 -1.3758 -0.3749
    8RES   H265 2239   6.229   6.029   6.324 -2.4241  1.5815  0.3404
    8RES   H266 2240   6.152   5.921   6.208 -0.2098 -2.0409  0.5643
    8RES   H267 2241   6.153   5.876   6.379 -4.2390 -1.1917  0.3402
    8RES   O268 2242   5.751   6.141   6.278 -0.2090 -0.0537  0.6853
    8RES   C269 2243   5.790   6.210   6.401 -0.1438 -0.0474 -0.4521
    8RES   C270 2244   5.789   6.357   6.379  0.1426 -0.4172 -0.2975
    8RES   C271 2245   5.816   6.430   6.507  0.8112  0.0572  0.1168
    8RES   O272 2246   5.704   6.428   6.594 -0.2118  0.1118 -0.7056
    8RES   C273 2247   5.706   6.525   6.696 -0.4219  0.1306  0.1249
    8RES   H274 2248   5.887   6.179   6.441 -0.5793  1.3578  1.7411
    8RES   H275 2249   5.720   6.174   6.477 -1.9914 -0.7829 -2.4415
    8RES   H276 2250   5.864   6.387   6.306 -0.1508 -1.7701 -1.1579
    8RES   H277 2251   5.854   6.530   6.487  1.1125  0.0380  0.5706
    8RES   H278 2252   5.898   6.381   6.558  0.3953 -0.4914  0.2673
    8RES   H279 2253   5.795   6.525   6.759 -0.4362  0.1016  0.1449
    8RES   H280 2254   5.618   6.540   6.758  0.6260 -0.1884  1.7022
    8RES   H281 2255   5.708   6.623   6.647  0.9531 -0.2804 -0.6684
    8RES   H282 2256   5.702   6.387   6.320  1.7602  2.8044 -1.1721
    9RES     O1 2257   6.979   4.767   5.088 -0.2571 -1.0676 -0.5556
    9RES     C2 2258   6.964   4.902   5.115 -0.3614 -0.1698 -0.4363
    9RES     C3 2259   7.031   4.942   5.252  0.1684  0.0473  0.2578
    9RES     C4 2260   6.986   5.084   5.261  0.1032 -0.3827  0.3918
    9RES     O5 2261   7.065   5.158   5.353  0.2728 -0.6141 -0.1240
    9RES     C6 2262   7.053   5.303   5.348  0.3016 -0.3786 -0.0394
    9RES     H7 2263   7.028   4.950   5.041  0.0913 -1.3092 -0.8111
    9RES     H8 2264   6.863   4.939   5.101  0.1686  0.6867 -2.2246
    9RES     H9 2265   7.139   4.931   5.252  0.1692 -0.0403 -1.1001
    9RES    H10 2266   6.879   5.086   5.281  0.2836 -2.3556  1.7524
    9RES    H11 2267   7.006   5.146   5.173 -0.5846  0.3794  0.7700
    9RES    H12 2268   6.945   5.315   5.343  0.3654  1.6331  2.3620
    9RES    H13 2269   7.098   5.354   5.434  2.2701  0.7509 -1.6989
    9RES    H14 2270   7.111   5.339   5.263  2.6810  0.1087  1.6987
    9RES    H15 2271   6.954   4.738   5.174  2.0441 -1.0297  0.1436
    9RES    O16 2272   6.953   4.863   5.346  0.6384 -0.3609  0.3552
    9RES    C17 2273   6.988   4.874   5.479 -0.2727 -0.3384  0.3679
    9RES    C18 2274   7.105   4.779   5.512 -0.3955 -0.3602  0.1859
    9RES    C19 2275   7.160   4.794   5.656  0.3799 -0.3729 -0.0572
    9RES    O20 2276   7.265   4.699   5.682 -0.4508  0.2977  0.1409
    9RES    C21 2277   7.309   4.692   5.816 -0.5944 -0.3978 -0.3592
    9RES    H22 2278   6.904   4.841   5.540 -0.2322  0.2408  0.7438
    9RES    H23 2279   7.011   4.970   5.524  0.2049  0.3049 -1.2169
    9RES    H24 2280   7.184   4.792   5.438 -0.2597 -4.2920 -0.5001
    9RES    H25 2281   7.203   4.894   5.654 -1.1241  0.3421  1.6123
    9RES    H26 2282   7.082   4.786   5.732 -2.0480 -2.0374 -2.6083
    9RES    H27 2283   7.395   4.628   5.833 -0.3126 -0.7500 -2.9617
    9RES    H28 2284   7.220   4.667   5.874  0.3484 -0.5820  1.0339
    9RES    H29 2285   7.347   4.789   5.849  0.5244 -0.8968 -0.1608
    9RES    O30 2286   7.050   4.648   5.496 -0.3620  0.5406 -0.4592
    9RES    C31 2287   7.111   4.559   5.408  0.7219 -0.0946 -0.7783
    9RES    C32 2288   7.006   4.452   5.374  0.4804  0.1015 -0.0261
    9RES    C33 2289   7.083   4.324   5.332 -0.0353 -0.6345 -0.6922
    9RES    O34 2290   7.005   4.207   5.361 -0.0914 -0.4807  0.0055
    9RES    C35 2291   7.091   4.093   5.338 -0.1862  0.1852 -0.0245
    9RES    H36 2292   7.142   4.609   5.316 -0.0627  0.9327 -0.4897
    9RES    H37 2293   7.201   4.515   5.451 -0.4624 -0.0565  1.8113
    9RES    H38 2294   6.963   4.423   5.470  0.8336  1.3298  0.5077
    9RES    H39 2295   7.175   4.313   5.390 -1.5191  1.2885  2.1165
    9RES    H40 2296   7.102   4.324   5.224  0.7399 -0.0996 -0.5624
    9RES    H41 2297   7.159   4.100   5.253  0.8765  3.1531  1.0006
    9RES    H42 2298   7.028   4.004   5.335  1.7265 -1.2767  1.6179
    9RES    H43 2299   7.163   4.072   5.417  1.1759 -0.6344 -1.4590
    9RES    O44 2300   6.908   4.503   5.281 -0.1585  0.0134 -0.1782
    9RES    C45 2301   6.807   4.418   5.229 -0.3698  0.0549 -0.4742
    9RES    C46 2302   6.693   4.502   5.149 -0.4413  0.2889 -0.5587
    9RES    C47 2303   6.599   4.406   5.078 -0.2683  0.4891  0.3098
    9RES    O48 2304   6.519   4.337   5.170 -0.1974 -0.6850  0.7858
    9RES    C49 2305   6.447   4.223   5.115  0.2060  0.4407 -0.1918
    9RES    H50 2306   6.771   4.364   5.317 -0.3188  1.1330  0.2216
    9RES    H51 2307   6.860   4.344   5.170 -0.6431 -0.0995 -0.5259
    9RES    H52 2308   6.746   4.565   5.077  1.8025  0.2527  1.0018
    9RES    H53 2309   6.534   4.461   5.010  1.0882  1.6957 -0.0348
    9RES    H54 2310   6.662   4.339   5.020  0.5467  2.0536 -0.6262
    9RES    H55 2311   6.354   4.201   5.167  0.2961 -2.8742 -1.3530
    9RES    H56 2312   6.496   4.126   5.106 -1.6545 -0.8215  2.5464
    9RES    H57 2313   6.410   4.246   5.015  0.8926  0.1234 -0.5198
    9RES    O58 2314   6.605   4.581   5.229 -0.1572 -0.3284  0.4855
    9RES    C59 2315   6.673   4.675   5.316  0.2989  0.0485 -0.0631
    9RES    C60 2316   6.563   4.760   5.383 -0.2855  0.0863  0.4028
    9RES    C61 2317   6.600   4.878   5.467  0.6036  0.2879 -0.8649
    9RES    O62 2318   6.495   4.975   5.476  0.5441  0.0902 -0.1899
    9RES    C63 2319   6.545   5.100   5.527 -0.1972  0.4213  0.1834
    9RES    H64 2320   6.741   4.743   5.265 -0.7095  0.5629 -0.7175
    9RES    H65 2321   6.738   4.634   5.394 -0.6174  0.3225  0.8626
    9RES    H66 2322   6.510   4.794   5.293  0.0525 -0.0126  0.1660
    9RES    H67 2323   6.636   4.847   5.565  1.4371  0.2307 -1.1892
    9RES    H68 2324   6.690   4.918   5.422  2.0262  0.0947  1.6851
    9RES    H69 2325   6.600   5.157   5.452  0.0430  0.8901  0.7101
    9RES    H70 2326   6.604   5.097   5.620  1.0460 -0.7781 -0.6170
    9RES    H71 2327   6.457   5.159   5.553  0.7080  2.1339 -0.5590
    9RES    O72 2328   6.475   4.676   5.450  0.0836 -0.3291  0.6553
    9RES    C73 2329   6.512   4.637   5.579 -0.5414  0.1367 -0.1219
    9RES    C74 2330   6.456   4.498   5.621  0.5534 -0.1386  0.6438
    9RES    C75 2331   6.490   4.402   5.511 -0.6819 -0.3801 -0.4638
    9RES    O76 2332   6.496   4.271   5.552 -0.0394  0.3750  0.1583
    9RES    C77 2333   6.519   4.174   5.449  0.3069 -0.3104 -0.2843
    9RES    H78 2334   6.621   4.632   5.584 -0.4670  0.8582 -0.8900
    9RES    H79 2335   6.485   4.713   5.653 -0.6348  0.8452 -0.8842
    9RES    H80 2336   6.506   4.456   5.708 -0.1214 -2.0909  0.1200
    9RES    H81 2337   6.586   4.430   5.468  1.2679 -2.7851  2.0696
    9RES    H82 2338   6.419   4.406   5.429 -0.8208  0.4914 -0.3093
    9RES    H83 2339   6.423   4.180   5.398 -1.0304 -0.1604  2.1707
    9RES    H84 2340   6.510   4.072   5.487 -1.6070  0.6151  1.8409
    9RES    H85 2341   6.605   4.197   5.386  0.2344 -1.6177 -0.8743
    9RES    O86 2342   6.323   4.509   5.646  0.5899  0.1015 -0.3548
    9RES    C87 2343   6.290   4.563   5.771  0.2990  0.3235  0.0806
    9RES    C88 2344   6.150   4.640   5.767  0.2827  0.9293 -0.1724
    9RES    C89 2345   6.148   4.749   5.663  0.6105 -0.2504 -0.0817
    9RES    O90 2346   6.027   4.828   5.654 -0.1919  0.3015  0.6020
    9RES    C91 2347   6.032   4.956   5.592 -0.5477  0.7815  0.2820
    9RES    H92 2348   6.272   4.474   5.832  0.1959  0.0937 -0.2810
    9RES    H93 2349   6.374   4.618   5.812  0.5570  0.1950 -0.2729
    9RES    H94 2350   6.134   4.676   5.869 -0.4007 -0.4547  0.2110
    9RES    H95 2351   6.231   4.817   5.677  1.0561 -1.1229  1.6889
    9RES    H96 2352   6.173   4.714   5.563 -1.1627  1.1689 -1.0614
    9RES    H97 2353   5.930   4.985   5.565 -0.5882  1.0061  0.6808
    9RES    H98 2354   6.080   5.037   5.646 -1.6837  2.6590 -1.4513
    9RES    H99 2355   6.076   4.942   5.494 -0.4293  2.0777  0.1448
    9RES   O100 2356   6.048   4.546   5.742  0.0955 -0.2342 -0.6431
    9RES   C101 2357   5.994   4.477   5.857 -0.0071  0.5321  0.5290
    9RES   C102 2358   5.917   4.562   5.957  0.4037  0.4624  0.0522
    9RES   C103 2359   5.831   4.668   5.881  0.0183  0.1042 -0.0150
    9RES   O104 2360   5.719   4.708   5.960  0.1188 -0.2156  0.0739
    9RES   C105 2361   5.633   4.808   5.913 -0.5857  0.5434  0.6445
    9RES   H106 2362   6.071   4.418   5.907 -0.4877  0.4906  1.2333
    9RES   H107 2363   5.918   4.417   5.808  0.8736 -0.9613  0.9768
    9RES   H108 2364   5.853   4.487   6.005  1.4404 -0.9465 -0.7267
    9RES   H109 2365   5.802   4.635   5.782  0.1780 -0.2129  0.0450
    9RES   H110 2366   5.899   4.753   5.871 -1.5351  1.3216 -0.3638
    9RES   H111 2367   5.675   4.907   5.931  2.1850 -0.9398  2.7034
    9RES   H112 2368   5.538   4.783   5.960 -0.0160 -1.9024  0.5940
    9RES   H113 2369   5.633   4.782   5.807 -1.6886  0.9235  0.5465
    9RES   O114 2370   5.999   4.633   6.047  0.2648  0.1065  0.6438
    9RES   C115 2371   6.042   4.547   6.151 -0.4428 -0.7779  0.2207
    9RES   C116 2372   6.126   4.613   6.269  0.6250  0.2043  0.3152
    9RES   C117 2373   6.126   4.523   6.393 -0.1030 -0.0231  0.1712
    9RES   O118 2374   6.203   4.581   6.503  0.4207 -0.5446  0.0550
    9RES   C119 2375   6.143   4.687   6.580  0.7742 -0.7394  0.5575
    9RES   H120 2376   5.949   4.503   6.189 -2.1325  2.2349 -0.3365
    9RES   H121 2377   6.102   4.459   6.125  0.4924 -0.4773  1.3176
    9RES   H122 2378   6.089   4.713   6.290  2.0411  0.7666  0.2537
    9RES   H123 2379   6.028   4.503   6.438  0.2930 -2.0499  0.1825
    9RES   H124 2380   6.175   4.429   6.368 -2.0680 -0.8228 -0.7974
    9RES   H125 2381   6.224   4.757   6.602  1.3619 -1.3486  0.3767
    9RES   H126 2382   6.103   4.652   6.675  1.0891  0.9626  1.3275
    9RES   H127 2383   6.052   4.733   6.541  1.4184 -0.7997 -1.0439
    9RES   O128 2384   6.260   4.624   6.218 -0.1850 -0.8416  0.4030
    9RES   C129 2385   6.336   4.739   6.259 -0.8440  0.3514  0.1959
    9RES   C130 2386   6.484   4.725   6.219 -0.0781 -0.0382 -0.1026
    9RES   C131 2387   6.508   4.732   6.064 -0.2101 -0.4279  0.7502
    9RES   O132 2388   6.640   4.771   6.034  0.1012  0.0468 -0.5637
    9RES   C133 2389   6.690   4.735   5.904  0.2586  0.1035 -0.1359
    9RES   H134 2390   6.284   4.824   6.215 -0.9888 -0.4359 -1.1816
    9RES   H135 2391   6.317   4.755   6.365  2.2348 -0.8599  0.9834
    9RES   H136 2392   6.530   4.817   6.255  1.6153 -0.7928 -0.2888
    9RES   H137 2393   6.431   4.799   6.026 -1.0940 -1.5142  0.5872
    9RES   H138 2394   6.485   4.642   6.007  0.4532  1.3955 -2.5473
    9RES   H139 2395   6.666   4.633   5.877  2.0527 -0.1614 -0.7737
    9RES   H140 2396   6.647   4.794   5.823  2.1929  0.1348 -1.1447
    9RES   H141 2397   6.797   4.752   5.902  0.0711  1.3844 -0.2109
    9RES   O142 2398   6.538   4.603   6.277  0.0475 -0.0852  0.0390
    9RES   C143 2399   6.564   4.623   6.412 -0.2237 -0.2418 -0.6151
    9RES   C144 2400   6.621   4.495   6.472 -0.8417 -0.3482  0.5667
    9RES   C145 2401   6.590   4.479   6.620 -0.3847 -0.0743  0.6195
    9RES   O146 2402   6.630   4.344   6.644  0.3992  0.2040  0.5901
    9RES   C147 2403   6.596   4.304   6.776 -0.0107 -0.3925  0.0099
    9RES   H148 2404   6.639   4.703   6.413 -2.3551  1.7938  1.1151
    9RES   H149 2405   6.472   4.644   6.465  0.1334 -2.0942  0.7772
    9RES   H150 2406   6.564   4.420   6.418 -0.8856  1.2606 -1.7147
    9RES   H151 2407   6.492   4.504   6.660 -0.0921  0.8557  0.7525
    9RES   H152 2408   6.650   4.549   6.678 -2.0428  0.1084  2.1918
    9RES   H153 2409   6.488   4.312   6.790  0.1488  2.1316  0.0698
    9RES   H154 2410   6.652   4.358   6.852 -0.8206  0.4714  0.0082
    9RES   H155 2411   6.609   4.196   6.784  0.1195 -0.4571 -0.9742
    9RES   O156 2412   6.762   4.495   6.449 -0.4137 -0.3965 -0.2068
    9RES   C157 2413   6.795   4.445   6.322 -0.8948 -0.3806  0.2350
    9RES   C158 2414   6.937   4.389   6.334  0.1351 -0.4678 -0.0322
    9RES   C159 2415   7.016   4.417   6.198  0.2614  0.1811 -0.2946
    9RES   O160 2416   7.157   4.430   6.221 -0.2535  0.1527 -0.8140
    9RES   C161 2417   7.241   4.434   6.108  0.5675  0.1453 -0.5248
    9RES   H162 2418   6.731   4.362   6.291  0.1520 -1.4517  0.9003
    9RES   H163 2419   6.787   4.525   6.248 -1.8444 -1.7128 -1.1562
    9RES   H164 2420   6.990   4.439   6.416  0.8673  1.3399 -1.5726
    9RES   H165 2421   6.994   4.343   6.121 -0.3947 -0.6127  0.6559
    9RES   H166 2422   6.973   4.510   6.160  0.9784  0.3066 -0.8135
    9RES   H167 2423   7.243   4.339   6.055  3.7286 -1.7288  2.7541
    9RES   H168 2424   7.345   4.452   6.138 -0.3201  1.1274  2.0687
    9RES   H169 2425   7.211   4.515   6.042  2.5954  0.6035 -0.9217
    9RES   O170 2426   6.924   4.252   6.358 -0.2739  0.0283 -0.5263
    9RES   C171 2427   6.877   4.220   6.494  0.0798  0.2731 -0.3629
    9RES   C172 2428   6.935   4.083   6.525  0.6356  0.3442 -0.0062
    9RES   C173 2429   6.862   4.021   6.655 -0.5242 -0.4545  0.4470
    9RES   O174 2430   6.898   3.881   6.674 -0.5222 -0.2044 -0.2477
    9RES   C175 2431   6.842   3.832   6.801 -0.0970  0.7598  0.0088
    9RES   H176 2432   6.770   4.204   6.491  0.0403  0.4250  0.3146
    9RES   H177 2433   6.895   4.290   6.575 -2.9370 -2.1853  2.5563
    9RES   H178 2434   6.916   4.018   6.439  0.2772  0.9546 -0.3927
    9RES   H179 2435   6.900   4.071   6.744  0.8452  3.0556 -2.0053
    9RES   H180 2436   6.753   4.024   6.654 -0.4985  0.4046  0.3253
    9RES   H181 2437   6.876   3.732   6.825 -0.3480  0.3885 -1.1298
    9RES   H182 2438   6.735   3.817   6.784 -0.8026  1.5251  3.4757
    9RES   H183 2439   6.860   3.899   6.885 -0.3464  0.7718  0.0538
    9RES   O184 2440   7.081   4.082   6.547 -0.2628  0.0007  0.4770
    9RES   C185 2441   7.164   4.103   6.434 -0.2347 -0.0075 -0.4697
    9RES   C186 2442   7.305   4.069   6.476  0.2119 -0.8023  0.4988
    9RES   C187 2443   7.410   4.126   6.377  0.8910  0.0704 -0.0662
    9RES   O188 2444   7.538   4.082   6.420 -0.3224  0.0127  1.0180
    9RES   C189 2445   7.647   4.147   6.349  0.4469  0.5300  0.0032
    9RES   H190 2446   7.146   4.204   6.398 -2.3128 -1.3429 -3.4141
    9RES   H191 2447   7.148   4.043   6.345  1.7856 -1.1863 -0.0621
    9RES   H192 2448   7.330   4.114   6.572 -0.4060  1.7849 -0.5041
    9RES   H193 2449   7.414   4.232   6.400 -0.1092  0.0801  0.1044
    9RES   H194 2450   7.380   4.102   6.275  0.1066  3.1007 -0.5872
    9RES   H195 2451   7.640   4.134   6.241 -0.2463 -1.1495  0.2303
    9RES   H196 2452   7.635   4.253   6.368  0.1041  0.4815  0.0637
    9RES   H197 2453   7.743   4.102   6.374  0.5735 -0.9655 -2.9662
    9RES   O198 2454   7.329   3.931   6.476  0.0708  0.6148 -0.2124
    9RES   C199 2455   7.303   3.869   6.600  0.4079  0.2454 -0.2591
    9RES   C200 2456   7.288   3.721   6.577  0.1298  0.2624  0.0486
    9RES   C201 2457   7.158   3.669   6.507 -0.3185 -0.2627 -0.3871
    9RES   O202 2458   7.198   3.550   6.442 -0.4203  0.4376 -0.7002
    9RES   C203 2459   7.090   3.462   6.420 -0.4037 -0.7632  0.2446
    9RES   H204 2460   7.216   3.911   6.649 -0.9173 -0.7258 -1.7230
    9RES   H205 2461   7.376   3.891   6.678 -0.9964 -1.3939  1.5611
    9RES   H206 2462   7.374   3.712   6.511  0.4797  0.5063  0.4675
    9RES   H207 2463   7.079   3.648   6.579 -0.6861  2.6814  0.1580
    9RES   H208 2464   7.127   3.744   6.434 -0.7527 -0.7748 -0.7244
    9RES   H209 2465   7.000   3.510   6.381  0.0953  1.7578  2.0974
    9RES   H210 2466   7.059   3.405   6.508  3.6715 -2.2530  0.8198
    9RES   H211 2467   7.127   3.392   6.345 -1.4806  1.1633 -2.1542
    9RES   O212 2468   7.319   3.657   6.702 -0.2692 -0.1821 -0.0862
    9RES   C213 2469   7.450   3.617   6.714  0.0329 -0.5557 -0.3949
    9RES   C214 2470   7.485   3.568   6.858 -0.0998  1.2270  0.7793
    9RES   C215 2471   7.639   3.569   6.887  0.2932 -0.0103 -0.0635
    9RES   O216 2472   7.670   3.582   7.024  0.0512 -0.4669 -0.0491
    9RES   C217 2473   7.799   3.568   7.074 -0.1265  0.8558  0.7510
    9RES   H218 2474   7.510   3.703   6.683 -1.7442  1.2315  0.9739
    9RES   H219 2475   7.479   3.538   6.645  1.2926  0.6763 -1.3019
    9RES   H220 2476   7.443   3.638   6.930  1.7928 -0.0348  3.1759
    9RES   H221 2477   7.666   3.471   6.847 -0.8021 -0.4315  0.2018
    9RES   H222 2478   7.688   3.651   6.835  0.8946  0.5661  1.3857
    9RES   H223 2479   0.039   3.655   7.040 -2.5580  1.6166 -1.5402
    9RES   H224 2480   0.034   3.482   7.031 -0.4994  1.6736 -1.3862
    9RES   H225 2481   7.799   3.558   7.182 -1.7263  0.8515  0.7601
    9RES   O226 2482   7.436   3.432   6.882  0.2368  0.3062  0.4582
    9RES   C227 2483   7.395   3.400   7.011 -0.2791  0.1731 -0.3764
    9RES   C228 2484   7.254   3.437   7.038 -0.1722 -0.1078  0.8373
    9RES   C229 2485   7.169   3.367   6.927 -0.2497 -0.1196  0.1245
    9RES   O230 2486   7.032   3.348   6.955  0.6191  0.6015  0.1290
    9RES   C231 2487   6.958   3.282   6.852  0.0501  0.1364 -0.2902
    9RES   H232 2488   7.459   3.444   7.087 -0.7636  0.7372 -0.2894
    9RES   H233 2489   7.400   3.291   7.017  0.9194  0.2962  1.1254
    9RES   H234 2490   7.244   3.545   7.046  0.8460  0.0350  0.2367
    9RES   H235 2491   7.216   3.271   6.907 -1.2789 -0.9658  1.6557
    9RES   H236 2492   7.177   3.426   6.836 -1.8291 -1.5515 -0.9690
    9RES   H237 2493   6.982   3.301   6.748  2.6623 -2.0732 -0.1186
    9RES   H238 2494   6.854   3.314   6.861 -0.3548 -0.8370 -1.3980
    9RES   H239 2495   6.965   3.174   6.864  0.9981  0.1921 -0.2932
    9RES   O240 2496   7.199   3.379   7.160  0.5441  0.7583  0.4954
    9RES   C241 2497   7.202   3.456   7.279  0.0269  0.1844 -0.0880
    9RES   C242 2498   7.094   3.393   7.372  0.6361 -0.8045 -0.3540
    9RES   C243 2499   7.131   3.402   7.521  0.2551 -0.3933  0.3087
    9RES   O244 2500   7.038   3.330   7.601  0.1347  0.2847  0.2010
    9RES   C245 2501   7.078   3.323   7.736 -0.4895  0.3430 -0.3396
    9RES   H246 2502   7.179   3.560   7.259 -2.9158 -0.4813 -0.5119
    9RES   H247 2503   7.299   3.440   7.326 -0.2816 -0.3162  0.3898
    9RES   H248 2504   7.103   3.286   7.351  1.5443 -0.3461 -2.4358
    9RES   H249 2505   7.227   3.353   7.529  0.0160 -0.7922  0.7192
    9RES   H250 2506   7.145   3.507   7.547  0.6641 -0.4849  0.4613
    9RES   H251 2507   7.183   3.294   7.740 -0.4459  0.6782  1.2260
    9RES   H252 2508   7.006   3.265   7.793  0.0538  1.5569  1.6370
    9RES   H253 2509   7.075   3.421   7.784  1.8263 -0.7110  2.0887
    9RES   O254 2510   6.958   3.439   7.348  0.1134  0.2002  0.5265
    9RES   C255 2511   6.898   3.425   7.220 -0.0787  0.5524 -0.7105
    9RES   C256 2512   6.746   3.462   7.216 -0.2665 -0.0196 -0.4845
    9RES   C257 2513   6.683   3.495   7.071  0.4296  0.5796  0.0558
    9RES   O258 2514   6.569   3.581   7.083  0.1099  0.3237 -0.3178
    9RES   C259 2515   6.456   3.522   7.151 -0.8903  0.1984 -0.4526
    9RES   H260 2516   6.947   3.495   7.152 -0.7851  2.1903  0.4277
    9RES   H261 2517   6.902   3.321   7.190 -0.7079 -0.0721  1.2678
    9RES   H262 2518   6.722   3.554   7.270 -0.4859 -0.2115 -0.2547
    9RES   H263 2519   6.755   3.561   7.022  0.7010 -0.3871 -0.8561
    9RES   H264 2520   6.651   3.420   6.999 -1.2117  1.3706 -0.0649
    9RES   H265 2521   6.438   3.417   7.130 -0.6022 -0.6476  3.2268
    9RES   H266 2522   6.369   3.584   7.131 -0.0467  1.6467  0.2329
    9RES   H267 2523   6.466   3.532   7.259 -0.3268  0.3329 -0.5112
    9RES   O268 2524   6.674   3.353   7.275 -0.1306  0.5073 -0.1644
    9RES   C269 2525   6.695   3.319   7.411  0.5775  0.4068  0.2275
    9RES   C270 2526   6.572   3.249   7.471 -0.6420 -0.5956  0.5026
    9RES   C271 2527   6.594   3.187   7.602  0.0884  0.3509 -0.2600
    9RES   O272 2528   6.459   3.153   7.647 -0.9404  0.9114  0.6953
    9RES   C273 2529   6.454   3.086   7.773 -0.0350 -0.4195  0.3091
    9RES   H274 2530   6.716   3.410   7.468  1.6284  2.1424 -2.8158
    9RES   H275 2531   6.774   3.244   7.408 -1.0655 -1.4421  1.5837
    9RES   H276 2532   6.495   3.327   7.472 -0.3810 -0.3034 -0.6626
    9RES   H277 2533   6.641   3.261   7.667 -1.7968  0.6770  0.7952
    9RES   H278 2534   6.661   3.101   7.600  0.6173  0.7937 -2.0349
    9RES   H279 2535   6.485   3.154   0.035 -1.1542 -0.4793  0.8006
    9RES   H280 2536   6.513   2.994   7.764  1.7109  0.8192 -1.3457
    9RES   H281 2537   6.353   3.049   7.788 -0.6323 -0.3227 -3.0952
    9RES   H282 2538   6.522   3.182   7.400 -1.4759 -0.9980  1.4540
   10RES     O1 2539   1.272   5.108   5.268 -0.3761 -0.2748 -0.0954
   10RES     C2 2540   1.391   5.040   5.298 -0.1004  0.2158  0.1237
   10RES     C3 2541   1.483   5.046   5.172  0.2361  0.5952  0.2626
   10RES     C4 2542   1.631   5.000   5.191  0.1420 -0.3182  0.1454
   10RES     O5 2543   1.725   5.054   5.107 -0.9811 -0.5535 -0.2873
   10RES     C6 2544   1.756   5.194   5.134 -0.2946 -0.4955  0.5345
   10RES     H7 2545   1.442   5.085   5.384 -1.6670  0.7830  0.7691
   10RES     H8 2546   1.374   4.937   5.329  1.1762 -0.3000 -0.8582
   10RES     H9 2547   1.458   5.143   5.129 -0.2234  1.2265  1.8917
   10RES    H10 2548   1.634   4.891   5.191 -1.0759 -0.3719 -1.3484
   10RES    H11 2549   1.655   5.022   5.295  0.9007  0.5741 -0.2123
   10RES    H12 2550   1.801   5.207   5.232  0.8065  0.8505 -0.1318
   10RES    H13 2551   1.831   5.228   5.062 -2.4212  0.5578 -1.2504
   10RES    H14 2552   1.672   5.260   5.115 -0.3217 -0.3782  1.0871
   10RES    H15 2553   1.254   5.080   5.180  0.4394  0.8498 -0.6321
   10RES    O16 2554   1.411   4.946   5.094 -0.5028 -0.4853 -0.0770
   10RES    C17 2555   1.409   4.939   4.951  0.3083 -0.4611  0.0154
   10RES    C18 2556   1.305   5.026   4.876  0.6358 -0.1719  0.0823
   10RES    C19 2557   1.162   5.000   4.918  0.5734 -0.0878  0.5555
   10RES    O20 2558   1.131   5.077   5.036 -0.1171  0.1070 -0.8951
   10RES    C21 2559   1.002   5.043   5.084 -0.0500 -0.6301 -0.3371
   10RES    H22 2560   1.375   4.838   4.928 -0.1310  0.7104 -4.9936
   10RES    H23 2561   1.499   4.954   4.891  0.5370 -1.0899  0.1981
   10RES    H24 2562   1.314   4.979   4.778 -0.2320 -2.3428  1.0118
   10RES    H25 2563   1.094   5.045   4.846  1.1688  2.2374  1.3706
   10RES    H26 2564   1.137   4.895   4.923 -1.9923  0.3794 -1.6767
   10RES    H27 2565   0.930   5.048   5.002 -0.0612  2.6104 -0.1639
   10RES    H28 2566   0.972   5.098   5.173  1.9392  0.1521 -0.1305
   10RES    H29 2567   0.990   4.943   5.127 -1.9684  0.3455  1.4838
   10RES    O30 2568   1.353   5.169   4.869  0.2192  0.1855  0.1682
   10RES    C31 2569   1.272   5.259   4.794  0.4192 -0.0303 -0.2216
   10RES    C32 2570   1.338   5.406   4.807  0.2658  0.3948 -0.6588
   10RES    C33 2571   1.498   5.401   4.819  0.1479 -0.2930  0.4603
   10RES    O34 2572   1.554   5.531   4.811 -0.0483  0.4719 -0.2260
   10RES    C35 2573   1.695   5.533   4.838  0.2295  0.7266 -0.2250
   10RES    H36 2574   1.258   5.220   4.693 -0.6260  0.9782 -0.4787
   10RES    H37 2575   1.167   5.261   4.823  0.3042  1.5653 -0.6877
   10RES    H38 2576   1.325   5.461   4.714 -1.4453 -0.7279 -1.0952
   10RES    H39 2577   1.527   5.352   4.726  0.4212  1.7683 -0.5859
   10RES    H40 2578   1.521   5.332   4.900 -2.0047 -0.2681  1.1247
   10RES    H41 2579   1.738   5.631   4.817 -0.5081  0.7849 -1.5522
   10RES    H42 2580   1.754   5.455   4.792  2.5841  1.5678  1.2788
   10RES    H43 2581   1.718   5.526   4.944  0.1596 -2.1346 -0.3753
   10RES    O44 2582   1.281   5.481   4.919  0.4939 -0.3476 -0.2253
   10RES    C45 2583   1.277   5.415   5.042  0.1402  0.2440  0.1678
   10RES    C46 2584   1.219   5.508   5.149  0.1396  0.2934  0.4872
   10RES    C47 2585   1.138   5.435   5.254 -0.2731 -0.7084 -0.1277
   10RES    O48 2586   1.045   5.525   5.314 -0.4480 -0.1804 -0.3663
   10RES    C49 2587   1.114   5.609   5.412  0.3617  0.0037  0.0874
   10RES    H50 2588   1.376   5.397   5.082  0.7386  2.6180 -0.2189
   10RES    H51 2589   1.207   5.333   5.026  0.4147  0.1172 -0.4014
   10RES    H52 2590   1.155   5.576   5.093 -1.1592 -1.3533 -0.0776
   10RES    H53 2591   1.068   5.361   5.214  0.8911 -2.1148  0.3609
   10RES    H54 2592   1.200   5.381   5.326  2.4368 -0.9504 -2.5962
   10RES    H55 2593   1.036   5.638   5.482 -0.0463 -1.4117  0.2291
   10RES    H56 2594   1.145   5.699   5.358  2.3157 -0.8380 -0.2523
   10RES    H57 2595   1.197   5.566   5.467  0.2931 -1.0824 -0.6481
   10RES    O58 2596   1.330   5.571   5.215 -0.5969 -0.3310 -0.1686
   10RES    C59 2597   1.367   5.687   5.141 -0.5713 -0.0698 -0.0776
   10RES    C60 2598   1.498   5.733   5.215  0.8576  0.2004  0.3248
   10RES    C61 2599   1.602   5.619   5.256 -0.0750  0.6201  0.5227
   10RES    O62 2600   1.719   5.676   5.316 -0.2716 -0.2580  1.0752
   10RES    C63 2601   1.828   5.596   5.292 -0.1577  0.2787 -0.1013
   10RES    H64 2602   1.290   5.763   5.145 -0.0064  0.4507  1.3069
   10RES    H65 2603   1.390   5.665   5.037 -2.2563 -0.7439 -0.3206
   10RES    H66 2604   1.552   5.796   5.144  0.8824  0.6747  0.7616
   10RES    H67 2605   1.558   5.553   5.330 -2.3764  1.7557  0.1854
   10RES    H68 2606   1.623   5.557   5.168 -0.5659 -0.0655  0.8885
   10RES    H69 2607   1.821   5.536   5.201  2.5024 -1.3799  0.7204
   10RES    H70 2608   1.847   5.529   5.375  1.3122  1.0860  0.2247
   10RES    H71 2609   1.916   5.659   5.273  1.2865 -1.9044 -0.8110
   10RES    O72 2610   1.461   5.807   5.327 -0.2957  0.1642 -0.0837
   10RES    C73 2611   1.541   5.922   5.343 -0.3552  0.1996  0.3997
   10RES    C74 2612   1.500   6.005   5.468 -0.0516  0.4345  0.0527
   10RES    C75 2613   1.541   6.154   5.456 -0.2524  0.4920 -0.4001
   10RES    O76 2614   1.492   6.234   5.568  0.2888 -0.2865  0.2808
   10RES    C77 2615   1.344   6.252   5.562  0.2348  0.5702 -0.0436
   10RES    H78 2616   1.646   5.895   5.354 -0.6916 -1.3879 -0.2240
   10RES    H79 2617   1.533   5.986   5.256 -0.5805 -1.1994 -0.6251
   10RES    H80 2618   1.391   6.004   5.475 -0.1501  1.6200 -1.1540
   10RES    H81 2619   1.513   6.203   5.363  0.7129  0.4129 -0.7377
   10RES    H82 2620   1.647   6.177   5.465 -0.1802 -0.1862  0.6237
   10RES    H83 2621   1.302   6.157   5.595  0.1198  1.4263  2.3666
   10RES    H84 2622   1.308   6.274   5.461  0.2612  0.7973 -0.0024
   10RES    H85 2623   1.325   6.331   5.634  0.1824  0.6877 -0.1872
   10RES    O86 2624   1.551   5.954   5.594 -0.1128 -0.2890  0.0709
   10RES    C87 2625   1.516   5.815   5.621 -0.2993 -0.4670 -0.0772
   10RES    C88 2626   1.560   5.792   5.772  0.1823 -0.2586 -0.0713
   10RES    C89 2627   1.485   5.677   5.841  0.4010 -0.9001  0.1391
   10RES    O90 2628   1.465   5.714   5.974  0.5496  0.0556 -0.1951
   10RES    C91 2629   1.346   5.784   6.006 -0.5487  0.2472 -0.0858
   10RES    H92 2630   1.407   5.820   5.618 -0.2093  1.1578 -1.5478
   10RES    H93 2631   1.575   5.750   5.557  1.4612  0.9162  0.0759
   10RES    H94 2632   1.547   5.882   5.832 -0.3744 -0.5490  0.2470
   10RES    H95 2633   1.395   5.642   5.790 -1.8167  1.1106  2.5389
   10RES    H96 2634   1.552   5.591   5.838  0.7778 -0.6403  0.9865
   10RES    H97 2635   1.335   5.879   5.953  1.4100 -0.2075 -1.3411
   10RES    H98 2636   1.259   5.720   5.993 -1.8217  1.7002  1.0741
   10RES    H99 2637   1.353   5.799   6.114 -1.5381 -0.5587  0.0945
   10RES   O100 2638   1.703   5.769   5.776  0.4306  0.5786  0.1935
   10RES   C101 2639   1.777   5.802   5.890  0.2768 -0.5446 -0.3131
   10RES   C102 2640   1.918   5.754   5.880 -0.1401 -0.4386 -0.4329
   10RES   C103 2641   1.994   5.785   6.019  0.4217  0.5135  0.4405
   10RES   O104 2642   2.120   5.723   6.042 -0.0381  0.3519  0.5143
   10RES   C105 2643   2.197   5.790   6.142 -0.0389 -0.2521 -0.5727
   10RES   H106 2644   1.721   5.760   5.974 -1.1690  1.9404  0.0277
   10RES   H107 2645   1.790   5.910   5.898  1.1102 -0.6628 -0.0355
   10RES   H108 2646   1.906   5.646   5.877 -0.8691 -0.4550  2.1727
   10RES   H109 2647   1.945   5.747   6.109 -0.2731  0.7119  0.1448
   10RES   H110 2648   2.008   5.893   6.027 -2.7587  1.1175 -1.3510
   10RES   H111 2649   2.277   5.718   6.153  0.9577  0.9527  0.1254
   10RES   H112 2650   2.136   5.804   6.231 -0.9284  0.0090 -1.2094
   10RES   H113 2651   2.243   5.887   6.124 -1.7012  0.3845 -1.5914
   10RES   O114 2652   1.977   5.810   5.761 -0.4895  0.5852  0.0596
   10RES   C115 2653   2.093   5.733   5.713  0.0663 -0.2531  0.3467
   10RES   C116 2654   2.211   5.819   5.671 -0.2180 -0.4010 -0.4390
   10RES   C117 2655   2.299   5.842   5.791  0.6602  0.0828 -0.1556
   10RES   O118 2656   2.412   5.932   5.766 -0.0898  0.1886  0.0574
   10RES   C119 2657   2.484   5.952   5.888  0.7417  0.1025 -0.4613
   10RES   H120 2658   2.114   5.646   5.774 -2.4406  0.0585  1.7385
   10RES   H121 2659   2.046   5.687   5.626 -0.9306  3.0530 -0.9346
   10RES   H122 2660   2.175   5.912   5.629  0.2824 -0.6787 -1.4919
   10RES   H123 2661   2.242   5.876   5.878 -0.1091  3.1365 -1.7988
   10RES   H124 2662   2.334   5.743   5.818  1.0180 -0.1418 -1.4209
   10RES   H125 2663   2.426   5.970   5.979  2.3102 -0.8867  0.7607
   10RES   H126 2664   2.562   6.025   5.870 -0.2708  1.0488 -1.0856
   10RES   H127 2665   2.541   5.862   5.911 -1.5778 -1.0200  1.1771
   10RES   O128 2666   2.286   5.738   5.578 -0.0432 -0.1977 -0.5375
   10RES   C129 2667   2.345   5.812   5.465  0.4092  0.7296  0.7261
   10RES   C130 2668   2.426   5.732   5.372  0.8840 -0.0947  0.0797
   10RES   C131 2669   2.520   5.815   5.278 -0.7422  0.0700 -0.7691
   10RES   O132 2670   2.598   5.742   5.188  0.3836  0.2309  0.2096
   10RES   C133 2671   2.700   5.811   5.119 -0.6060 -0.6018  0.3259
   10RES   H134 2672   2.281   5.875   5.403 -0.3521  1.5494  2.3151
   10RES   H135 2673   2.415   5.882   5.510  1.3204  0.4451 -0.2224
   10RES   H136 2674   2.486   5.658   5.425  0.5412  0.7280  1.6546
   10RES   H137 2675   2.581   5.877   5.344 -1.9074  0.6890 -0.2567
   10RES   H138 2676   2.462   5.891   5.226 -2.1099  0.1144  0.7702
   10RES   H139 2677   2.746   5.753   5.039  0.8059  1.3037 -0.2832
   10RES   H140 2678   2.664   5.908   5.085  0.7602 -0.0048  0.5318
   10RES   H141 2679   2.778   5.844   5.187  0.0324 -0.4852 -0.4536
   10RES   O142 2680   2.337   5.671   5.277 -0.4176  0.1285 -1.3986
   10RES   C143 2681   2.226   5.589   5.320  0.2951  0.2011  0.0869
   10RES   C144 2682   2.270   5.455   5.386 -0.7147  0.5086  0.1785
   10RES   C145 2683   2.153   5.351   5.372 -1.0534 -0.5878  0.5165
   10RES   O146 2684   2.151   5.272   5.250 -0.6577  0.0863 -0.0950
   10RES   C147 2685   2.239   5.161   5.266 -0.3697 -0.0100  0.0657
   10RES   H148 2686   2.155   5.652   5.373  1.5657  1.9077 -0.1973
   10RES   H149 2687   2.174   5.563   5.228 -2.4421 -0.5406  1.7826
   10RES   H150 2688   2.359   5.408   5.343  1.0844  2.6603  1.4125
   10RES   H151 2689   2.061   5.408   5.365  0.9066  2.6579  0.1952
   10RES   H152 2690   2.141   5.296   5.465  1.4098 -0.1663  1.1267
   10RES   H153 2691   2.299   5.148   5.176 -0.4615 -0.8435  0.1195
   10RES   H154 2692   2.177   5.074   5.285 -1.4672  1.2174  2.3809
   10RES   H155 2693   2.305   5.174   5.352  0.1254  0.2999 -0.3543
   10RES   O156 2694   2.298   5.482   5.527 -0.2951 -0.4589 -0.8762
   10RES   C157 2695   2.376   5.378   5.586 -0.3208 -0.5158  0.4087
   10RES   C158 2696   2.386   5.401   5.731  0.0347 -0.3120  0.4610
   10RES   C159 2697   2.468   5.284   5.802 -0.1780 -0.0686 -0.0183
   10RES   O160 2698   2.556   5.341   5.897  0.6776 -0.6060  0.4906
   10RES   C161 2699   2.641   5.242   5.951 -0.6223  0.1376 -0.3348
   10RES   H162 2700   2.330   5.282   5.564 -0.0378 -0.9697  1.8036
   10RES   H163 2701   2.473   5.378   5.535 -0.1822  2.4461  0.5896
   10RES   H164 2702   2.425   5.502   5.746 -2.3126  0.4027  2.0024
   10RES   H165 2703   2.403   5.205   5.838  1.8925 -1.3525  0.9925
   10RES   H166 2704   2.521   5.231   5.723 -1.8242 -2.0189  0.1450
   10RES   H167 2705   2.578   5.179   6.014 -2.4023 -0.6866 -2.8336
   10RES   H168 2706   2.726   5.285   6.003  0.5827 -1.0566 -1.2711
   10RES   H169 2707   2.690   5.195   5.865  1.6412  2.0729 -0.1555
   10RES   O170 2708   2.250   5.405   5.777 -0.0582 -0.0592 -0.3070
   10RES   C171 2709   2.225   5.407   5.915 -0.1584 -0.1214  0.2721
   10RES   C172 2710   2.068   5.380   5.932  0.8048  0.2764  0.4943
   10RES   C173 2711   2.033   5.388   6.077  0.3412 -0.2710  0.0999
   10RES   O174 2712   1.892   5.421   6.091 -0.2512  0.4997 -0.0615
   10RES   C175 2713   1.857   5.475   6.219 -0.7108 -0.1079 -0.4373
   10RES   H176 2714   2.250   5.506   5.955 -1.1624 -0.4765  1.8087
   10RES   H177 2715   2.292   5.335   5.963  0.9232  0.7342  0.0663
   10RES   H178 2716   1.999   5.442   5.876 -0.0300 -0.7743  0.3475
   10RES   H179 2717   2.066   5.305   6.139  0.0472  0.3039  1.0435
   10RES   H180 2718   2.073   5.484   6.111 -0.7562  0.7145 -1.3333
   10RES   H181 2719   1.752   5.506   6.224 -0.1573  1.8528 -0.5131
   10RES   H182 2720   1.907   5.570   6.236 -0.8810 -0.5360  2.8981
   10RES   H183 2721   1.871   5.405   6.301 -1.1393 -0.1641 -0.4056
   10RES   O184 2722   2.036   5.247   5.899 -0.9096 -0.0913 -0.6399
   10RES   C185 2723   1.969   5.233   5.766 -0.0399  0.0738 -0.4022
   10RES   C186 2724   1.921   5.089   5.739  0.5491 -0.4845  0.2416
   10RES   C187 2725   1.899   5.073   5.587 -1.2058 -0.2356 -0.1849
   10RES   O188 2726   2.020   5.063   5.517 -0.0885  0.4059 -0.7077
   10RES   C189 2727   2.103   4.952   5.560  0.2387  0.7153  0.4758
   10RES   H190 2728   2.052   5.254   5.699  1.8609 -0.0242  1.8529
   10RES   H191 2729   1.891   5.308   5.754 -2.3878 -2.2239  0.1242
   10RES   H192 2730   1.987   5.010   5.777  0.2720 -0.5809  0.5215
   10RES   H193 2731   1.860   5.167   5.549 -1.3495 -0.1444  0.1831
   10RES   H194 2732   1.827   5.006   5.541 -0.4839 -1.2472  0.1409
   10RES   H195 2733   2.176   4.978   5.637  0.2242 -1.8989  1.4100
   10RES   H196 2734   2.043   4.871   5.603  0.2595  0.0731 -0.6948
   10RES   H197 2735   2.168   4.924   5.477 -2.8963 -1.2159 -1.4142
   10RES   O198 2736   1.789   5.066   5.795 -0.2662 -0.5275 -0.2806
   10RES   C199 2737   1.793   5.020   5.929  0.0140  0.0259  0.4280
   10RES   C200 2738   1.660   5.055   5.999 -0.2731 -0.4825  0.0031
   10RES   C201 2739   1.649   5.202   6.031 -0.9658  0.7801 -0.6086
   10RES   O202 2740   1.512   5.230   6.049  0.7515  0.3749  0.5109
   10RES   C203 2741   1.483   5.371   6.077  0.1236 -0.0462  0.5604
   10RES   H204 2742   1.886   5.039   5.981 -0.5250 -0.0503  1.4375
   10RES   H205 2743   1.801   4.912   5.910 -2.9444 -0.1195 -0.3712
   10RES   H206 2744   1.586   5.024   5.926 -0.6190  1.3244 -0.4387
   10RES   H207 2745   1.717   5.226   6.113 -0.0440 -2.0200 -0.4930
   10RES   H208 2746   1.682   5.262   5.946  1.5077  0.4533  0.0692
   10RES   H209 2747   1.531   5.398   6.171 -1.8884 -1.0936  1.9299
   10RES   H210 2748   1.375   5.381   6.081 -0.1219 -1.9119 -0.6128
   10RES   H211 2749   1.520   5.450   6.012 -1.5278 -0.3359 -0.7496
   10RES   O212 2750   1.636   4.974   6.113  0.0311 -0.8205 -0.1180
   10RES   C213 2751   1.508   4.930   6.132 -0.2572 -0.1659 -0.6706
   10RES   C214 2752   1.477   4.909   6.278  0.1356  0.2020 -0.4054
   10RES   C215 2753   1.470   5.041   6.355  0.3442  0.0535  0.1618
   10RES   O216 2754   1.428   5.031   6.492  0.2007 -0.3125  0.5210
   10RES   C217 2755   1.305   4.968   6.516 -0.2317  0.1099 -0.2903
   10RES   H218 2756   1.505   4.834   6.081  1.7623 -0.4759 -0.2497
   10RES   H219 2757   1.440   5.003   6.088 -1.9068 -1.5854 -0.5217
   10RES   H220 2758   1.378   4.866   6.290  0.3932 -0.4219 -0.4670
   10RES   H221 2759   1.570   5.084   6.357  0.3439  0.2062 -1.8685
   10RES   H222 2760   1.417   5.124   6.309  0.4776 -0.5222 -1.0601
   10RES   H223 2761   1.225   5.007   6.454  0.2055  1.8610  0.2215
   10RES   H224 2762   1.273   4.986   6.619 -0.1438  1.8767 -0.5543
   10RES   H225 2763   1.312   4.860   6.501 -0.2986 -0.0515  0.7750
   10RES   O226 2764   1.578   4.820   6.333  0.1191 -0.0334  0.4503
   10RES   C227 2765   1.559   4.680   6.315  0.0158 -0.0168  0.2607
   10RES   C228 2766   1.683   4.595   6.320  0.7780  0.1581 -0.0182
   10RES   C229 2767   1.746   4.590   6.460 -0.1587  0.2252  0.0666
   10RES   O230 2768   1.888   4.556   6.449  0.2784  0.1918  0.1575
   10RES   C231 2769   1.944   4.498   6.569 -0.0719  0.1552 -0.6975
   10RES   H232 2770   1.509   4.663   6.220 -0.2778 -0.3903  0.4843
   10RES   H233 2771   1.495   4.645   6.396 -0.3802  1.1984  0.4860
   10RES   H234 2772   1.757   4.647   6.260 -0.1339  1.3745 -0.1012
   10RES   H235 2773   1.695   4.521   6.527  0.0119  0.6560  0.6402
   10RES   H236 2774   1.738   4.690   6.503 -2.3863 -0.1621  0.6140
   10RES   H237 2775   1.907   4.397   6.582 -1.9897  0.7103 -1.7698
   10RES   H238 2776   1.918   4.555   6.659 -0.5266 -1.0107 -0.0859
   10RES   H239 2777   2.053   4.496   6.559  0.1959 -1.5880  1.9232
   10RES   O240 2778   1.659   4.459   6.299 -0.0178 -0.2757  0.1860
   10RES   C241 2779   1.656   4.420   6.158 -0.2879  0.1793 -0.5432
   10RES   C242 2780   1.776   4.369   6.093  0.5207 -0.1585  0.6015
   10RES   C243 2781   1.737   4.322   5.949 -0.3673  0.5991  0.2985
   10RES   O244 2782   1.842   4.264   5.883 -0.5774  0.1689  0.2601
   10RES   C245 2783   1.818   4.263   5.738  0.3926 -0.2852 -0.0664
   10RES   H246 2784   1.621   4.504   6.099  0.9990 -0.6350 -2.5064
   10RES   H247 2785   1.577   4.345   6.149 -1.2486  1.2567 -1.1381
   10RES   H248 2786   1.806   4.276   6.142  0.5232  0.0525  1.0025
   10RES   H249 2787   1.654   4.252   5.943  1.4555 -1.6330  0.0882
   10RES   H250 2788   1.712   4.416   5.901  1.5126  0.7601 -0.4251
   10RES   H251 2789   1.889   4.195   5.692  0.0480 -0.0101 -0.9997
   10RES   H252 2790   1.829   4.366   5.702 -2.6847 -0.1215 -0.6777
   10RES   H253 2791   1.714   4.233   5.726  0.4665 -0.8473  0.6282
   10RES   O254 2792   1.882   4.463   6.099 -0.3715 -0.0056  0.1005
   10RES   C255 2793   1.991   4.415   6.176  0.9721 -0.4017  0.3965
   10RES   C256 2794   2.107   4.518   6.156 -0.4253  0.2385 -0.0561
   10RES   C257 2795   2.191   4.517   6.282 -0.3034 -0.1119  0.3199
   10RES   O258 2796   2.231   4.647   6.315 -0.7593  0.0514 -0.0044
   10RES   C259 2797   2.300   4.659   6.439  0.3548  0.1794 -0.6795
   10RES   H260 2798   1.955   4.393   6.277 -0.5543  0.0117 -0.0463
   10RES   H261 2799   2.026   4.319   6.139  2.7738 -0.1367  1.3497
   10RES   H262 2800   2.061   4.616   6.142 -1.6434 -0.8135 -4.1743
   10RES   H263 2801   2.138   4.471   6.365 -1.1726  0.1928 -0.0701
   10RES   H264 2802   2.284   4.459   6.272 -1.6301 -1.9791 -1.6544
   10RES   H265 2803   2.395   4.606   6.430  0.6258  0.4587  0.4768
   10RES   H266 2804   2.250   4.615   6.525  1.1578 -0.1704 -0.3813
   10RES   H267 2805   2.324   4.763   6.459  0.3957  0.4497 -2.0980
   10RES   O268 2806   2.192   4.488   6.048  0.0617  0.2034 -0.2439
   10RES   C269 2807   2.137   4.540   5.927  0.9894  0.2590 -0.0106
   10RES   C270 2808   2.251   4.534   5.827 -0.8948 -0.3453  0.1269
   10RES   C271 2809   2.201   4.514   5.686  0.2742  0.2915  0.4420
   10RES   O272 2810   2.117   4.628   5.654  0.1004 -0.0689  0.0680
   10RES   C273 2811   2.029   4.608   5.545 -0.0796  0.1115 -0.5098
   10RES   H274 2812   2.086   4.636   5.936 -0.7944 -0.4549 -2.0065
   10RES   H275 2813   2.058   4.469   5.901  0.0727  0.2742  2.6041
   10RES   H276 2814   2.306   4.628   5.817 -0.6095 -0.7537 -2.5477
   10RES   H277 2815   2.143   4.422   5.686  2.7553 -1.3304  0.3933
   10RES   H278 2816   2.267   4.514   5.599  0.3547 -0.1413  0.4995
   10RES   H279 2817   2.075   4.604   5.446  0.9057  0.1274 -0.0531
   10RES   H280 2818   1.967   4.695   5.525 -0.5633 -0.6676 -2.5409
   10RES   H281 2819   1.966   4.518   5.543  4.3442 -3.1344 -1.6158
   10RES   H282 2820   2.314   4.451   5.859 -0.7318 -0.4640 -0.4884
   11RES     O1 2821   3.363   3.899   2.590 -0.2077  1.0126 -0.0982
   11RES     C2 2822   3.321   3.961   2.715 -0.0951 -0.2113  0.3725
   11RES     C3 2823   3.252   3.855   2.809  0.2299 -0.1207  0.5152
   11RES     C4 2824   3.264   3.890   2.961  0.3268 -1.1195 -0.6548
   11RES     O5 2825   3.249   3.774   3.042  0.2561  0.2773 -0.3360
   11RES     C6 2826   3.250   3.807   3.178 -0.1357  0.1326 -0.6443
   11RES     H7 2827   3.413   3.991   2.766  0.7346 -1.8546 -0.0826
   11RES     H8 2828   3.253   4.044   2.700 -1.0025 -0.9804  0.1704
   11RES     H9 2829   3.302   3.759   2.799 -0.1662 -0.4219  1.3762
   11RES    H10 2830   3.185   3.958   2.994  0.1260 -1.5933 -0.1554
   11RES    H11 2831   3.360   3.941   2.973 -0.2146 -0.2146 -0.0902
   11RES    H12 2832   3.343   3.860   3.200 -0.0541 -0.8870  1.5988
   11RES    H13 2833   3.158   3.862   3.198 -0.0855  0.0024 -0.0288
   11RES    H14 2834   3.241   3.719   3.242 -0.2505 -0.2227 -1.1422
   11RES    H15 2835   3.288   3.877   2.538  0.8450 -0.2958 -1.0957
   11RES    O16 2836   3.115   3.851   2.767 -0.1273  0.1470  0.0646
   11RES    C17 2837   3.043   3.736   2.815 -0.0104 -0.0798  0.1831
   11RES    C18 2838   2.893   3.755   2.792  0.2168 -0.2906 -0.2027
   11RES    C19 2839   2.839   3.886   2.845 -0.3772  0.2207 -0.2745
   11RES    O20 2840   2.701   3.883   2.849 -0.3112 -0.1957 -0.0804
   11RES    C21 2841   2.647   4.004   2.892  0.0470  0.1529 -0.6093
   11RES    H22 2842   3.069   3.707   2.917  1.3255  1.9720  0.4513
   11RES    H23 2843   3.079   3.655   2.752 -1.4620  0.0513 -0.8548
   11RES    H24 2844   2.839   3.668   2.829 -0.5421 -0.3970 -1.5611
   11RES    H25 2845   2.871   3.907   2.947 -0.4759 -0.4281 -0.1040
   11RES    H26 2846   2.878   3.961   2.777  0.8037 -0.1463 -0.0171
   11RES    H27 2847   2.691   4.036   2.987 -1.2334  0.0571  0.0205
   11RES    H28 2848   2.539   4.002   2.903 -0.1094 -0.4351 -2.1942
   11RES    H29 2849   2.679   4.087   2.828  1.9581 -0.1113 -0.0498
   11RES    O30 2850   2.876   3.748   2.643  0.1471 -0.0413 -0.8545
   11RES    C31 2851   2.756   3.696   2.603 -0.2185 -0.0702  0.2058
   11RES    C32 2852   2.780   3.543   2.549 -0.5571 -0.3198 -0.4976
   11RES    C33 2853   2.650   3.470   2.548  0.1126  0.2458  0.3049
   11RES    O34 2854   2.680   3.344   2.489  0.7291 -0.3514 -0.1229
   11RES    C35 2855   2.563   3.272   2.443 -0.4025  1.2265 -0.3603
   11RES    H36 2856   2.681   3.685   2.681  0.4437  0.8863  0.9856
   11RES    H37 2857   2.710   3.762   2.530  0.7527  0.4260  0.0399
   11RES    H38 2858   2.829   3.554   2.452 -0.0428 -1.5118 -0.3814
   11RES    H39 2859   2.587   3.526   2.480  0.3852 -0.7901 -0.8133
   11RES    H40 2860   2.598   3.461   2.643 -1.1067 -1.9825 -0.5461
   11RES    H41 2861   2.491   3.278   2.524 -0.1878 -1.9429  0.1059
   11RES    H42 2862   2.589   3.168   2.422  0.1880  1.2162  0.4214
   11RES    H43 2863   2.520   3.316   2.353  0.3047 -0.9711 -1.8214
   11RES    O44 2864   2.871   3.481   2.639  0.6403  0.2768 -0.4622
   11RES    C45 2865   2.979   3.411   2.587 -0.0658 -0.3748 -0.4429
   11RES    C46 2866   3.007   3.297   2.684 -0.3202  0.0845  0.7084
   11RES    C47 2867   3.130   3.219   2.639  0.1572 -0.3806 -0.6184
   11RES    O48 2868   3.133   3.086   2.681  0.4735  0.0615 -0.4676
   11RES    C49 2869   3.261   3.030   2.661  0.1742  0.4420  0.4040
   11RES    H50 2870   3.065   3.477   2.575  0.9666 -1.6777 -0.1964
   11RES    H51 2871   2.963   3.374   2.486  1.9168  2.0307 -1.6961
   11RES    H52 2872   2.927   3.228   2.710  1.8918 -2.7345  0.2974
   11RES    H53 2873   3.151   3.220   2.532  1.8252 -1.7350 -0.3446
   11RES    H54 2874   3.217   3.268   2.684  1.6215 -2.5850 -0.9835
   11RES    H55 2875   3.259   2.925   2.690  1.5911 -0.0263 -1.1254
   11RES    H56 2876   3.349   3.080   2.702  1.1051  0.0557 -1.0997
   11RES    H57 2877   3.272   3.030   2.553 -1.4110  1.6831  0.2275
   11RES    O58 2878   3.055   3.376   2.794 -0.1835 -0.9283  0.5610
   11RES    C59 2879   2.979   3.359   2.907 -0.6853  0.0326 -0.4562
   11RES    C60 2880   3.053   3.257   2.998 -0.3549 -0.2679  0.5367
   11RES    C61 2881   2.965   3.171   3.085 -0.3725 -0.5094  0.1498
   11RES    O62 2882   2.872   3.246   3.157 -0.4688 -0.2541  0.5022
   11RES    C63 2883   2.770   3.184   3.228 -0.1737 -0.3368 -0.1028
   11RES    H64 2884   2.874   3.343   2.883 -1.5078  0.7959  2.3878
   11RES    H65 2885   2.975   3.447   2.971  2.3020 -0.6717  0.7700
   11RES    H66 2886   3.097   3.178   2.938 -1.0609 -1.9032  2.1368
   11RES    H67 2887   2.902   3.105   3.026 -0.6516  0.7811 -1.0540
   11RES    H68 2888   3.029   3.109   3.147 -0.3503 -1.5731 -0.9131
   11RES    H69 2889   2.801   3.142   3.323  0.1013  0.6010  0.2262
   11RES    H70 2890   2.722   3.096   3.184 -0.5413 -0.3345  0.2969
   11RES    H71 2891   2.691   3.252   3.261 -0.4758 -1.4468  1.4951
   11RES    O72 2892   3.148   3.314   3.089  0.5161  0.5955 -0.0358
   11RES    C73 2893   3.268   3.360   3.029 -0.1616 -0.4473 -0.4173
   11RES    C74 2894   3.383   3.359   3.133  0.6230 -0.3385 -0.0882
   11RES    C75 2895   3.506   3.449   3.089  0.5397  0.2984  0.0324
   11RES    O76 2896   3.581   3.481   3.202 -0.0235 -0.0903  0.0729
   11RES    C77 2897   3.548   3.613   3.250  0.2091  0.3027  0.1768
   11RES    H78 2898   3.296   3.287   2.952 -1.7386 -2.0309  0.4670
   11RES    H79 2899   3.271   3.456   2.979  2.2619 -1.0094 -1.4103
   11RES    H80 2900   3.347   3.384   3.232  3.1206  0.9682  0.5113
   11RES    H81 2901   3.472   3.542   3.043  2.5721  1.8204  1.4616
   11RES    H82 2902   3.565   3.390   3.019 -0.6521  2.0035 -2.4820
   11RES    H83 2903   3.535   3.683   3.168  0.1707 -0.5546 -0.5641
   11RES    H84 2904   3.623   3.652   3.318  1.1888 -1.3530  0.0703
   11RES    H85 2905   3.451   3.601   3.299  1.6400 -0.6013  2.8950
   11RES    O86 2906   3.435   3.230   3.123  0.0822  0.7362  0.2855
   11RES    C87 2907   3.500   3.186   3.235  0.3432 -0.1250  1.0262
   11RES    C88 2908   3.529   3.034   3.228  0.0817 -0.0710  0.6033
   11RES    C89 2909   3.611   2.999   3.348 -0.0340 -0.0061  0.7582
   11RES    O90 2910   3.663   2.876   3.332  0.5681  0.2156  0.1568
   11RES    C91 2911   3.776   2.846   3.409  0.6948 -0.2296  0.1726
   11RES    H92 2912   3.599   3.232   3.229  1.1851 -2.0439 -0.3649
   11RES    H93 2913   3.444   3.208   3.326 -1.8308  1.3234 -0.6059
   11RES    H94 2914   3.578   3.008   3.135 -1.3537 -1.3872  0.1872
   11RES    H95 2915   3.702   3.059   3.353 -1.6486  2.5853  0.2324
   11RES    H96 2916   3.555   3.014   3.440 -0.1891 -2.7152  1.1474
   11RES    H97 2917   3.853   2.917   3.379  0.4615 -0.0187  0.0661
   11RES    H98 2918   3.768   2.843   3.518 -0.3873  0.6584  0.1308
   11RES    H99 2919   3.797   2.741   3.389 -1.3061 -0.8342  1.1157
   11RES   O100 2920   3.409   2.957   3.240 -0.3477  0.1711 -0.5317
   11RES   C101 2921   3.317   2.955   3.127  0.4664  0.5298  0.2577
   11RES   C102 2922   3.216   2.839   3.135  0.7843  0.9246 -0.5772
   11RES   C103 2923   3.126   2.830   3.016  0.1456 -0.2363  0.0867
   11RES   O104 2924   3.035   2.728   3.039 -0.4865  0.2624 -0.0301
   11RES   C105 2925   2.965   2.685   2.916 -0.4825  0.1974  0.0797
   11RES   H106 2926   3.365   2.941   3.030  1.0075 -1.6825  0.8169
   11RES   H107 2927   3.257   3.046   3.131  1.8886  1.5385 -1.0004
   11RES   H108 2928   3.265   2.742   3.146 -0.8454  0.1167 -0.2282
   11RES   H109 2929   3.190   2.799   2.933  2.0627  1.9028  0.7329
   11RES   H110 2930   3.073   2.919   2.983 -0.8351 -0.8984 -0.1362
   11RES   H111 2931   2.940   2.768   2.850  1.0842  1.2274  0.7400
   11RES   H112 2932   2.878   2.626   2.945 -1.2691  0.0085 -2.5708
   11RES   H113 2933   3.017   2.604   2.867  1.3189  2.1054 -1.2592
   11RES   O114 2934   3.134   2.866   3.250  0.1339  0.2891  0.1415
   11RES   C115 2935   3.159   2.786   3.363  0.0704  0.8607 -0.2082
   11RES   C116 2936   3.068   2.816   3.489 -0.4732 -0.1976  0.6786
   11RES   C117 2937   3.073   2.700   3.594  0.0554  0.3447  0.0615
   11RES   O118 2938   2.950   2.711   3.657 -0.0854  0.4648  0.2449
   11RES   C119 2939   2.838   2.640   3.615 -0.1925 -0.5690 -0.2190
   11RES   H120 2940   3.135   2.685   3.330  1.2544  0.7005 -0.6042
   11RES   H121 2941   3.263   2.789   3.396  0.4156 -0.0190 -1.1982
   11RES   H122 2942   2.964   2.827   3.460 -0.2605  1.7910  0.6173
   11RES   H123 2943   3.071   2.608   3.536  0.9515  0.6334 -0.4261
   11RES   H124 2944   3.158   2.692   3.663 -1.0122  0.6311  1.4417
   11RES   H125 2945   2.754   2.681   3.670  1.0141 -0.6268  1.6960
   11RES   H126 2946   2.844   2.533   3.635  0.2122 -0.6701 -0.8547
   11RES   H127 2947   2.811   2.652   3.510  1.1109  1.1074 -0.3733
   11RES   O128 2948   3.121   2.931   3.559 -0.6790  0.7580  0.3765
   11RES   C129 2949   3.057   3.052   3.514  0.0199  0.3992 -0.0319
   11RES   C130 2950   3.130   3.173   3.570  0.0409 -0.2600 -0.2687
   11RES   C131 2951   3.136   3.166   3.722 -0.3595 -0.1183 -0.0512
   11RES   O132 2952   3.251   3.223   3.782 -0.1199 -0.2422  0.1374
   11RES   C133 2953   3.368   3.157   3.744  0.5510 -0.3134  0.0377
   11RES   H134 2954   3.047   3.052   3.405 -1.2892  1.0908  0.0715
   11RES   H135 2955   2.956   3.057   3.555 -0.5964  1.3901 -1.5909
   11RES   H136 2956   3.227   3.155   3.524  1.4152 -2.5503  3.3301
   11RES   H137 2957   3.127   3.064   3.760 -1.7605 -1.0044 -2.6979
   11RES   H138 2958   3.045   3.210   3.762 -0.6517 -1.1229  0.4213
   11RES   H139 2959   3.359   3.048   3.749 -1.0501 -0.2437 -1.0541
   11RES   H140 2960   3.394   3.186   3.643 -2.1914  0.7015 -0.4021
   11RES   H141 2961   3.450   3.196   3.805  0.0359  1.7569 -0.5848
   11RES   O142 2962   3.071   3.298   3.542  0.2665 -0.4303  0.0217
   11RES   C143 2963   3.102   3.351   3.414 -0.5898  0.1463 -0.3159
   11RES   C144 2964   3.068   3.504   3.417 -0.0229  0.0688  0.2307
   11RES   C145 2965   3.011   3.546   3.280 -0.1456 -0.0828  0.1219
   11RES   O146 2966   2.941   3.673   3.294 -0.0865  0.2660  0.0147
   11RES   C147 2967   2.874   3.721   3.174 -0.1373 -0.1415 -0.3614
   11RES   H148 2968   3.204   3.336   3.379 -0.9469 -0.9594 -0.8792
   11RES   H149 2969   3.031   3.307   3.344  0.4268 -1.0529 -0.5953
   11RES   H150 2970   2.987   3.513   3.489 -1.7947 -4.0024 -1.1160
   11RES   H151 2971   2.936   3.476   3.243 -0.4063  0.4841 -0.4352
   11RES   H152 2972   3.087   3.548   3.203 -0.5112 -2.1432 -0.3384
   11RES   H153 2973   2.811   3.637   3.146 -0.4353 -1.2762  3.4644
   11RES   H154 2974   2.939   3.744   3.089  0.0158  2.2240  0.3487
   11RES   H155 2975   2.800   3.799   3.189 -0.7757 -0.6679 -0.7508
   11RES   O156 2976   3.184   3.588   3.437  0.1107 -0.1428  0.3323
   11RES   C157 2977   3.193   3.611   3.577  0.0154 -0.2344  0.2355
   11RES   C158 2978   3.326   3.686   3.604 -0.2629 -0.5656 -0.0729
   11RES   C159 2979   3.333   3.810   3.516 -0.1046 -0.2825  0.1887
   11RES   O160 2980   3.434   3.883   3.590  0.0219  0.1296  0.0110
   11RES   C161 2981   3.485   3.996   3.530  0.2707  0.1916  0.4706
   11RES   H162 2982   3.121   3.677   3.626 -0.1622  0.1911 -0.5966
   11RES   H163 2983   3.178   3.517   3.629 -0.1606 -1.1568 -1.4540
   11RES   H164 2984   3.321   3.710   3.711  0.0288  0.0545 -0.1946
   11RES   H165 2985   3.373   3.786   3.418  0.3455 -1.9685  0.7653
   11RES   H166 2986   3.246   3.876   3.517  0.3173  0.2782  1.5791
   11RES   H167 2987   3.559   4.025   3.605 -1.0366  0.7622  1.5617
   11RES   H168 2988   3.403   4.068   3.520  0.6585  0.4637 -0.9412
   11RES   H169 2989   3.532   3.967   3.436 -2.0366  0.2834 -0.7538
   11RES   O170 2990   3.428   3.599   3.573 -0.0698  0.1838 -0.3906
   11RES   C171 2991   3.463   3.511   3.676 -0.5278  0.0202  0.1593
   11RES   C172 2992   3.570   3.589   3.755 -0.7786 -0.3672  0.2041
   11RES   C173 2993   3.707   3.596   3.683  0.3013  1.3090  0.2567
   11RES   O174 2994   3.807   3.666   3.756  0.4489  0.1464  0.1108
   11RES   C175 2995   3.916   3.693   3.666  0.5352  0.0216 -0.7429
   11RES   H176 2996   3.484   3.411   3.638  2.5490  0.5189  0.3989
   11RES   H177 2997   3.379   3.496   3.743 -1.1057 -0.3669 -0.6497
   11RES   H178 2998   3.527   3.687   3.774  1.1571  0.1883  1.8141
   11RES   H179 2999   3.740   3.496   3.654 -1.5363  0.3781  1.2948
   11RES   H180 3000   3.683   3.652   3.592 -1.8786  0.4408  0.2529
   11RES   H181 3001   3.968   3.602   3.640  2.6690  0.4433  1.8383
   11RES   H182 3002   3.989   3.756   3.717 -0.1102  1.7182 -1.8649
   11RES   H183 3003   3.896   3.758   3.581  1.2647  0.2543 -0.7401
   11RES   O184 3004   3.571   3.503   3.870  0.3769  0.3304 -0.1645
   11RES   C185 3005   3.598   3.569   3.997 -0.1232  0.5037 -0.7824
   11RES   C186 3006   3.554   3.474   4.107 -0.0286 -0.2158 -0.6369
   11RES   C187 3007   3.536   3.557   4.237  0.1868  0.1295  0.2294
   11RES   O188 3008   3.478   3.483   4.339 -0.1921  0.3722 -0.1872
   11RES   C189 3009   3.492   3.531   4.471  0.0659  0.1466 -0.9589
   11RES   H190 3010   3.530   3.653   4.009  0.5127  1.1096 -1.4165
   11RES   H191 3011   3.703   3.595   4.010 -0.1396 -0.7323  2.3803
   11RES   H192 3012   3.459   3.435   4.071  0.4099  0.7991 -2.9817
   11RES   H193 3013   3.465   3.638   4.223 -1.0528 -1.3770 -2.6456
   11RES   H194 3014   3.636   3.594   4.260  0.6339  0.4956 -2.2036
   11RES   H195 3015   3.428   3.451   4.507  3.9566 -2.5946  0.1735
   11RES   H196 3016   3.597   3.525   4.499  0.1456  1.1873 -1.0202
   11RES   H197 3017   3.456   3.633   4.489 -0.4821 -0.4419  1.4954
   11RES   O198 3018   3.662   3.384   4.129 -0.2581  0.4280  0.0889
   11RES   C199 3019   3.619   3.261   4.175 -0.3309 -0.2044  0.1340
   11RES   C200 3020   3.737   3.185   4.237 -0.8109 -0.2467  0.2614
   11RES   C201 3021   3.699   3.051   4.305 -0.3747  0.4573 -0.1514
   11RES   O202 3022   3.818   2.970   4.322 -0.2782 -0.0048  0.0716
   11RES   C203 3023   3.791   2.843   4.386 -0.5496  0.4974 -0.3120
   11RES   H204 3024   3.556   3.210   4.103  1.2759 -0.9036 -0.8015
   11RES   H205 3025   3.561   3.267   4.267 -1.7106 -0.9041 -0.6864
   11RES   H206 3026   3.810   3.169   4.157  2.2485 -0.6272  3.0151
   11RES   H207 3027   3.642   3.068   4.396  1.0761 -2.3520  1.3795
   11RES   H208 3028   3.630   3.004   4.235  0.3917  0.5283 -0.9676
   11RES   H209 3029   3.709   2.783   4.347 -1.7701  0.5264  2.1284
   11RES   H210 3030   3.781   2.848   4.494  1.4190 -0.7671 -0.0315
   11RES   H211 3031   3.886   2.789   4.380 -0.3744  0.6510  0.8960
   11RES   O212 3032   3.808   3.262   4.337 -0.5697  0.4518 -0.3296
   11RES   C213 3033   3.947   3.277   4.334 -0.1214 -0.6818  0.4921
   11RES   C214 3034   4.010   3.350   4.459  0.3163 -0.1772  0.2640
   11RES   C215 3035   4.147   3.407   4.423 -0.7259 -0.8237 -0.2292
   11RES   O216 3036   4.198   3.513   4.518  0.1247  0.5542  0.2617
   11RES   C217 3037   4.241   3.463   4.642 -0.1845  0.3559 -0.1497
   11RES   H218 3038   3.974   3.333   4.245  0.7470 -0.1633  1.0761
   11RES   H219 3039   3.994   3.180   4.317  1.7744  0.3970 -0.5346
   11RES   H220 3040   3.938   3.423   4.495  1.1980 -0.2603  2.2861
   11RES   H221 3041   4.225   3.331   4.414  1.1541  0.9860  0.3979
   11RES   H222 3042   4.139   3.464   4.330  1.1193 -1.7065 -0.9668
   11RES   H223 3043   4.312   3.380   4.644 -2.2301 -1.4571  3.7008
   11RES   H224 3044   4.144   3.437   4.684 -0.3596 -0.0529 -0.7969
   11RES   H225 3045   4.274   3.548   4.702 -1.6762 -0.1964  1.5261
   11RES   O226 3046   4.032   3.256   4.565 -0.2811 -0.0233 -1.0914
   11RES   C227 3047   3.923   3.209   4.646  0.4087  0.0501  0.7244
   11RES   C228 3048   3.984   3.103   4.743 -0.0533 -0.1544  0.0238
   11RES   C229 3049   3.901   3.085   4.864  0.3317  0.8075  0.2221
   11RES   O230 3050   3.973   3.007   4.960  0.5094 -0.3934 -0.4693
   11RES   C231 3051   3.938   3.039   5.095 -0.1031 -0.3936 -0.1721
   11RES   H232 3052   3.853   3.155   4.582 -1.0593  1.5368  1.0457
   11RES   H233 3053   3.878   3.302   4.680  0.9081 -0.3612  2.5647
   11RES   H234 3054   4.084   3.137   4.769  0.6786 -1.8906 -0.5017
   11RES   H235 3055   3.804   3.040   4.845  2.1240 -2.1675 -2.4427
   11RES   H236 3056   3.887   3.184   4.906  1.1985  0.9398  0.2169
   11RES   H237 3057   3.970   3.141   5.118  0.7369 -1.0411  1.6430
   11RES   H238 3058   3.978   2.966   5.165 -0.1168  0.0921  0.3384
   11RES   H239 3059   3.830   3.031   5.105 -0.1161  1.4588  1.3469
   11RES   O240 3060   3.991   2.991   4.657 -0.1305 -0.1762 -0.0642
   11RES   C241 3061   4.087   2.884   4.687 -0.2726  0.1064 -0.5525
   11RES   C242 3062   4.234   2.930   4.698 -0.1465 -0.0082 -0.1529
   11RES   C243 3063   4.265   3.037   4.595  0.3471 -0.9919  0.0124
   11RES   O244 3064   4.407   3.032   4.559  0.4287 -0.2026  0.2980
   11RES   C245 3065   4.455   3.153   4.504  0.5422 -0.5615  0.0144
   11RES   H246 3066   4.079   2.802   4.616 -0.3371 -3.1592  3.0647
   11RES   H247 3067   4.067   2.833   4.782  0.2484 -1.8406 -1.4560
   11RES   H248 3068   4.298   2.844   4.678 -1.0731 -0.9209  0.7605
   11RES   H249 3069   4.206   3.036   4.504 -0.9672  1.1718  0.7943
   11RES   H250 3070   4.255   3.136   4.639 -2.3606 -2.9785  4.1882
   11RES   H251 3071   4.399   3.191   4.419  0.5926  0.2486  0.3371
   11RES   H252 3072   4.557   3.126   4.476  1.1466 -0.8414  2.3571
   11RES   H253 3073   4.461   3.233   4.579 -0.6163  0.9126 -1.4215
   11RES   O254 3074   4.245   2.973   4.837  0.1979 -0.1035 -0.1153
   11RES   C255 3075   4.378   3.013   4.862  0.6458  0.5923  0.2578
   11RES   C256 3076   4.387   3.055   5.011 -0.0070  0.0049 -0.9445
   11RES   C257 3077   4.527   3.011   5.073  0.6217  0.4113 -0.2356
   11RES   O258 3078   4.527   2.970   5.207  0.1097 -0.0030  0.0067
   11RES   C259 3079   4.477   3.067   5.297  0.2560  0.3891  0.6416
   11RES   H260 3080   4.436   2.922   4.848 -1.9136 -1.0524  0.1498
   11RES   H261 3081   4.416   3.095   4.801  1.7543 -1.5488 -2.0323
   11RES   H262 3082   4.309   3.007   5.070 -0.2791  0.2490 -1.1029
   11RES   H263 3083   4.560   2.916   5.031 -2.3885 -1.0102  0.5086
   11RES   H264 3084   4.611   3.075   5.044  0.2509  0.4530 -1.2297
   11RES   H265 3085   4.517   3.164   5.266  1.1834  0.2277  1.3025
   11RES   H266 3086   4.502   3.044   5.401  1.5978 -1.5330 -0.0775
   11RES   H267 3087   4.369   3.080   5.305  0.2340 -0.8957  2.6312
   11RES   O268 3088   4.387   3.195   5.023  0.1861  0.6770 -0.6664
   11RES   C269 3089   4.260   3.251   5.014  0.4511  0.7031 -0.1169
   11RES   C270 3090   4.266   3.395   5.084 -0.4420  0.4679 -0.2899
   11RES   C271 3091   4.202   3.390   5.223 -0.5634 -0.1639  0.0030
   11RES   O272 3092   4.221   3.512   5.300  0.4347 -0.1892  0.2715
   11RES   C273 3093   4.140   3.508   5.414  0.2833  0.5807 -0.5401
   11RES   H274 3094   4.183   3.181   5.047  1.2879  0.3937  1.2287
   11RES   H275 3095   4.233   3.261   4.909  1.6298  0.8488 -0.4161
   11RES   H276 3096   4.366   3.439   5.088  0.5212 -1.5991 -1.1902
   11RES   H277 3097   4.237   3.304   5.280 -1.5991  1.1625  2.7643
   11RES   H278 3098   4.097   3.373   5.201 -1.6786  0.0494  4.5776
   11RES   H279 3099   4.194   3.443   5.483 -1.4609  0.8180  1.0797
   11RES   H280 3100   4.045   3.458   5.398 -0.5614  1.5672  1.2091
   11RES   H281 3101   4.119   3.602   5.467 -0.9221 -0.7247  1.3714
   11RES   H282 3102   4.213   3.467   5.022  0.0435  1.2803  0.2165
   12RES     O1 3103   6.851   4.322   4.866  0.2142 -0.0686  0.0718
   12RES     C2 3104   6.972   4.347   4.801  0.3272 -0.7280  0.6325
   12RES     C3 3105   6.975   4.326   4.645  0.2126 -0.2359  0.1367
   12RES     C4 3106   7.070   4.431   4.569  0.2936  0.4437  0.4137
   12RES     O5 3107   7.058   4.436   4.428  0.2174  0.6824 -0.1221
   12RES     C6 3108   7.142   4.529   4.368  0.5264 -0.1598  0.3694
   12RES     H7 3109   6.972   4.456   4.811  1.7439 -0.5180 -1.3169
   12RES     H8 3110   7.056   4.295   4.846 -0.8415 -2.0806  1.2778
   12RES     H9 3111   6.877   4.348   4.602  0.6093 -1.0649 -1.2313
   12RES    H10 3112   7.175   4.416   4.596  0.0054  0.7220  1.7167
   12RES    H11 3113   7.040   4.531   4.601  2.7461  1.2909  0.2356
   12RES    H12 3114   7.139   4.633   4.400  1.4827  0.2439 -0.8352
   12RES    H13 3115   7.243   4.489   4.361  0.5169 -0.2588  0.7582
   12RES    H14 3116   7.118   4.542   4.263  0.8691 -0.8968  0.1986
   12RES    H15 3117   6.822   4.235   4.843  1.3449 -1.2273  2.8316
   12RES    O16 3118   7.025   4.197   4.607  0.1093 -0.0163 -0.0993
   12RES    C17 3119   6.930   4.081   4.591  0.2313 -0.0176 -0.1656
   12RES    C18 3120   6.999   3.962   4.518 -0.0023  0.2608  0.1574
   12RES    C19 3121   6.948   3.823   4.577  0.0293  0.1872 -0.1534
   12RES    O20 3122   7.055   3.730   4.574 -0.6858  0.4760 -0.4213
   12RES    C21 3123   7.027   3.614   4.646 -0.1455  0.2046  0.3962
   12RES    H22 3124   6.852   4.115   4.523 -1.3184 -1.6824  0.7260
   12RES    H23 3125   6.872   4.052   4.679  1.1863 -3.4767 -0.6182
   12RES    H24 3126   7.105   3.964   4.541 -0.0399  0.4665  0.3078
   12RES    H25 3127   6.935   3.840   4.684 -0.1689 -0.9098  0.0008
   12RES    H26 3128   6.864   3.771   4.531 -0.9096 -0.2114  1.9826
   12RES    H27 3129   7.046   3.622   4.753 -2.5721  0.0722  0.8604
   12RES    H28 3130   7.093   3.532   4.618  0.1862 -0.4752  3.0867
   12RES    H29 3131   6.929   3.581   4.611 -0.0762 -0.8292  1.1439
   12RES    O30 3132   6.984   3.960   4.375  0.5040 -0.0384  0.5009
   12RES    C31 3133   7.032   4.082   4.317  0.0933 -0.3608  0.7636
   12RES    C32 3134   7.052   4.057   4.173 -0.0203  0.5130  0.6333
   12RES    C33 3135   7.106   4.182   4.101  0.4599 -0.2329 -0.1350
   12RES    O34 3136   7.145   4.155   3.972 -0.5173  0.1646  0.3284
   12RES    C35 3137   7.260   4.071   3.961  0.0105  0.1906  0.3861
   12RES    H36 3138   6.958   4.158   4.344  1.0692  1.1297 -0.5984
   12RES    H37 3139   7.121   4.115   4.371 -0.2105  3.8521 -1.0498
   12RES    H38 3140   7.121   3.972   4.165 -1.9671 -0.8847 -2.1335
   12RES    H39 3141   7.188   4.224   4.159 -1.2210 -1.6087  3.3801
   12RES    H40 3142   7.032   4.262   4.104 -0.6165 -1.1973 -0.6558
   12RES    H41 3143   7.229   3.967   3.974 -0.6293  0.4114  0.6266
   12RES    H42 3144   7.343   4.109   4.020 -0.0970  0.7369  0.1823
   12RES    H43 3145   7.291   4.071   3.857 -2.1276 -0.8927 -0.2696
   12RES    O44 3146   6.920   4.027   4.127  0.8265  0.2360 -0.5297
   12RES    C45 3147   6.907   3.924   4.037  0.6998 -0.3109  0.6183
   12RES    C46 3148   6.757   3.911   3.991 -0.0567 -0.4939 -0.7629
   12RES    C47 3149   6.745   3.966   3.848 -0.1135  0.1743 -0.2164
   12RES    O48 3150   6.639   4.064   3.854 -0.1705 -0.2238  0.1899
   12RES    C49 3151   6.633   4.147   3.749  0.8863  0.1430 -0.7419
   12RES    H50 3152   6.943   3.837   4.091 -0.5561 -1.0476  0.2826
   12RES    H51 3153   6.965   3.940   3.946 -1.5197  1.6382 -0.4983
   12RES    H52 3154   6.688   3.960   4.060 -2.2483 -3.5110 -0.7329
   12RES    H53 3155   6.830   4.022   3.810  0.2080 -0.7393 -0.8611
   12RES    H54 3156   6.714   3.893   3.774  0.8158 -1.3087  0.8119
   12RES    H55 3157   6.620   4.083   3.661 -0.8903 -0.3621 -0.1277
   12RES    H56 3158   6.720   4.208   3.724  1.5062 -1.5865 -3.0467
   12RES    H57 3159   6.539   4.198   3.768  0.8961  0.1450 -0.7037
   12RES    O58 3160   6.715   3.770   3.986 -0.5578  0.4928 -0.1396
   12RES    C59 3161   6.688   3.721   4.116 -0.6713 -0.4802 -0.0764
   12RES    C60 3162   6.670   3.573   4.145 -0.5374  0.0658  1.0000
   12RES    C61 3163   6.642   3.553   4.298 -0.4637  0.0732  0.6274
   12RES    O62 3164   6.507   3.605   4.323  0.0665  0.7822  0.1469
   12RES    C63 3165   6.469   3.594   4.464 -0.2529  0.1252  0.0296
   12RES    H64 3166   6.595   3.772   4.144 -0.0641  1.0006 -0.7066
   12RES    H65 3167   6.770   3.742   4.185 -0.3328 -0.3536 -0.5157
   12RES    H66 3168   6.586   3.536   4.086  0.0866  1.4249 -0.7401
   12RES    H67 3169   6.631   3.450   4.331  1.2469  0.4033  2.2905
   12RES    H68 3170   6.721   3.602   4.354  0.7152 -0.8878 -0.1584
   12RES    H69 3171   6.441   3.491   4.487 -0.0274  0.1242  0.3097
   12RES    H70 3172   6.382   3.653   4.492  0.7114  0.7179  1.8963
   12RES    H71 3173   6.552   3.614   4.533  0.5161 -0.1479 -0.8065
   12RES    O72 3174   6.793   3.499   4.117 -0.4090 -0.4357 -0.0062
   12RES    C73 3175   6.801   3.462   3.977 -0.0545  0.2561  0.1620
   12RES    C74 3176   6.932   3.383   3.956 -0.1972 -0.1575 -1.2207
   12RES    C75 3177   6.942   3.269   4.066 -0.3946 -0.5882 -0.4506
   12RES    O76 3178   7.043   3.170   4.028  1.2466 -0.3849 -0.7354
   12RES    C77 3179   6.995   3.073   3.935  0.2457 -0.0885  0.2751
   12RES    H78 3180   6.714   3.406   3.942 -1.7109  2.7950  0.0541
   12RES    H79 3181   6.801   3.546   3.906 -0.0887  0.8063  0.8134
   12RES    H80 3182   6.925   3.335   3.858 -1.6695  0.7446 -1.5685
   12RES    H81 3183   6.842   3.225   4.078 -0.4817  0.1120  1.5684
   12RES    H82 3184   6.954   3.310   4.167  2.7207 -1.1600 -0.5645
   12RES    H83 3185   6.951   3.123   3.849  1.5280  2.6382  1.1467
   12RES    H84 3186   6.921   3.001   3.972  1.3405 -0.4849  1.7588
   12RES    H85 3187   7.078   3.009   3.905 -0.3329 -0.6506 -0.1380
   12RES    O86 3188   7.040   3.478   3.962  0.5056 -0.2060 -0.8069
   12RES    C87 3189   7.147   3.431   3.892 -0.1580  0.6411  0.3576
   12RES    C88 3190   7.242   3.544   3.862  0.3326 -0.0776  0.4555
   12RES    C89 3191   7.399   3.531   3.873  0.0375 -0.0766 -0.1962
   12RES    O90 3192   7.461   3.424   3.801 -0.1734 -0.5150  0.2215
   12RES    C91 3193   7.477   3.450   3.660 -0.1508 -0.3243  0.3503
   12RES    H92 3194   7.198   3.376   3.972 -1.8931 -0.7424  0.5412
   12RES    H93 3195   7.126   3.371   3.804  2.9043  0.2531 -0.1786
   12RES    H94 3196   7.218   3.631   3.924 -2.5735 -0.2062 -0.4314
   12RES    H95 3197   7.449   3.621   3.839  1.6650 -0.8273  0.1212
   12RES    H96 3198   7.424   3.503   3.976 -0.4689  2.1492  0.5410
   12RES    H97 3199   7.521   3.362   3.613 -1.3295  0.1679 -1.7339
   12RES    H98 3200   7.384   3.473   3.608 -0.6863  2.4333  2.4201
   12RES    H99 3201   7.537   3.540   3.645  0.2282 -0.6996 -0.4228
   12RES   O100 3202   7.207   3.591   3.731 -0.0616 -0.4963  0.0421
   12RES   C101 3203   7.103   3.690   3.716  0.3336 -0.3478 -0.2367
   12RES   C102 3204   7.061   3.684   3.566 -0.3080 -0.1757 -1.0258
   12RES   C103 3205   6.953   3.789   3.545 -0.8988 -0.9271 -0.4564
   12RES   O104 3206   6.907   3.784   3.408  0.3232 -0.1206  0.2371
   12RES   C105 3207   6.812   3.884   3.376  0.1267  0.0244  0.1373
   12RES   H106 3208   7.134   3.789   3.749  0.2712 -0.5356  0.3854
   12RES   H107 3209   7.012   3.670   3.772 -0.4504  1.7635 -0.7073
   12RES   H108 3210   7.145   3.705   3.500  1.5607 -1.5538  0.8380
   12RES   H109 3211   6.997   3.887   3.559  0.4292 -1.7686  1.5321
   12RES   H110 3212   6.868   3.785   3.614 -2.8449  2.1041 -2.5372
   12RES   H111 3213   6.725   3.894   3.442  1.3214  0.2538  1.7098
   12RES   H112 3214   6.777   3.863   3.275  0.1123  2.7831 -0.4618
   12RES   H113 3215   6.853   3.984   3.374 -1.2883  0.7297  3.0110
   12RES   O114 3216   7.009   3.557   3.532 -0.0876 -0.0125 -0.2336
   12RES   C115 3217   6.895   3.494   3.590 -0.5446  0.4072  0.0884
   12RES   C116 3218   6.853   3.366   3.512 -0.5590 -0.4102 -0.9134
   12RES   C117 3219   6.716   3.302   3.552  0.2145  0.2026  0.0735
   12RES   O118 3220   6.739   3.246   3.681 -0.5819  0.1210  0.4199
   12RES   C119 3221   6.618   3.191   3.725  0.2952 -0.4031  0.6417
   12RES   H120 3222   6.907   3.485   3.698 -2.0736 -0.4070  0.1899
   12RES   H121 3223   6.812   3.560   3.563 -0.2025  0.2337 -1.4869
   12RES   H122 3224   6.918   3.280   3.529 -1.1208 -0.8971 -1.1768
   12RES   H123 3225   6.633   3.372   3.560  0.7148  0.7581  0.4327
   12RES   H124 3226   6.685   3.223   3.484  1.6879 -1.0627  0.8316
   12RES   H125 3227   6.643   3.146   3.821  0.3608 -1.5812  0.0655
   12RES   H126 3228   6.573   3.109   3.670  0.6428 -1.3482  1.7635
   12RES   H127 3229   6.552   3.275   3.750 -1.0380 -1.1363 -0.3550
   12RES   O128 3230   6.871   3.381   3.370 -0.1442 -0.4293  0.7523
   12RES   C129 3231   6.782   3.469   3.307 -0.2696  0.1314  0.0682
   12RES   C130 3232   6.751   3.443   3.157 -0.2803 -0.6102 -0.0253
   12RES   C131 3233   6.726   3.582   3.084 -0.3793 -0.2094 -0.2727
   12RES   O132 3234   6.754   3.571   2.951 -0.6027  0.1537  0.3042
   12RES   C133 3235   6.663   3.487   2.876 -0.3925 -0.0243 -0.0115
   12RES   H134 3236   6.685   3.477   3.356 -0.0943  1.3119  0.2348
   12RES   H135 3237   6.815   3.572   3.323  2.4686 -0.5450 -0.8076
   12RES   H136 3238   6.831   3.386   3.109  0.0727 -0.1812  0.0576
   12RES   H137 3239   6.802   3.654   3.114  0.2076 -0.1997 -1.7807
   12RES   H138 3240   6.627   3.619   3.113  0.2303  0.3528  1.1702
   12RES   H139 3241   6.653   3.507   2.770 -2.2914 -0.1383  0.1259
   12RES   H140 3242   6.677   3.379   2.875 -1.8093 -0.2257  0.2613
   12RES   H141 3243   6.563   3.512   2.912 -0.0428  0.0937  0.9131
   12RES   O142 3244   6.636   3.356   3.143  0.5460  0.0572 -0.2208
   12RES   C143 3245   6.650   3.225   3.185 -0.0719  1.2910 -0.1565
   12RES   C144 3246   6.684   3.131   3.066 -0.2683 -0.0503  0.5797
   12RES   C145 3247   6.626   2.985   3.073  0.3344  0.2646  0.7312
   12RES   O146 3248   6.619   2.919   2.943  0.1713 -0.2214  0.0732
   12RES   C147 3249   6.555   2.790   2.954 -0.5271  0.2382  0.3745
   12RES   H148 3250   6.708   3.196   3.272 -0.8998 -0.2486 -0.1040
   12RES   H149 3251   6.547   3.197   3.208  0.1097  0.6803 -0.0947
   12RES   H150 3252   6.637   3.174   2.977  1.4802  1.0192  0.1589
   12RES   H151 3253   6.523   2.983   3.108  0.1835 -0.5936  0.2601
   12RES   H152 3254   6.665   2.924   3.154 -0.3019  0.1347  0.9378
   12RES   H153 3255   6.613   2.713   3.005 -1.6491  0.3298  1.8306
   12RES   H154 3256   6.533   2.756   2.853  1.6076 -3.8841  1.2301
   12RES   H155 3257   6.458   2.807   3.001 -0.9187  2.4173 -1.1188
   12RES   O156 3258   6.814   3.138   3.042 -0.3443  0.4650 -0.0595
   12RES   C157 3259   6.872   3.103   2.912 -0.1475  0.0078  0.1789
   12RES   C158 3260   7.018   3.162   2.897  0.5146  0.4645 -0.2290
   12RES   C159 3261   7.080   3.127   2.759  0.4582  0.2767  0.2157
   12RES   O160 3262   7.025   3.197   2.652  0.2304 -0.0825  0.1994
   12RES   C161 3263   7.069   3.149   2.527 -0.3658  0.3856  0.4004
   12RES   H162 3264   6.883   2.995   2.905 -0.6758 -0.0946  0.9017
   12RES   H163 3265   6.814   3.136   2.825 -0.5080 -1.7355 -0.2741
   12RES   H164 3266   7.022   3.271   2.904 -0.6572  0.3687  2.4252
   12RES   H165 3267   7.184   3.157   2.749  0.5720 -0.3204 -0.4475
   12RES   H166 3268   7.083   3.021   2.737 -0.3332  0.4620 -0.8317
   12RES   H167 3269   7.029   3.221   2.456 -1.1937  0.9056  1.3794
   12RES   H168 3270   7.010   3.061   2.500 -0.5953  0.6438  0.0460
   12RES   H169 3271   7.174   3.131   2.505 -1.1138 -1.8139 -1.6424
   12RES   O170 3272   7.107   3.107   2.995  0.1741  0.5883 -0.2967
   12RES   C171 3273   7.096   3.172   3.124 -0.1279  0.4732  0.3541
   12RES   C172 3274   7.231   3.190   3.201 -0.9750  0.7355  0.5234
   12RES   C173 3275   7.213   3.247   3.338 -0.1175 -0.7538  0.1796
   12RES   O174 3276   7.326   3.186   3.414 -0.3639 -0.5484 -0.2184
   12RES   C175 3277   7.311   3.175   3.551 -0.1679 -0.6213  0.3299
   12RES   H176 3278   7.021   3.111   3.175  1.4443 -0.5311  1.4934
   12RES   H177 3279   7.063   3.274   3.106  1.6292  1.2655  1.5506
   12RES   H178 3280   7.284   3.098   3.222 -0.1644  1.1546  0.3366
   12RES   H179 3281   7.212   3.356   3.338 -0.0649 -0.7519 -0.4857
   12RES   H180 3282   7.127   3.201   3.386 -0.1847 -0.9187 -0.0967
   12RES   H181 3283   7.255   3.260   3.590 -0.2795 -0.2487 -0.6379
   12RES   H182 3284   7.406   3.156   3.602  0.3490  1.6409  0.2652
   12RES   H183 3285   7.242   3.093   3.573  0.7882 -1.3423  0.6905
   12RES   O184 3286   7.322   3.274   3.124  0.1440 -0.6433  0.3742
   12RES   C185 3287   7.457   3.240   3.129  0.5784  0.5153  0.2095
   12RES   C186 3288   7.529   3.339   3.043 -0.3352 -0.2672 -0.2541
   12RES   C187 3289   7.648   3.263   2.974  0.0921 -0.0290  0.5807
   12RES   O188 3290   7.702   3.344   2.867  0.0512  0.1721  0.2310
   12RES   C189 3291   0.022   3.307   2.849 -0.0497  0.4634  0.3958
   12RES   H190 3292   7.477   3.139   3.092  0.6685  0.7749 -0.4659
   12RES   H191 3293   7.492   3.237   3.232  1.7143 -1.2311 -0.1987
   12RES   H192 3294   7.463   3.383   2.968  0.0844 -0.5709 -0.8056
   12RES   H193 3295   7.610   3.173   2.925 -0.9399  1.6053 -1.7206
   12RES   H194 3296   7.725   3.230   3.043 -0.1973 -0.8665  0.5071
   12RES   H195 3297   0.046   3.202   2.867 -1.6467  0.3758  2.1778
   12RES   H196 3298   0.046   3.335   2.747 -0.0988  0.8971  0.5011
   12RES   H197 3299   0.076   3.364   2.925  0.7169  0.5653 -0.2283
   12RES   O198 3300   7.591   3.448   3.123 -0.3564  0.7360  0.1324
   12RES   C199 3301   7.501   3.549   3.161 -0.8240  0.6114 -0.1078
   12RES   C200 3302   7.564   3.655   3.260  0.4472 -0.6758 -0.2319
   12RES   C201 3303   7.474   3.700   3.378  0.5153  0.1804  0.1570
   12RES   O202 3304   7.559   3.751   3.479  0.5386  0.0544 -0.2981
   12RES   C203 3305   7.491   3.819   3.589 -0.5497 -0.6279  0.7749
   12RES   H204 3306   7.416   3.506   3.213  0.0062  1.5314  2.0387
   12RES   H205 3307   7.454   3.598   3.075  0.5067  0.3450 -1.0064
   12RES   H206 3308   7.649   3.616   3.316 -0.5469  0.0520  1.8176
   12RES   H207 3309   7.398   3.771   3.344  1.6473  0.6509 -1.4341
   12RES   H208 3310   7.430   3.605   3.411 -0.4692  0.8844  0.9010
   12RES   H209 3311   7.407   3.763   3.630 -0.6528 -1.5257 -0.6162
   12RES   H210 3312   7.448   3.906   3.540  0.3464 -0.2361  0.6816
   12RES   H211 3313   7.552   3.837   3.678 -1.4898  0.6662  1.1647
   12RES   O212 3314   7.598   3.759   3.170  0.1429 -0.0687  0.3583
   12RES   C213 3315   7.730   3.799   3.203  0.1143  0.3167  0.2549
   12RES   C214 3316   7.773   3.926   3.128 -0.1481  0.4826  0.0445
   12RES   C215 3317   0.112   3.923   3.096  0.9022  0.2253  0.0043
   12RES   O216 3318   0.192   3.913   3.214 -0.1941  0.5897 -0.2534
   12RES   C217 3319   0.256   4.041   3.236 -0.0979  0.0159  0.0834
   12RES   H218 3320   7.796   3.718   3.172  1.3168  1.6741 -0.8254
   12RES   H219 3321   7.742   3.816   3.310  1.8719 -0.9999  0.2846
   12RES   H220 3322   7.720   3.940   3.033 -0.4065 -0.2098  0.0785
   12RES   H221 3323   0.131   3.830   3.041 -0.3241  1.6771 -2.9993
   12RES   H222 3324   0.148   4.007   3.037  1.6254  0.5775  0.9363
   12RES   H223 3325   0.326   4.035   3.319 -2.3450 -0.3121  2.0270
   12RES   H224 3326   0.179   4.115   3.259  0.5832  0.0968  2.1784
   12RES   H225 3327   0.319   4.071   3.152 -1.2765 -0.2372 -0.9013
   12RES   O226 3328   7.735   4.046   3.197  0.1423  0.5101  0.4116
   12RES   C227 3329   7.602   4.094   3.167 -0.3201  0.0875 -0.7110
   12RES   C228 3330   7.563   4.221   3.246  0.0296 -0.4453 -0.5757
   12RES   C229 3331   7.664   4.333   3.230 -0.9485 -0.4649 -0.0227
   12RES   O230 3332   7.642   4.428   3.335  0.0087 -0.0553 -0.0610
   12RES   C231 3333   7.695   4.552   3.303 -0.0712  0.2982 -0.0530
   12RES   H232 3334   7.527   4.016   3.179  0.0507 -0.4259 -1.6508
   12RES   H233 3335   7.597   4.128   3.063 -0.9866  1.5981 -0.1962
   12RES   H234 3336   7.573   4.182   3.347  2.0162  2.4437  0.4205
   12RES   H235 3337   7.646   4.390   3.139 -2.0989 -1.9628 -0.7558
   12RES   H236 3338   7.767   4.300   3.234  0.1989  3.1614  3.1288
   12RES   H237 3339   7.804   4.545   3.310 -0.0179  0.6571 -0.4766
   12RES   H238 3340   7.663   4.619   3.382 -0.0272 -0.9647  1.0550
   12RES   H239 3341   7.667   4.597   3.208 -0.0583 -1.3272 -0.8432
   12RES   O240 3342   7.442   4.257   3.204 -0.0953 -0.0769  0.5820
   12RES   C241 3343   7.353   4.302   3.307  0.1368 -0.3350 -0.4530
   12RES   C242 3344   7.278   4.183   3.366  0.0027  0.0940 -0.5423
   12RES   C243 3345   7.167   4.231   3.462 -0.0626 -0.7181 -0.1181
   12RES   O244 3346   7.147   4.122   3.560  0.3194  0.3852  0.1587
   12RES   C245 3347   7.064   4.150   3.672 -0.4285 -0.0330  0.5929
   12RES   H246 3348   7.277   4.373   3.275 -0.6509 -0.4207  1.1655
   12RES   H247 3349   7.408   4.366   3.377 -0.9659  0.5582 -0.3812
   12RES   H248 3350   7.355   4.126   3.417 -0.7253 -0.8834 -0.5139
   12RES   H249 3351   7.191   4.323   3.516  0.6124 -1.3295  0.6428
   12RES   H250 3352   7.077   4.260   3.408  0.1642 -0.2522 -0.2526
   12RES   H251 3353   7.061   4.065   3.741  1.4088 -1.2858 -0.8283
   12RES   H252 3354   6.966   4.188   3.647 -0.1004  0.6987  0.4139
   12RES   H253 3355   7.101   4.233   3.733 -1.3638  1.0574 -0.3115
   12RES   O254 3356   7.225   4.107   3.257  0.2887 -0.8815  0.4585
   12RES   C255 3357   7.177   3.977   3.287 -0.4877  0.7830 -0.4687
   12RES   C256 3358   7.161   3.882   3.167 -1.1479 -0.1185  0.4450
   12RES   C257 3359   7.136   3.735   3.181 -0.0315 -1.0226 -0.4246
   12RES   O258 3360   7.191   3.654   3.074  0.3379  0.0992  0.1360
   12RES   C259 3361   7.124   3.531   3.063  0.4662 -0.6143  0.1736
   12RES   H260 3362   7.244   3.936   3.363  0.8346  1.1466 -1.4043
   12RES   H261 3363   7.079   3.978   3.335  0.5471  0.9464  1.7088
   12RES   H262 3364   7.248   3.902   3.104 -1.1346 -0.0493  0.4846
   12RES   H263 3365   7.174   3.713   3.281  2.4213  2.2797 -0.5320
   12RES   H264 3366   7.028   3.725   3.176 -0.1738  1.2760 -2.6790
   12RES   H265 3367   7.154   3.468   2.979  0.7879  1.6201 -1.4136
   12RES   H266 3368   7.018   3.545   3.043  0.4442  0.0708  0.7391
   12RES   H267 3369   7.127   3.480   3.160 -1.5537  2.6345  2.0394
   12RES   O268 3370   7.042   3.935   3.100 -0.4145 -0.0401 -0.3343
   12RES   C269 3371   7.023   3.878   2.970 -0.2910 -0.3984 -0.1344
   12RES   C270 3372   6.929   3.951   2.870 -0.0062 -0.0596  0.3996
   12RES   C271 3373   6.787   3.962   2.938 -0.4414 -0.6003  0.2364
   12RES   O272 3374   6.695   4.008   2.842 -0.5442  0.1709 -0.4854
   12RES   C273 3375   6.565   4.041   2.882  0.3855 -0.0617  0.2666
   12RES   H274 3376   7.003   3.771   2.966  0.7878 -0.5762 -1.1886
   12RES   H275 3377   7.117   3.878   2.915 -0.3694  1.9655 -0.2972
   12RES   H276 3378   6.958   4.052   2.842  1.0080 -0.1837  0.9640
   12RES   H277 3379   6.787   4.036   3.017 -0.5433  1.1657 -1.3810
   12RES   H278 3380   6.741   3.874   2.983  0.0245 -1.1756 -0.3955
   12RES   H279 3381   6.565   4.088   2.980  1.0488 -0.1316  0.3046
   12RES   H280 3382   6.507   3.950   2.897 -0.2739  0.5336  1.3388
   12RES   H281 3383   6.517   4.100   2.804  0.2447 -1.1376 -0.4712
   12RES   H282 3384   6.924   3.903   2.773 -1.6728  2.3465 -0.7372
   13RES     O1 3385   0.689   4.335   6.389 -0.0864  0.8088  0.3510
   13RES     C2 3386   0.818   4.267   6.406 -0.4931  0.0736  0.2486
   13RES     C3 3387   0.913   4.320   6.302 -1.2454  0.1295 -0.2523
   13RES     C4 3388   1.066   4.275   6.335  0.4163 -0.2955 -0.2736
   13RES     O5 3389   1.151   4.371   6.265  0.2787  0.0917  0.1319
   13RES     C6 3390   1.291   4.341   6.273  0.0164 -0.1771  0.0878
   13RES     H7 3391   0.854   4.304   6.503  0.2938 -0.0030 -0.0107
   13RES     H8 3392   0.815   4.158   6.408  2.0497 -0.0786 -2.0293
   13RES     H9 3393   0.895   4.427   6.310 -2.5544 -0.0968  0.1115
   13RES    H10 3394   1.071   4.174   6.295 -0.1009 -2.2596  4.2379
   13RES    H11 3395   1.081   4.275   6.443 -3.0567  0.1276  0.2582
   13RES    H12 3396   1.349   4.424   6.232 -0.6583 -0.6949 -2.0066
   13RES    H13 3397   1.314   4.327   6.378  1.0902  1.8956  0.1577
   13RES    H14 3398   1.328   4.246   6.234  1.7028  0.5779 -0.1808
   13RES    H15 3399   0.688   4.348   6.296  0.2914  1.2924  0.4094
   13RES    O16 3400   0.884   4.260   6.181 -0.1605  0.9198 -0.3732
   13RES    C17 3401   0.919   4.338   6.068 -0.0948 -0.0057 -0.1659
   13RES    C18 3402   0.800   4.342   5.973 -0.3140  0.0577  0.5080
   13RES    C19 3403   0.697   4.449   6.030 -0.5165  0.8129  0.2703
   13RES    O20 3404   0.602   4.379   6.101 -0.1775  0.0022 -0.3611
   13RES    C21 3405   0.479   4.450   6.137 -0.4994  0.0952  0.1409
   13RES    H22 3406   1.004   4.292   6.019  0.6565  1.2631 -0.0585
   13RES    H23 3407   0.962   4.436   6.090  1.2204 -0.4327 -0.8227
   13RES    H24 3408   0.757   4.241   5.970  1.4306 -0.6599 -1.8034
   13RES    H25 3409   0.754   4.525   6.083  3.3900 -2.6213  1.2687
   13RES    H26 3410   0.655   4.497   5.942  2.4193  2.1652 -0.4541
   13RES    H27 3411   0.498   4.529   6.210 -1.5653  0.3756  0.1167
   13RES    H28 3412   0.422   4.370   6.185  0.7557 -1.1565 -0.4214
   13RES    H29 3413   0.428   4.483   6.047  0.6235  1.4603 -0.0110
   13RES    O30 3414   0.840   4.375   5.836  0.1886 -0.4726 -0.2995
   13RES    C31 3415   0.758   4.313   5.741 -0.1049  0.1121 -0.0579
   13RES    C32 3416   0.765   4.371   5.603  0.5694 -0.1322 -0.6156
   13RES    C33 3417   0.671   4.306   5.498  0.2740 -0.3732 -0.5151
   13RES    O34 3418   0.644   4.391   5.391  0.4393  0.1076  0.5833
   13RES    C35 3419   0.555   4.347   5.299 -0.3721  0.0609 -0.2649
   13RES    H36 3420   0.794   4.211   5.724 -0.4591 -0.0994  0.4637
   13RES    H37 3421   0.662   4.304   5.790  0.5725 -1.6950  1.0043
   13RES    H38 3422   0.757   4.480   5.607  1.3509 -0.0975  0.1214
   13RES    H39 3423   0.586   4.293   5.565 -0.4048  1.2210 -1.0487
   13RES    H40 3424   0.702   4.207   5.462 -2.5410 -1.1891 -0.8209
   13RES    H41 3425   0.522   4.412   5.219 -1.6548 -1.6612 -1.1841
   13RES    H42 3426   0.453   4.322   5.330 -1.3912  0.4303 -3.1957
   13RES    H43 3427   0.596   4.257   5.253  0.3497 -0.5461  1.4984
   13RES    O44 3428   0.897   4.336   5.553  0.7923  0.1593  0.2421
   13RES    C45 3429   0.949   4.439   5.474  0.4414 -0.0108 -0.0062
   13RES    C46 3430   1.096   4.402   5.438  0.5431  0.2005 -0.5780
   13RES    C47 3431   1.147   4.482   5.310  0.0549 -0.0220 -0.3691
   13RES    O48 3432   1.142   4.625   5.336 -0.1389  0.1271  0.6178
   13RES    C49 3433   1.199   4.708   5.229 -0.0412  0.1962 -0.1301
   13RES    H50 3434   0.946   4.535   5.525  0.3941  1.3571 -2.4946
   13RES    H51 3435   0.884   4.455   5.388  0.2926 -1.1996 -0.1254
   13RES    H52 3436   1.102   4.294   5.421  1.9433  0.3563 -1.1710
   13RES    H53 3437   1.253   4.463   5.289  0.5344  1.2592  0.8029
   13RES    H54 3438   1.088   4.459   5.221 -2.3769  1.1684  0.8883
   13RES    H55 3439   1.151   4.683   5.135  1.9508  1.0728 -1.4090
   13RES    H56 3440   1.306   4.693   5.214 -0.1017  0.7196 -1.0815
   13RES    H57 3441   1.175   4.814   5.242 -0.4023  0.4307 -2.4935
   13RES    O58 3442   1.181   4.438   5.551  0.1941 -0.1954 -0.0778
   13RES    C59 3443   1.168   4.361   5.668  0.7031 -0.7247  0.1514
   13RES    C60 3444   1.288   4.378   5.760  0.3071 -0.1822  0.2771
   13RES    C61 3445   1.298   4.273   5.876 -0.0432  0.5814  0.1839
   13RES    O62 3446   1.425   4.211   5.898  0.0183  0.3837 -0.2038
   13RES    C63 3447   1.454   4.117   5.791  1.1576 -0.7058  0.1993
   13RES    H64 3448   1.175   4.258   5.635  0.1946 -1.0933  1.1667
   13RES    H65 3449   1.071   4.377   5.716  1.8720 -1.1188  2.7423
   13RES    H66 3450   1.377   4.375   5.696 -0.2962  2.9991 -0.8496
   13RES    H67 3451   1.283   4.312   5.977 -1.0235  0.0436  0.2491
   13RES    H68 3452   1.218   4.202   5.856 -1.1192  1.5510  0.9736
   13RES    H69 3453   1.540   4.054   5.814  1.6747 -0.3227 -0.6610
   13RES    H70 3454   1.467   4.170   5.696  1.3644 -1.6062 -0.2811
   13RES    H71 3455   1.372   4.045   5.788  0.4847  0.0971 -0.9629
   13RES    O72 3456   1.274   4.503   5.823  0.3589  0.0134  0.2239
   13RES    C73 3457   1.391   4.561   5.871  0.0164  0.4012  0.6643
   13RES    C74 3458   1.434   4.689   5.801 -0.0152  0.6985 -0.0925
   13RES    C75 3459   1.575   4.734   5.821 -0.6393  0.5739 -0.2493
   13RES    O76 3460   1.669   4.651   5.743  0.2762 -0.2907 -0.8223
   13RES    C77 3461   1.798   4.659   5.796 -0.3254  0.1696  0.3929
   13RES    H78 3462   1.376   4.571   5.979 -1.0305 -2.3564  0.8264
   13RES    H79 3463   1.476   4.496   5.849  0.3872  1.6153 -1.5589
   13RES    H80 3464   1.426   4.682   5.692  1.4244 -1.2638 -0.0966
   13RES    H81 3465   1.598   4.722   5.927 -2.2039 -1.4969 -0.1158
   13RES    H82 3466   1.587   4.840   5.802  0.6594  0.2125 -1.5624
   13RES    H83 3467   1.835   4.761   5.783 -1.7243  1.0029  2.5722
   13RES    H84 3468   1.871   4.596   5.746 -0.1520 -1.3148  2.4513
   13RES    H85 3469   1.809   4.629   5.900  0.1943 -1.0013  0.0087
   13RES    O86 3470   1.357   4.797   5.854  0.3220  0.0447 -0.0791
   13RES    C87 3471   1.230   4.811   5.793  0.0508  0.5861 -0.8302
   13RES    C88 3472   1.240   4.887   5.655  0.8847 -0.4336 -0.0914
   13RES    C89 3473   1.143   4.840   5.548  0.6791  0.5235  1.1555
   13RES    O90 3474   1.005   4.858   5.592  0.1395 -0.6742 -0.2565
   13RES    C91 3475   0.911   4.827   5.496  0.1351  0.5877 -0.2313
   13RES    H92 3476   1.181   4.714   5.784  2.5649 -1.0330  2.1379
   13RES    H93 3477   1.160   4.866   5.856  1.1643 -1.2471  2.1308
   13RES    H94 3478   1.341   4.882   5.616 -0.0428  2.7653 -3.2316
   13RES    H95 3479   1.161   4.890   5.453 -0.8763 -2.4690 -0.7954
   13RES    H96 3480   1.169   4.736   5.530 -0.0398  0.7564 -1.4459
   13RES    H97 3481   0.938   4.740   5.436 -0.5203  0.9621 -1.0745
   13RES    H98 3482   0.807   4.831   5.528  0.7417 -2.5590  2.4141
   13RES    H99 3483   0.920   4.907   5.422 -1.4624  0.0492 -1.0375
   13RES   O100 3484   1.220   5.026   5.685 -0.0480 -0.7110 -0.2605
   13RES   C101 3485   1.334   5.101   5.735 -0.5014 -0.2787  0.1045
   13RES   C102 3486   1.321   5.243   5.675  0.2412  0.3335 -0.1735
   13RES   C103 3487   1.445   5.337   5.695  0.2732  1.0893  0.3352
   13RES   O104 3488   1.548   5.312   5.598 -0.3451 -0.3776 -0.1990
   13RES   C105 3489   1.644   5.415   5.592  0.0510 -0.6077  0.4871
   13RES   H106 3490   1.423   5.049   5.700  0.5200 -0.0084  2.1895
   13RES   H107 3491   1.322   5.097   5.843 -0.4531  0.1852  0.1290
   13RES   H108 3492   1.308   5.244   5.567 -2.1176  1.5375  0.0958
   13RES   H109 3493   1.484   5.330   5.797  0.4244 -1.2183  0.1451
   13RES   H110 3494   1.421   5.444   5.698  0.5882  1.1531  0.5611
   13RES   H111 3495   1.696   5.454   5.680  1.8691  0.1328 -0.8832
   13RES   H112 3496   1.599   5.508   5.555 -3.6789 -1.6660  2.1132
   13RES   H113 3497   1.713   5.379   5.516  0.5538 -0.7571  1.0066
   13RES   O114 3498   1.219   5.309   5.744 -0.4782  0.2355  0.0363
   13RES   C115 3499   1.079   5.296   5.701 -0.6854 -0.6016  0.1666
   13RES   C116 3500   0.992   5.408   5.751  0.1578  0.5020 -0.3016
   13RES   C117 3501   0.859   5.419   5.683  0.0078  0.2656  0.6094
   13RES   O118 3502   0.814   5.551   5.665 -0.0825  0.0513 -0.1155
   13RES   C119 3503   0.749   5.600   5.784 -0.2711 -0.6802 -0.2210
   13RES   H120 3504   1.090   5.306   5.593 -2.3907  0.0439  0.0523
   13RES   H121 3505   1.040   5.197   5.724  1.7325 -1.6144  0.1035
   13RES   H122 3506   1.049   5.500   5.742  1.4782  0.1424  3.2703
   13RES   H123 3507   0.882   5.385   5.582  0.3162  0.9005  0.4619
   13RES   H124 3508   0.788   5.348   5.723 -0.6515  0.5167 -0.1112
   13RES   H125 3509   0.720   5.704   5.764  0.6551 -0.2081  0.8148
   13RES   H126 3510   0.825   5.618   5.860 -1.8830  1.6356  0.9194
   13RES   H127 3511   0.675   5.536   5.830 -0.5921 -1.9031 -2.3624
   13RES   O128 3512   0.970   5.396   5.898  0.8690  0.5633  0.6914
   13RES   C129 3513   1.062   5.472   5.969  0.1313 -0.0757  0.3262
   13RES   C130 3514   1.054   5.451   6.119 -0.5243  0.6271 -0.9210
   13RES   C131 3515   1.115   5.560   6.210  0.6801  0.8431  0.0501
   13RES   O132 3516   1.078   5.548   6.344 -0.4623 -0.1753  0.1495
   13RES   C133 3517   1.141   5.645   6.428  0.4072  0.4160 -0.1398
   13RES   H134 3518   1.164   5.454   5.935 -0.3909  0.3444 -1.4719
   13RES   H135 3519   1.034   5.576   5.953  0.1844 -0.3861 -1.8668
   13RES   H136 3520   0.950   5.442   6.152 -0.2564  1.5088  0.2196
   13RES   H137 3521   1.062   5.643   6.164  2.6223  1.9121 -0.2822
   13RES   H138 3522   1.221   5.584   6.201  0.8086  0.3213  0.1530
   13RES   H139 3523   1.097   5.745   6.428  0.3999  0.4269  1.3966
   13RES   H140 3524   1.137   5.617   6.533  0.3430  0.6403 -0.0804
   13RES   H141 3525   1.247   5.653   6.404  0.4573 -0.0096 -0.0585
   13RES   O142 3526   1.117   5.327   6.157  0.7173 -0.1394 -0.1384
   13RES   C143 3527   1.047   5.213   6.120 -0.2396 -0.1001 -0.0978
   13RES   C144 3528   1.093   5.095   6.215  0.0655 -0.1724 -0.1288
   13RES   C145 3529   1.082   4.959   6.146 -0.7581  0.6336 -0.1271
   13RES   O146 3530   1.150   4.848   6.212  0.3413  0.4793  0.3510
   13RES   C147 3531   1.179   4.738   6.127  0.2405 -0.1232  0.0535
   13RES   H148 3532   0.940   5.226   6.131 -0.1442  1.2923 -0.6835
   13RES   H149 3533   1.070   5.181   6.019  0.3995 -0.4534  0.1522
   13RES   H150 3534   1.198   5.117   6.229  0.2167 -1.5077  0.9114
   13RES   H151 3535   1.127   4.966   6.047 -0.7986 -3.5536 -0.5319
   13RES   H152 3536   0.975   4.941   6.140 -1.3664  3.6230  0.7136
   13RES   H153 3537   1.083   4.723   6.076 -0.3271  0.0087  1.0733
   13RES   H154 3538   1.209   4.656   6.191 -0.4884 -0.0220  0.5277
   13RES   H155 3539   1.258   4.766   6.058 -0.3254  0.3753 -0.4054
   13RES   O156 3540   1.020   5.081   6.338 -0.2902  0.0818  0.2801
   13RES   C157 3541   1.025   5.202   6.417  0.7548  0.2411 -0.7082
   13RES   C158 3542   0.969   5.181   6.560  0.1363  0.2036 -0.3582
   13RES   C159 3543   0.967   5.321   6.631  0.1969  0.7693  0.3612
   13RES   O160 3544   0.884   5.324   6.741 -0.0743  0.4315 -0.3049
   13RES   C161 3545   0.750   5.321   6.705 -0.1204 -0.1604 -0.7999
   13RES   H162 3546   1.123   5.248   6.426  0.3195  0.9346  0.5900
   13RES   H163 3547   0.953   5.269   6.369  1.0782  1.0896 -0.0234
   13RES   H164 3548   0.868   5.147   6.536  0.9551 -2.2177 -0.4674
   13RES   H165 3549   1.063   5.352   6.673  0.3557 -0.9583  1.3197
   13RES   H166 3550   0.951   5.398   6.556 -1.5052 -1.1564 -1.3354
   13RES   H167 3551   0.718   5.353   6.606 -0.2414 -0.8589 -0.9930
   13RES   H168 3552   0.686   5.377   6.773 -1.9058 -4.2586  1.1020
   13RES   H169 3553   0.710   5.219   6.706  0.0904 -0.2704  2.2712
   13RES   O170 3554   1.039   5.084   6.638  0.4709 -0.0412 -0.2271
   13RES   C171 3555   0.967   5.011   6.732  0.1676  0.2554 -0.0365
   13RES   C172 3556   1.046   4.919   6.824 -0.8477 -1.1253 -0.0465
   13RES   C173 3557   0.969   4.822   6.909 -0.0941  0.6783  0.3678
   13RES   O174 3558   0.871   4.891   6.991 -0.2401  0.0399 -0.1881
   13RES   C175 3559   0.797   4.797   7.069 -0.4445  0.0751 -0.3704
   13RES   H176 3560   0.894   4.950   6.680 -0.0751  0.7970 -0.3397
   13RES   H177 3561   0.903   5.074   6.795 -1.9833 -0.6277 -1.2812
   13RES   H178 3562   1.107   4.866   6.750 -0.5625  0.6250 -1.0984
   13RES   H179 3563   0.906   4.761   6.844  1.4447  0.4243 -0.9170
   13RES   H180 3564   1.031   4.749   6.963 -0.6270 -0.5200 -0.6095
   13RES   H181 3565   0.727   4.754   6.997 -0.5078  1.4472 -1.1527
   13RES   H182 3566   0.743   4.855   7.144  0.9019 -0.3192  0.9156
   13RES   H183 3567   0.849   4.716   7.119 -1.0481  0.6701  1.2395
   13RES   O184 3568   1.148   4.990   6.898 -0.4517  0.0233 -1.2581
   13RES   C185 3569   1.107   5.065   7.009  0.0982 -0.5206  0.2458
   13RES   C186 3570   1.235   5.134   7.069 -0.0765  0.3234  0.5901
   13RES   C187 3571   1.213   5.167   7.219  0.0537 -0.4132  0.5737
   13RES   O188 3572   1.338   5.183   7.284  0.5729  0.5144 -0.0743
   13RES   C189 3573   1.393   5.065   7.332  0.3973  0.1255 -0.4884
   13RES   H190 3574   1.073   4.999   7.088  0.2099 -0.5761  0.2473
   13RES   H191 3575   1.025   5.133   6.988 -1.9092 -1.9576  3.2076
   13RES   H192 3576   1.316   5.061   7.058  0.4971  0.9751  0.4800
   13RES   H193 3577   1.161   5.083   7.265 -1.3397  0.8852  1.3881
   13RES   H194 3578   1.148   5.253   7.233 -0.0046 -0.2193 -0.8388
   13RES   H195 3579   1.483   5.099   7.382 -0.5109 -0.3309  1.5268
   13RES   H196 3580   1.329   5.020   7.408 -1.1992 -0.4246 -2.1177
   13RES   H197 3581   1.419   5.005   7.245 -1.5655  0.2933 -1.2190
   13RES   O198 3582   1.265   5.255   6.999  0.0787 -0.4166 -0.2831
   13RES   C199 3583   1.316   5.235   6.865 -0.6225 -0.6047 -0.1781
   13RES   C200 3584   1.372   5.369   6.809  0.2399 -0.1118 -0.5839
   13RES   C201 3585   1.426   5.339   6.665 -0.2241  0.4987  0.3693
   13RES   O202 3586   1.400   5.453   6.575 -0.2304  0.5239 -0.2070
   13RES   C203 3587   1.480   5.441   6.459  0.0810 -0.0153  0.0332
   13RES   H204 3588   1.240   5.193   6.799 -2.5157  0.5595  1.1981
   13RES   H205 3589   1.397   5.162   6.863  0.2901  0.2699  2.2820
   13RES   H206 3590   1.294   5.445   6.814  2.3701  2.2463 -1.9525
   13RES   H207 3591   1.534   5.322   6.674 -0.4939 -1.0101  0.8669
   13RES   H208 3592   1.377   5.255   6.618  0.9344 -1.0504  1.8777
   13RES   H209 3593   1.581   5.412   6.486  0.1149  1.2823  1.4172
   13RES   H210 3594   1.480   5.537   6.409 -2.3244 -0.6309 -1.2229
   13RES   H211 3595   1.433   5.367   6.395  2.3070 -1.4346 -0.0278
   13RES   O212 3596   1.480   5.414   6.887 -0.1252 -0.0063  1.4822
   13RES   C213 3597   1.505   5.551   6.883 -0.1913  0.3369 -0.4660
   13RES   C214 3598   1.593   5.602   7.003 -0.0218  0.5015 -0.2034
   13RES   C215 3599   1.582   5.750   7.023  0.0295 -0.4196  0.2598
   13RES   O216 3600   1.532   5.788   7.150  0.0210 -0.1754  0.4636
   13RES   C217 3601   1.396   5.765   7.160 -0.3760  0.0334 -0.0797
   13RES   H218 3602   1.407   5.593   6.904 -0.6753 -0.6230 -0.7633
   13RES   H219 3603   1.545   5.590   6.790  0.2767 -0.1132 -0.4578
   13RES   H220 3604   1.570   5.551   7.097  1.6145  0.8566  0.4007
   13RES   H221 3605   1.680   5.789   6.994  0.1011 -0.5721  0.2913
   13RES   H222 3606   1.532   5.798   6.940 -0.1406  1.5824  1.4896
   13RES   H223 3607   1.366   5.805   7.257 -0.5462 -3.2021  1.2936
   13RES   H224 3608   1.378   5.657   7.152 -0.7196 -0.2500  3.6816
   13RES   H225 3609   1.335   5.820   7.089 -0.4999 -2.5096 -2.0434
   13RES   O226 3610   1.730   5.575   6.966 -0.1444 -0.2855  0.9457
   13RES   C227 3611   1.774   5.442   6.981 -0.2352 -0.4580 -0.5781
   13RES   C228 3612   1.925   5.438   6.982  0.4406 -0.0230  0.2851
   13RES   C229 3613   1.979   5.472   7.124 -0.3378  0.1767 -1.0250
   13RES   O230 3614   2.119   5.502   7.133 -0.2343  0.3071 -0.4452
   13RES   C231 3615   2.185   5.493   7.260  0.2342  0.2900  0.0766
   13RES   H232 3616   1.736   5.382   6.898 -2.1033 -1.3576  0.8994
   13RES   H233 3617   1.735   5.403   7.075  0.1772 -1.5901 -0.8739
   13RES   H234 3618   1.972   5.503   6.908 -0.8334 -0.3968 -0.8874
   13RES   H235 3619   1.952   5.386   7.185 -0.9169  1.8590  1.1548
   13RES   H236 3620   1.935   5.562   7.166  2.0510  1.2858 -0.7915
   13RES   H237 3621   2.280   5.543   7.245  0.3366 -0.2540 -1.1552
   13RES   H238 3622   2.209   5.388   7.279  0.4284  0.5281  1.1626
   13RES   H239 3623   2.131   5.536   7.344  0.1256 -2.0678  1.2575
   13RES   O240 3624   1.955   5.300   6.963 -0.0933  0.4897 -0.2888
   13RES   C241 3625   2.095   5.275   6.941 -0.2622 -0.4693 -0.1498
   13RES   C242 3626   2.117   5.140   6.869 -0.1948  0.6685 -0.1494
   13RES   C243 3627   2.246   5.142   6.787 -0.1619  0.1390 -0.2955
   13RES   O244 3628   2.307   5.012   6.767 -0.4108  0.1315 -0.2381
   13RES   C245 3629   2.423   5.028   6.681  0.5526  0.7582  0.1366
   13RES   H246 3630   2.158   5.294   7.027  1.1232  0.1629 -1.2848
   13RES   H247 3631   2.136   5.350   6.873 -1.3664  0.3308  0.0611
   13RES   H248 3632   2.036   5.117   6.800  0.3559  2.6953 -1.5261
   13RES   H249 3633   2.221   5.189   6.692  0.4265 -1.2224 -1.1488
   13RES   H250 3634   2.325   5.201   6.834  1.8534 -0.8241 -2.3698
   13RES   H251 3635   2.405   5.070   6.582  0.5836  1.8502  0.5897
   13RES   H252 3636   2.468   4.931   6.666  1.2477  0.8608  1.4468
   13RES   H253 3637   2.496   5.092   6.731  1.5531  1.0052 -1.6282
   13RES   O254 3638   2.131   5.041   6.979  0.0514 -0.2163  0.3563
   13RES   C255 3639   2.013   4.966   7.006  0.0098  0.3530 -0.8837
   13RES   C256 3640   2.014   4.834   6.928  0.4834 -0.2971 -0.1822
   13RES   C257 3641   1.903   4.743   6.979 -0.6941 -0.1512 -0.0303
   13RES   O258 3642   1.908   4.609   6.919  0.0954 -0.3579 -0.1125
   13RES   C259 3643   1.811   4.524   6.971  0.6273 -0.3482 -0.0175
   13RES   H260 3644   2.002   4.946   7.112  0.5437 -1.0950 -1.0838
   13RES   H261 3645   1.929   5.034   6.988 -0.9221  0.0317  2.0295
   13RES   H262 3646   2.110   4.785   6.917  2.4889  3.6661 -1.3816
   13RES   H263 3647   1.928   4.730   7.084 -0.5983 -0.8141 -0.1339
   13RES   H264 3648   1.806   4.790   6.974 -0.6114 -0.0308 -0.4966
   13RES   H265 3649   1.710   4.565   6.966  0.5933 -0.4913 -0.4972
   13RES   H266 3650   1.829   4.497   7.075  2.3246  2.5530  0.5006
   13RES   H267 3651   1.809   4.438   6.905 -1.3329  0.0174 -0.4845
   13RES   O268 3652   1.957   4.892   6.810 -0.1452 -0.7731 -0.6278
   13RES   C269 3653   2.010   4.852   6.684 -0.7696 -0.2027 -0.4885
   13RES   C270 3654   1.950   4.939   6.573  0.7157  0.3685  0.6062
   13RES   C271 3655   2.013   4.899   6.440  0.4435  0.8406  0.8479
   13RES   O272 3656   2.016   5.004   6.346 -0.0241  0.4696 -0.3154
   13RES   C273 3657   1.898   5.004   6.272 -0.2168 -0.3058 -0.1524
   13RES   H274 3658   1.975   4.748   6.684  1.0081 -0.8244 -2.0018
   13RES   H275 3659   2.118   4.859   6.692 -0.8117  1.2250 -1.1563
   13RES   H276 3660   1.843   4.921   6.565  0.7506  1.1294 -2.1110
   13RES   H277 3661   1.978   4.806   6.394 -0.7340  1.3083  0.8067
   13RES   H278 3662   2.120   4.877   6.451  0.2491 -0.2937  0.5559
   13RES   H279 3663   1.909   4.926   6.196 -1.3514 -0.4853 -0.1334
   13RES   H280 3664   1.899   5.103   6.226 -0.0067 -0.2369  0.0017
   13RES   H281 3665   1.806   4.990   6.328  0.1665 -3.8001 -0.2908
   13RES   H282 3666   1.970   5.046   6.583 -2.0425  0.5854  5.6731
   14RES     O1 3667   3.946   5.585   4.320 -0.0753  0.1091  0.4237
   14RES     C2 3668   3.810   5.578   4.287 -0.7861  0.0020 -1.0409
   14RES     C3 3669   3.779   5.484   4.174  0.4073 -0.6698  0.1283
   14RES     C4 3670   3.628   5.480   4.134  0.0632 -0.9384  0.4404
   14RES     O5 3671   3.612   5.377   4.039  0.4296 -0.2646  0.1813
   14RES     C6 3672   3.485   5.375   3.973 -0.4679 -0.9034  0.1329
   14RES     H7 3673   3.762   5.540   4.377  0.2538 -0.6423 -0.7519
   14RES     H8 3674   3.777   5.682   4.278  0.1527  0.3923 -0.1258
   14RES     H9 3675   3.809   5.382   4.199 -1.8836 -0.7746  2.7192
   14RES    H10 3676   3.587   5.572   4.093  2.7349  0.1624  0.0916
   14RES    H11 3677   3.576   5.445   4.223  0.6178 -3.9565 -0.3365
   14RES    H12 3678   3.423   5.325   4.047  0.1365 -1.1869  0.4503
   14RES    H13 3679   3.446   5.471   3.938 -2.0371 -1.5418  0.0999
   14RES    H14 3680   3.492   5.303   3.891 -2.7562 -0.4214 -0.4997
   14RES    H15 3681   3.981   5.503   4.290 -2.4834 -1.6469  2.1837
   14RES    O16 3682   3.868   5.536   4.076  0.6647  0.3188  0.4004
   14RES    C17 3683   3.848   5.504   3.941  0.9084 -0.3729  0.2862
   14RES    C18 3684   3.976   5.533   3.868  0.5588  0.6802  0.3036
   14RES    C19 3685   3.967   5.476   3.725 -0.4770  0.4967  0.7396
   14RES    O20 3686   4.095   5.466   3.670  0.0378 -0.6145 -0.2028
   14RES    C21 3687   4.089   5.433   3.530  0.1007 -0.6466  0.2095
   14RES    H22 3688   3.763   5.560   3.901  0.3552 -1.4804 -0.1150
   14RES    H23 3689   3.841   5.395   3.933 -0.2696 -0.2179 -1.0705
   14RES    H24 3690   4.056   5.480   3.922 -1.4562 -1.7781  0.9654
   14RES    H25 3691   3.913   5.381   3.721  0.8178 -0.2500  0.7790
   14RES    H26 3692   3.906   5.542   3.663  0.5827 -0.6034 -1.5131
   14RES    H27 3693   4.188   5.405   3.495  0.6114  0.1295  0.9956
   14RES    H28 3694   4.044   5.514   3.471 -0.7306 -1.7229 -0.6465
   14RES    H29 3695   4.029   5.343   3.518  2.3429 -2.1517  0.1865
   14RES    O30 3696   4.002   5.665   3.879 -0.4644 -0.7488 -0.7280
   14RES    C31 3697   4.127   5.712   3.840  0.2553  0.2199 -0.7032
   14RES    C32 3698   4.165   5.848   3.899  0.4493 -0.2426  0.1506
   14RES    C33 3699   4.279   5.893   3.811 -0.3177 -0.3402 -0.1383
   14RES    O34 3700   4.363   5.983   3.870  0.0655  0.3132 -0.1390
   14RES    C35 3701   4.315   6.114   3.860  0.2837  0.0086 -0.4694
   14RES    H36 3702   4.195   5.636   3.879 -0.8018  0.9382  2.7017
   14RES    H37 3703   4.118   5.714   3.731  0.3830 -0.5141 -0.7319
   14RES    H38 3704   4.084   5.920   3.900  0.5321 -0.0397 -3.0192
   14RES    H39 3705   4.243   5.936   3.717 -0.7010  0.3998  0.3391
   14RES    H40 3706   4.341   5.811   3.776  3.2702  1.4489  1.7570
   14RES    H41 3707   4.321   6.150   3.757 -2.1478  0.2393 -0.5438
   14RES    H42 3708   4.379   6.186   3.911  1.7903 -0.8306 -1.1007
   14RES    H43 3709   4.215   6.132   3.899  0.6369  1.4897 -0.2294
   14RES    O44 3710   4.223   5.834   4.031 -0.2812 -0.2019  0.3630
   14RES    C45 3711   4.134   5.810   4.140  0.4167 -0.1607  0.6062
   14RES    C46 3712   4.070   5.941   4.199 -0.5944 -0.1548 -0.0611
   14RES    C47 3713   4.185   6.037   4.238 -0.1641 -0.0637  0.6375
   14RES    O48 3714   4.138   6.133   4.334  0.2632  0.2356 -0.2675
   14RES    C49 3715   4.240   6.224   4.387 -0.2022 -0.2941 -0.0752
   14RES    H50 3716   4.195   5.759   4.214  2.2745 -1.6274 -1.8927
   14RES    H51 3717   4.057   5.735   4.119 -0.2486 -0.1052  2.6875
   14RES    H52 3718   4.011   5.921   4.289 -3.0940  0.3347 -1.5412
   14RES    H53 3719   4.267   5.980   4.282  0.4100  0.1038 -0.1993
   14RES    H54 3720   4.225   6.093   4.153  0.3876 -1.4733 -0.0530
   14RES    H55 3721   4.187   6.278   4.465 -1.3828 -1.5953  0.0600
   14RES    H56 3722   4.276   6.306   4.326  0.8600  0.7151  1.8565
   14RES    H57 3723   4.320   6.175   4.443 -0.3420 -2.1672 -1.4732
   14RES    O58 3724   3.971   6.005   4.114  0.3803 -0.0902 -0.3609
   14RES    C59 3725   3.854   5.928   4.100  0.0481  0.8806 -0.7826
   14RES    C60 3726   3.747   6.004   4.017 -0.4655 -0.4729 -0.5894
   14RES    C61 3727   3.602   5.955   4.032  0.2472 -0.2743  0.3000
   14RES    O62 3728   3.592   5.816   4.009  0.0178 -0.2185 -0.0521
   14RES    C63 3729   3.532   5.778   3.884  0.2318  0.3879 -0.4292
   14RES    H64 3730   3.818   5.913   4.202 -0.5694 -2.6784 -1.4483
   14RES    H65 3731   3.866   5.827   4.059 -2.4655  0.2823 -0.1491
   14RES    H66 3732   3.753   6.108   4.051  1.1236 -1.5427  2.5772
   14RES    H67 3733   3.576   5.973   4.136 -0.7024  0.3517 -0.0299
   14RES    H68 3734   3.529   6.023   3.987 -0.3683 -0.0738  1.5749
   14RES    H69 3735   3.534   5.670   3.868 -0.3821  0.6022 -2.0752
   14RES    H70 3736   3.577   5.825   3.797 -2.5262  2.8487 -0.5995
   14RES    H71 3737   3.427   5.808   3.884  0.1618  0.1833  0.6652
   14RES    O72 3738   3.773   6.005   3.883 -0.3665  0.2304 -0.3938
   14RES    C73 3739   3.714   6.109   3.808 -0.1655 -0.3154  0.7344
   14RES    C74 3740   3.798   6.159   3.686  0.5403 -0.0020  0.7481
   14RES    C75 3741   3.757   6.302   3.650 -0.4945 -0.0370 -0.1436
   14RES    O76 3742   3.834   6.398   3.721  0.7124  0.5869  0.0526
   14RES    C77 3743   3.844   6.518   3.650 -0.1153  0.2755 -0.3249
   14RES    H78 3744   3.619   6.073   3.771 -0.0245 -1.3820  1.3954
   14RES    H79 3745   3.696   6.198   3.868 -1.3443 -0.3676  0.4639
   14RES    H80 3746   3.901   6.156   3.721  0.1907  2.1694  2.0491
   14RES    H81 3747   3.650   6.305   3.671 -0.0113 -1.8176  2.8954
   14RES    H82 3748   3.779   6.310   3.543  0.4328 -1.3081 -0.0687
   14RES    H83 3749   3.747   6.543   3.605  0.1771  0.7331 -0.7061
   14RES    H84 3750   3.922   6.514   3.575 -1.3977 -0.4240 -1.6555
   14RES    H85 3751   3.868   6.606   3.709 -1.7560  1.6082 -1.5749
   14RES    O86 3752   3.786   6.070   3.574  0.1044 -0.2704 -0.3952
   14RES    C87 3753   3.840   5.943   3.588 -0.2310 -0.1343  0.4777
   14RES    C88 3754   3.910   5.898   3.458  0.6596 -0.4167  0.0442
   14RES    C89 3755   4.056   5.861   3.493 -0.3767  0.0544 -0.7338
   14RES    O90 3756   4.135   5.871   3.378  0.1132  0.3218 -0.3837
   14RES    C91 3757   4.269   5.828   3.382  0.1449 -0.4381  0.5447
   14RES    H92 3758   3.911   5.935   3.671  2.4788  0.5738 -1.6938
   14RES    H93 3759   3.752   5.886   3.616 -0.1652 -0.5981 -0.2408
   14RES    H94 3760   3.911   5.982   3.388  2.8893  0.3513  0.9523
   14RES    H95 3761   4.094   5.931   3.569  1.5139 -2.3193  0.5951
   14RES    H96 3762   4.051   5.757   3.525  1.2834  0.1705  0.0110
   14RES    H97 3763   4.255   5.728   3.421  2.4021 -1.9311 -2.2692
   14RES    H98 3764   4.318   5.811   3.286  1.6866 -3.0077  1.7438
   14RES    H99 3765   4.337   5.889   3.441 -1.0931 -0.7155  2.2770
   14RES   O100 3766   3.839   5.786   3.402 -0.5057  0.3154  0.3276
   14RES   C101 3767   3.728   5.827   3.319 -0.4727 -0.4130 -0.1625
   14RES   C102 3768   3.653   5.696   3.275  0.2988 -0.1070  0.9540
   14RES   C103 3769   3.565   5.729   3.150  0.3189 -0.3541 -0.3208
   14RES   O104 3770   3.541   5.605   3.074 -0.2137  0.0786 -0.0745
   14RES   C105 3771   3.430   5.531   3.123  0.7007 -0.2054 -0.3014
   14RES   H106 3772   3.770   5.887   3.238  1.7329 -0.1296  1.1365
   14RES   H107 3773   3.667   5.906   3.363 -1.4077 -1.1894 -0.0402
   14RES   H108 3774   3.725   5.622   3.240 -1.6077 -0.9165 -1.4377
   14RES   H109 3775   3.617   5.796   3.082  0.6221 -1.8150 -1.5649
   14RES   H110 3776   3.474   5.785   3.172  0.0249 -0.7358 -0.5714
   14RES   H111 3777   3.432   5.441   3.060 -0.6704  1.3904 -2.7003
   14RES   H112 3778   3.332   5.574   3.103 -0.1552 -0.7752  2.5525
   14RES   H113 3779   3.440   5.501   3.227  0.1984  1.4612  0.2378
   14RES   O114 3780   3.568   5.640   3.369  0.6099 -0.3553  0.3042
   14RES   C115 3781   3.627   5.567   3.474  0.8904 -0.2384  0.2462
   14RES   C116 3782   3.525   5.468   3.537  0.5773  0.3943 -0.7815
   14RES   C117 3783   3.590   5.353   3.605  0.2925  0.3300 -0.3238
   14RES   O118 3784   3.501   5.260   3.643  0.1243 -0.0426  0.2729
   14RES   C119 3785   3.545   5.134   3.674 -0.7714 -0.3888  0.4010
   14RES   H120 3786   3.717   5.515   3.440  0.6986 -2.1834  2.6179
   14RES   H121 3787   3.664   5.641   3.545 -0.0700 -0.0708  0.5711
   14RES   H122 3788   3.468   5.416   3.460  0.5313 -1.3064  0.3701
   14RES   H123 3789   3.661   5.315   3.531  0.1907 -2.0511  0.7548
   14RES   H124 3790   3.653   5.391   3.686 -2.6409  0.9427  1.7546
   14RES   H125 3791   3.624   5.143   3.748  2.0197 -3.4489 -2.1009
   14RES   H126 3792   3.594   5.076   3.596 -0.3729  1.1397 -0.5060
   14RES   H127 3793   3.464   5.073   3.715 -0.6312 -1.2569 -0.6139
   14RES   O128 3794   3.453   5.534   3.646  0.1058  0.4939  0.3008
   14RES   C129 3795   3.356   5.630   3.601 -0.0843 -0.0594 -0.2324
   14RES   C130 3796   3.233   5.575   3.528  0.2688  0.1059 -0.0391
   14RES   C131 3797   3.161   5.689   3.456 -0.2152  0.1477 -0.1510
   14RES   O132 3798   3.059   5.646   3.357  0.2934 -0.7435 -0.4181
   14RES   C133 3799   3.001   5.754   3.287  0.1409  0.0645 -0.4430
   14RES   H134 3800   3.322   5.688   3.687 -0.7359  0.4118 -0.8042
   14RES   H135 3801   3.413   5.705   3.546  0.0200  0.0828  0.0657
   14RES   H136 3802   3.262   5.500   3.454 -0.1195  0.9931 -1.1105
   14RES   H137 3803   3.231   5.759   3.410 -1.4361  1.0840 -0.6282
   14RES   H138 3804   3.108   5.748   3.532  0.8526  0.9353 -0.0064
   14RES   H139 3805   2.943   5.816   3.356  2.4121  1.6572  0.0987
   14RES   H140 3806   3.072   5.826   3.246  1.1578 -0.7740 -0.1793
   14RES   H141 3807   2.935   5.719   3.208  0.4978  0.0171 -0.7151
   14RES   O142 3808   3.153   5.520   3.624  0.4688 -0.0501 -0.3291
   14RES   C143 3809   3.195   5.396   3.677  0.5012  0.5660  0.5146
   14RES   C144 3810   3.081   5.318   3.739  0.1790 -0.4221  0.2586
   14RES   C145 3811   3.131   5.188   3.804  0.7157  0.1444  0.3216
   14RES   O146 3812   3.084   5.177   3.939  0.3607 -0.2366 -0.3991
   14RES   C147 3813   3.170   5.082   4.006  0.0356 -0.1885 -0.0077
   14RES   H148 3814   3.244   5.339   3.598  2.3577 -0.3010  2.2359
   14RES   H149 3815   3.273   5.421   3.750  0.2719 -1.5164  1.5059
   14RES   H150 3816   3.039   5.384   3.815  0.6016 -0.1268  0.2419
   14RES   H151 3817   3.238   5.202   3.817  0.5568  1.5759  0.2177
   14RES   H152 3818   3.124   5.099   3.741  0.6825 -0.1084  0.6801
   14RES   H153 3819   3.277   5.072   3.990 -0.5009 -1.2508 -3.6329
   14RES   H154 3820   3.129   4.982   3.987 -1.0726  0.2770 -0.1087
   14RES   H155 3821   3.155   5.102   4.112 -1.7034 -0.6157 -0.1473
   14RES   O156 3822   2.988   5.285   3.634 -0.6030 -0.0854 -0.0258
   14RES   C157 3823   2.870   5.355   3.642 -0.3105  0.0676  0.3838
   14RES   C158 3824   2.826   5.390   3.493  0.0977  1.0604 -0.1660
   14RES   C159 3825   2.709   5.496   3.490  0.5664  0.3007 -0.2719
   14RES   O160 3826   2.678   5.528   3.354  0.1638  0.9297  0.4112
   14RES   C161 3827   2.574   5.625   3.351 -0.0227  0.5032  0.3813
   14RES   H162 3828   2.794   5.316   3.711 -0.8498  0.0180 -0.2343
   14RES   H163 3829   2.885   5.455   3.681 -0.7628  1.2730 -2.4422
   14RES   H164 3830   2.906   5.434   3.433 -0.0550 -0.8397 -1.8100
   14RES   H165 3831   2.626   5.450   3.544  2.4162  0.6663  3.0391
   14RES   H166 3832   2.743   5.583   3.547  1.0468  0.7835 -1.2816
   14RES   H167 3833   2.598   5.700   3.426  0.5862  2.7697 -2.0304
   14RES   H168 3834   2.474   5.581   3.344  1.4502 -2.5419 -3.3622
   14RES   H169 3835   2.592   5.665   3.251  1.8750 -1.1759  0.0155
   14RES   O170 3836   2.784   5.278   3.422  0.3327  0.0034  0.3096
   14RES   C171 3837   2.673   5.200   3.471  0.8262  0.0212  0.3845
   14RES   C172 3838   2.674   5.054   3.414  0.3022 -0.4479 -0.0039
   14RES   C173 3839   2.533   4.984   3.419 -0.1653 -0.0755 -0.1121
   14RES   O174 3840   2.533   4.871   3.338 -0.6190 -0.2798  0.6588
   14RES   C175 3841   2.415   4.791   3.357  0.2418  0.2959  0.2790
   14RES   H176 3842   2.582   5.258   3.460  0.4491  0.0886  3.3725
   14RES   H177 3843   2.673   5.200   3.580  1.3062 -0.1345  0.3864
   14RES   H178 3844   2.699   5.056   3.308 -1.0135  1.0801 -0.3082
   14RES   H179 3845   2.501   4.960   3.520 -0.4195  1.3645  0.1719
   14RES   H180 3846   2.461   5.054   3.375  1.6229  1.8829  0.0143
   14RES   H181 3847   2.396   4.755   3.458 -1.4681 -0.5190 -0.3217
   14RES   H182 3848   2.430   4.698   3.302 -0.8537 -0.8664  1.9106
   14RES   H183 3849   2.327   4.841   3.318  1.0536  0.5744 -1.2620
   14RES   O184 3850   2.755   4.967   3.489  0.1167 -0.4581  0.7966
   14RES   C185 3851   2.891   4.961   3.439 -0.8528  0.0916  0.1139
   14RES   C186 3852   2.950   4.814   3.464 -0.1235 -0.3807  0.3408
   14RES   C187 3853   3.103   4.811   3.510 -0.1494 -0.2124 -0.0991
   14RES   O188 3854   3.185   4.873   3.414 -0.2865  0.1615 -0.0140
   14RES   C189 3855   3.243   4.775   3.331  0.1202 -0.1754  0.0192
   14RES   H190 3856   2.946   5.038   3.493 -0.4420 -1.5229  2.0672
   14RES   H191 3857   2.901   4.993   3.336  2.3162 -0.7371  0.1150
   14RES   H192 3858   2.888   4.780   3.547 -2.9191  0.3337 -1.3523
   14RES   H193 3859   3.132   4.708   3.531 -0.1973  0.1015  1.5636
   14RES   H194 3860   3.126   4.873   3.597  2.8365 -0.8742 -0.3576
   14RES   H195 3861   3.181   4.689   3.306 -0.1283  0.5439 -1.9239
   14RES   H196 3862   3.296   4.813   3.243  1.8821 -0.7235  0.8293
   14RES   H197 3863   3.325   4.734   3.391 -0.7101  1.7136  2.5157
   14RES   O198 3864   2.942   4.717   3.361 -0.0277 -0.1326 -0.1719
   14RES   C199 3865   2.819   4.690   3.307  1.1843  0.2608 -0.3506
   14RES   C200 3866   2.831   4.631   3.161 -0.0008 -1.2177  0.3967
   14RES   C201 3867   2.736   4.705   3.065 -0.8893 -0.0927  0.2500
   14RES   O202 3868   2.756   4.692   2.927 -0.6107 -0.2125  0.6950
   14RES   C203 3869   2.677   4.587   2.867 -0.5142  0.4032  0.7156
   14RES   H204 3870   2.763   4.784   3.303  2.0412  0.7696 -0.4050
   14RES   H205 3871   2.769   4.621   3.374  0.2661  1.2148 -0.0271
   14RES   H206 3872   2.936   4.638   3.134 -0.8891 -0.1525 -2.9758
   14RES   H207 3873   2.631   4.698   3.094 -0.9290  0.6371  0.2864
   14RES   H208 3874   2.768   4.808   3.080  3.8020 -1.8361  3.6740
   14RES   H209 3875   2.573   4.583   2.898 -0.8276 -1.8107 -0.5588
   14RES   H210 3876   2.710   4.484   2.884 -1.0789 -0.2059 -1.7016
   14RES   H211 3877   2.677   4.613   2.761 -2.6555  0.7252  0.7803
   14RES   O212 3878   2.788   4.497   3.143  0.0439 -0.4154  0.3232
   14RES   C213 3879   2.868   4.398   3.215 -0.5492  0.3198 -0.1231
   14RES   C214 3880   2.865   4.266   3.144  0.2162  0.6019  0.2796
   14RES   C215 3881   2.878   4.149   3.241 -0.6218 -0.2904  0.5459
   14RES   O216 3882   3.014   4.139   3.283  0.4683  0.3248  0.1006
   14RES   C217 3883   3.025   4.039   3.387  0.3147  0.1703 -0.5326
   14RES   H218 3884   2.805   4.383   3.302 -1.5650 -1.8710 -1.1980
   14RES   H219 3885   2.966   4.428   3.251 -0.0619  1.3122 -2.1678
   14RES   H220 3886   2.766   4.256   3.099  1.1394  1.2576 -1.9960
   14RES   H221 3887   2.808   4.169   3.322 -1.3920  0.4754 -0.2847
   14RES   H222 3888   2.849   4.054   3.195 -1.3801 -0.3931  1.2350
   14RES   H223 3889   2.963   4.086   3.463  0.0311  0.1868 -0.7741
   14RES   H224 3890   3.131   4.043   3.413  0.0266  1.2356  0.5136
   14RES   H225 3891   2.978   3.944   3.363  1.8576 -1.3997  2.3444
   14RES   O226 3892   2.957   4.245   3.048 -0.3856  0.5182  0.5021
   14RES   C227 3893   2.953   4.311   2.925  0.3530 -0.4213  0.3154
   14RES   C228 3894   3.071   4.270   2.835 -0.1525  0.8653  0.6419
   14RES   C229 3895   3.035   4.313   2.693 -0.0774 -0.5529  0.0218
   14RES   O230 3896   3.149   4.291   2.609  0.5625 -0.2117 -0.2484
   14RES   C231 3897   3.120   4.324   2.475 -0.0214 -0.0152 -0.3575
   14RES   H232 3898   2.953   4.420   2.933 -0.4805 -0.3437 -0.6539
   14RES   H233 3899   2.870   4.273   2.865  0.8709 -0.1012 -0.6053
   14RES   H234 3900   3.086   4.164   2.853  1.5088  1.2376  1.5409
   14RES   H235 3901   3.018   4.420   2.710  0.9519 -0.5206  0.9529
   14RES   H236 3902   2.942   4.271   2.656 -0.9725  1.0312  0.4473
   14RES   H237 3903   3.213   4.308   2.421  1.0360  1.1897  1.0832
   14RES   H238 3904   3.097   4.431   2.474  0.4694  0.0948  0.2886
   14RES   H239 3905   3.041   4.260   2.436 -0.4663  0.7339 -0.7100
   14RES   O240 3906   3.181   4.333   2.892 -0.7054  0.1109  0.0035
   14RES   C241 3907   3.272   4.264   2.976  0.0599  0.1364 -0.0643
   14RES   C242 3908   3.413   4.324   2.982  0.1784  0.0726 -0.8642
   14RES   C243 3909   3.479   4.281   3.114  0.0246  0.1468  0.0328
   14RES   O244 3910   3.513   4.143   3.137 -0.2840 -0.6877  0.2423
   14RES   C245 3911   3.629   4.102   3.071 -0.4440 -0.6354  0.1700
   14RES   H246 3912   3.287   4.159   2.950  0.3125  0.7083 -2.3425
   14RES   H247 3913   3.225   4.279   3.073 -1.5798  0.2348 -0.8748
   14RES   H248 3914   3.409   4.433   2.986  1.4124  0.0982  0.2430
   14RES   H249 3915   3.565   4.345   3.136 -0.1722  0.4400 -0.0555
   14RES   H250 3916   3.405   4.301   3.192 -1.8676 -1.5173 -1.2838
   14RES   H251 3917   3.651   4.008   3.122  0.6867 -0.7544 -0.5178
   14RES   H252 3918   3.718   4.162   3.091 -2.6863  3.1160 -0.7664
   14RES   H253 3919   3.606   4.078   2.967 -1.9708 -5.7322  1.5222
   14RES   O254 3920   3.500   4.297   2.878 -0.3622  0.0690  0.3437
   14RES   C255 3921   3.449   4.334   2.751 -0.0124  0.5180 -0.0123
   14RES   C256 3922   3.561   4.326   2.642  0.3744 -0.0038 -0.2457
   14RES   C257 3923   3.598   4.181   2.590 -0.6091 -0.5295  0.3460
   14RES   O258 3924   3.725   4.168   2.526  0.2393 -0.8025 -0.3727
   14RES   C259 3925   3.761   4.032   2.499 -0.1603  0.4632 -0.2571
   14RES   H260 3926   3.368   4.264   2.730 -0.5894  0.2244  2.8809
   14RES   H261 3927   3.405   4.434   2.746 -0.2873  0.2529 -3.9415
   14RES   H262 3928   3.647   4.374   2.688 -0.1095  2.2065 -1.5778
   14RES   H263 3929   3.598   4.116   2.677 -1.9007 -0.7545  0.1961
   14RES   H264 3930   3.521   4.143   2.522 -0.5861  1.7066 -0.9887
   14RES   H265 3931   3.817   4.030   2.405  1.7087  0.8174  0.8098
   14RES   H266 3932   3.670   3.976   2.482  0.9982 -0.7760 -2.6482
   14RES   H267 3933   3.818   3.982   2.577 -1.2700 -1.1668 -0.4785
   14RES   O268 3934   3.507   4.403   2.537 -0.6475 -0.2136  0.1864
   14RES   C269 3935   3.599   4.462   2.449 -0.4288  0.2185  0.1962
   14RES   C270 3936   3.517   4.556   2.355 -0.6700 -0.1428 -0.0046
   14RES   C271 3937   3.524   4.702   2.417 -0.4548  0.4007  0.0310
   14RES   O272 3938   3.659   4.755   2.417 -0.2939 -0.2930 -0.0606
   14RES   C273 3939   3.664   4.880   2.485 -0.1126  0.2789 -0.6930
   14RES   H274 3940   3.644   4.382   2.390 -0.3271  2.3177 -2.7115
   14RES   H275 3941   3.687   4.498   2.501 -0.3277  0.3108 -0.0374
   14RES   H276 3942   3.565   4.556   2.257 -1.5985 -0.0479 -0.4695
   14RES   H277 3943   3.475   4.707   2.514 -1.3376 -3.2070 -0.1552
   14RES   H278 3944   3.463   4.765   2.352  1.0521  0.3936 -1.4039
   14RES   H279 3945   3.676   4.850   2.589  0.1637 -1.5322 -1.2194
   14RES   H280 3946   3.577   4.944   2.473  1.1012  2.5196  1.7291
   14RES   H281 3947   3.758   4.933   2.467 -0.4892  1.8648  1.7833
   14RES   H282 3948   3.416   4.515   2.344 -0.5112 -0.4665 -0.2463
   15RES     O1 3949   2.636   1.934   0.506  0.2585  0.2973  0.0394
   15RES     C2 3950   2.540   1.828   0.506 -0.0889 -0.2706 -0.2358
   15RES     C3 3951   2.418   1.864   0.420  0.3068 -0.4796  0.7994
   15RES     C4 3952   2.305   1.767   0.461  0.2985 -0.3707 -0.0259
   15RES     O5 3953   2.221   1.750   0.346  0.3953  0.5843  0.4486
   15RES     C6 3954   2.179   1.610   0.324 -0.7714  0.5597  0.4223
   15RES     H7 3955   2.587   1.731   0.486  2.5912  1.3161 -1.8940
   15RES     H8 3956   2.502   1.827   0.608  0.6389 -0.2917  0.0400
   15RES     H9 3957   2.437   1.858   0.313  0.1966  0.4489  0.7227
   15RES    H10 3958   2.256   1.819   0.543  1.6534  0.5990  0.1950
   15RES    H11 3959   2.345   1.670   0.489 -0.4025 -0.1832  1.6328
   15RES    H12 3960   2.264   1.558   0.279 -1.8692  0.4751 -1.6115
   15RES    H13 3961   2.153   1.561   0.418 -0.8048 -2.3841 -1.0575
   15RES    H14 3962   2.093   1.597   0.259  1.2681 -3.6032 -1.6273
   15RES    H15 3963   2.595   2.015   0.479  0.3045  0.2577 -0.1472
   15RES    O16 3964   2.377   2.001   0.457  0.6324 -0.3212  0.3503
   15RES    C17 3965   2.369   2.085   0.343  1.1139  0.0106 -0.4524
   15RES    C18 3966   2.390   2.235   0.379 -0.5173  0.8225 -0.0068
   15RES    C19 3967   2.286   2.292   0.483  0.1851  0.6882  0.1787
   15RES    O20 3968   2.245   2.422   0.460  0.0420  0.4088  0.1717
   15RES    C21 3969   2.133   2.465   0.534 -0.1487  0.3885 -0.0378
   15RES    H22 3970   2.271   2.071   0.298  0.5938 -0.5882  0.8427
   15RES    H23 3971   2.450   2.073   0.271  0.1548  0.4302 -1.6163
   15RES    H24 3972   2.382   2.289   0.285  2.5851  0.5124 -0.4905
   15RES    H25 3973   2.203   2.222   0.474  1.6309 -0.7924 -2.2202
   15RES    H26 3974   2.319   2.279   0.586 -0.3598 -1.3842  0.1158
   15RES    H27 3975   2.142   2.405   0.625 -0.8101  1.0267  0.4545
   15RES    H28 3976   2.035   2.445   0.491 -0.3744 -1.0694  1.1191
   15RES    H29 3977   2.137   2.572   0.551  2.9230  0.4135 -0.6663
   15RES    O30 3978   2.518   2.242   0.433  0.0892  0.1353 -0.1129
   15RES    C31 3979   2.565   2.379   0.453  0.0638  0.0778 -0.3269
   15RES    C32 3980   2.715   2.387   0.500  0.2774  0.4901 -0.5003
   15RES    C33 3981   2.734   2.526   0.572  0.6043  0.4117 -0.0969
   15RES    O34 3982   2.834   2.525   0.677 -0.1474  0.2587  0.5459
   15RES    C35 3983   2.957   2.495   0.615  0.4234 -0.5682 -0.1842
   15RES    H36 3984   2.547   2.437   0.363  1.0018 -1.1125 -1.2891
   15RES    H37 3985   2.506   2.421   0.535 -0.4791 -2.4267  0.6355
   15RES    H38 3986   2.726   2.304   0.570  1.9083  1.1558  0.0570
   15RES    H39 3987   2.640   2.551   0.621  0.5823 -0.1157  0.1278
   15RES    H40 3988   2.751   2.605   0.498 -1.2649 -0.2199 -1.2201
   15RES    H41 3989   2.964   2.522   0.510  0.2997  1.4349  0.2953
   15RES    H42 3990   2.957   2.386   0.620 -1.0712 -0.4930  3.2914
   15RES    H43 3991   3.044   2.552   0.647  1.1411  0.6646 -4.0693
   15RES    O44 3992   2.806   2.373   0.396 -0.0739  0.5193  0.1212
   15RES    C45 3993   2.850   2.237   0.392  0.3175  0.3780  0.5242
   15RES    C46 3994   2.938   2.202   0.273  0.1068 -0.0788 -0.0747
   15RES    C47 3995   3.093   2.209   0.289  0.0611  0.3800  0.3472
   15RES    O48 3996   3.161   2.233   0.165 -0.1433 -0.1417 -0.0976
   15RES    C49 3997   3.280   2.157   0.150 -0.1064 -0.0243  0.3375
   15RES    H50 3998   2.765   2.168   0.389  0.7087 -0.0300 -2.6721
   15RES    H51 3999   2.907   2.222   0.484  3.4249 -0.6298 -1.4753
   15RES    H52 4000   2.905   2.276   0.201 -2.4691 -1.1088 -0.0245
   15RES    H53 4001   3.120   2.292   0.355 -1.6697  1.0388  0.2549
   15RES    H54 4002   3.135   2.127   0.346  1.5267  1.0011  0.1725
   15RES    H55 4003   3.328   2.166   0.053 -0.6368 -0.8707 -0.0106
   15RES    H56 4004   3.254   2.051   0.147  0.8129 -0.2253 -0.7515
   15RES    H57 4005   3.351   2.182   0.229 -1.9021 -0.0437  1.9968
   15RES    O58 4006   2.892   2.074   0.215 -0.3077  0.2059  1.0277
   15RES    C59 4007   2.924   1.956   0.284  0.3088  0.1926 -0.0547
   15RES    C60 4008   2.881   1.832   0.202  0.0668 -0.0264  0.0064
   15RES    C61 4009   2.836   1.714   0.290  0.3111  0.2696 -0.2879
   15RES    O62 4010   2.924   1.701   0.404 -0.0317 -0.0887  0.6184
   15RES    C63 4011   2.871   1.644   0.525 -0.0232  0.2403 -0.1918
   15RES    H64 4012   2.892   1.960   0.388 -0.7959  0.0520 -0.3802
   15RES    H65 4013   3.033   1.946   0.286  0.0948 -2.8119 -0.3672
   15RES    H66 4014   2.797   1.854   0.136  0.1326 -0.6832 -0.3053
   15RES    H67 4015   2.731   1.715   0.318 -0.0105  0.6035 -1.4638
   15RES    H68 4016   2.836   1.619   0.236 -0.3502 -0.8365  1.6381
   15RES    H69 4017   2.947   1.656   0.602 -1.5583 -0.1587  1.4229
   15RES    H70 4018   2.860   1.536   0.523 -1.5634  0.3632  0.5712
   15RES    H71 4019   2.781   1.691   0.565 -1.1096 -1.7934 -0.2048
   15RES    O72 4020   2.980   1.770   0.112  0.1997  0.3208 -0.0851
   15RES    C73 4021   3.017   1.856   0.008  1.0368  0.2000  0.3358
   15RES    C74 4022   3.120   1.780   7.743  0.1099 -0.1130  0.0276
   15RES    C75 4023   3.247   1.856   7.701  0.6063 -0.1028 -0.0030
   15RES    O76 4024   3.233   1.938   7.584  0.2930  0.3229 -0.5180
   15RES    C77 4025   3.363   1.984   7.550 -0.7403 -0.4398  0.4064
   15RES    H78 4026   2.938   1.882   7.754  1.9671 -0.9641 -1.1679
   15RES    H79 4027   3.061   1.954   0.029 -0.1887  1.1100 -1.2072
   15RES    H80 4028   3.162   1.696   7.799  2.7860  2.0865  1.4056
   15RES    H81 4029   3.314   1.773   7.679 -0.0428 -0.4966 -0.5164
   15RES    H82 4030   3.290   1.911   7.784  0.8167 -0.4487  0.1190
   15RES    H83 4031   3.409   2.042   7.630  1.4349 -2.3843  0.6116
   15RES    H84 4032   3.375   2.039   7.457 -0.5807 -1.7880 -0.3905
   15RES    H85 4033   3.424   1.895   7.536  1.3137  1.0057 -0.1057
   15RES    O86 4034   3.057   1.712   7.635 -0.9211  0.4646 -0.0657
   15RES    C87 4035   2.958   1.617   7.674 -0.0979 -0.5478  0.2110
   15RES    C88 4036   2.923   1.526   7.558 -0.2086 -0.2056  0.2249
   15RES    C89 4037   2.858   1.404   7.617  0.2631  0.3117 -0.0487
   15RES    O90 4038   2.856   1.297   7.522  0.2563  0.2094 -0.7372
   15RES    C91 4039   2.743   1.302   7.431  0.0664 -0.5991  0.1440
   15RES    H92 4040   2.991   1.561   7.761  1.7376 -0.3626 -0.3457
   15RES    H93 4041   2.863   1.656   7.710  0.2698  0.1978  0.3925
   15RES    H94 4042   3.005   1.482   7.503  1.2247  0.0774  2.0962
   15RES    H95 4043   2.927   1.375   7.697  1.4759  0.6207 -0.9680
   15RES    H96 4044   2.758   1.417   7.658 -0.4606  0.8680 -1.9534
   15RES    H97 4045   2.644   1.317   7.474 -0.3094 -3.5076  0.3808
   15RES    H98 4046   2.761   1.362   7.342  0.6670 -2.4985 -1.0354
   15RES    H99 4047   2.734   1.204   7.386 -1.0761 -0.4405  0.0201
   15RES   O100 4048   2.823   1.592   7.472 -0.5221 -0.1400  0.5052
   15RES   C101 4049   2.882   1.673   7.373  0.1668  0.2111  0.6342
   15RES   C102 4050   2.772   1.721   7.281 -0.0704  0.1107  0.0607
   15RES   C103 4051   2.807   1.755   7.137  0.7357 -0.1004 -0.4345
   15RES   O104 4052   2.681   1.773   7.068  0.3751  0.1047 -0.4409
   15RES   C105 4053   2.690   1.790   6.930  0.9063 -0.0006 -0.3059
   15RES   H106 4054   2.954   1.610   7.320 -1.4273 -1.5303  0.5126
   15RES   H107 4055   2.934   1.752   7.427 -0.7703  0.4033  1.2628
   15RES   H108 4056   2.689   1.650   7.281  0.7275 -0.8446  0.0157
   15RES   H109 4057   2.868   1.679   7.087 -0.9463 -0.9673 -1.2284
   15RES   H110 4058   2.867   1.846   7.138 -0.2277  0.5323  2.0066
   15RES   H111 4059   2.588   1.799   6.892  1.5559  0.7988 -1.9377
   15RES   H112 4060   2.753   1.715   6.881  1.7646 -0.9610  2.2183
   15RES   H113 4061   2.731   1.889   6.911 -0.9630  1.0817  1.2602
   15RES   O114 4062   2.751   1.847   7.333  0.3839 -0.1271  0.6652
   15RES   C115 4063   2.618   1.902   7.327 -1.2852 -0.3301  0.0153
   15RES   C116 4064   2.610   2.044   7.396  0.7270  0.2572  0.7503
   15RES   C117 4065   2.491   2.132   7.352 -0.3894  0.3045 -0.5173
   15RES   O118 4066   2.505   2.267   7.378 -0.1831 -0.2587 -0.2930
   15RES   C119 4067   2.404   2.354   7.326  0.1256  0.5033 -0.4477
   15RES   H120 4068   2.590   1.923   7.224  1.0403 -0.2553 -0.6428
   15RES   H121 4069   2.557   1.831   7.382 -1.5064  0.1009  0.3300
   15RES   H122 4070   2.700   2.097   7.365  0.4408 -0.5253 -1.5286
   15RES   H123 4071   2.484   2.121   7.244 -0.1279  2.1627 -0.7375
   15RES   H124 4072   2.406   2.084   7.401  0.4657 -0.0374  0.6595
   15RES   H125 4073   2.308   2.308   7.348 -0.6130  0.9721 -2.5285
   15RES   H126 4074   2.418   2.367   7.218 -0.3451 -1.0554 -0.6990
   15RES   H127 4075   2.411   2.455   7.368 -0.1924  0.8927 -1.3022
   15RES   O128 4076   2.614   2.035   7.534  0.2131  0.5822  0.3058
   15RES   C129 4077   2.739   2.045   7.598 -0.5158  0.1332 -0.3726
   15RES   C130 4078   2.777   2.191   7.633  0.1526 -0.6550 -0.5693
   15RES   C131 4079   2.926   2.203   7.670  0.4767  0.1715 -0.2713
   15RES   O132 4080   2.966   2.340   7.652 -0.6146  0.3458 -0.1245
   15RES   C133 4081   3.102   2.365   7.662  0.4161  0.7293 -0.5013
   15RES   H134 4082   2.735   1.987   7.691  0.5583  2.9735  1.4931
   15RES   H135 4083   2.813   1.995   7.536  0.3962  2.3831 -1.1241
   15RES   H136 4084   2.762   2.254   7.546 -0.1455  0.1345  0.0486
   15RES   H137 4085   2.984   2.146   7.597 -2.3708 -0.0872 -2.4255
   15RES   H138 4086   2.941   2.169   7.773 -0.9893 -0.0178 -0.1039
   15RES   H139 4087   3.099   2.473   7.678 -1.7430  0.7281 -0.7595
   15RES   H140 4088   3.152   2.336   7.754  0.3124  0.5948 -0.4869
   15RES   H141 4089   3.161   2.347   7.572 -2.3924 -1.5467 -1.9714
   15RES   O142 4090   2.693   2.238   7.740 -0.5643 -0.6575 -0.4323
   15RES   C143 4091   2.565   2.286   7.710 -0.4774 -0.0447 -0.1708
   15RES   C144 4092   2.490   2.344   0.014 -0.3642 -0.0217 -0.1675
   15RES   C145 4093   2.337   2.343   7.809  0.9553 -0.1610 -0.0550
   15RES   O146 4094   2.274   2.402   0.104 -0.2524  0.3160  0.1848
   15RES   C147 4095   2.136   2.434   0.077 -0.5252 -0.0019  0.3016
   15RES   H148 4096   2.572   2.366   7.636 -1.1102 -0.3046 -0.5225
   15RES   H149 4097   2.505   2.205   7.666 -0.2476  0.0665 -0.6933
   15RES   H150 4098   2.515   2.286   0.103  0.0425 -0.2890 -0.4525
   15RES   H151 4099   2.294   2.243   7.803  0.6468  0.0901 -2.3176
   15RES   H152 4100   2.319   2.398   7.717  0.8098  0.6717  0.4658
   15RES   H153 4101   2.086   2.471   0.166  1.1875  0.6932  0.9993
   15RES   H154 4102   2.080   2.359   0.021 -1.2995 -0.1708  1.2811
   15RES   H155 4103   2.137   2.509   7.815  1.3956  0.3027  0.5839
   15RES   O156 4104   2.527   2.482   0.025  0.1926 -0.1286 -0.5891
   15RES   C157 4105   2.659   2.494   0.081  0.6666  0.3912  0.0400
   15RES   C158 4106   2.690   2.631   0.137  0.4149  0.2207 -0.1015
   15RES   C159 4107   2.838   2.639   0.193 -0.3567 -0.0589 -0.0715
   15RES   O160 4108   2.902   2.770   0.180 -0.0689  0.6043  0.0820
   15RES   C161 4109   2.830   2.874   0.248 -0.4773  0.2859 -0.2550
   15RES   H162 4110   2.677   2.417   0.156 -0.4287 -0.8477 -0.9399
   15RES   H163 4111   2.736   2.469   0.008 -1.7960 -1.1763 -2.1113
   15RES   H164 4112   2.683   2.698   0.051 -1.4704  0.1273 -0.0333
   15RES   H165 4113   2.832   2.624   0.300  0.1708 -1.6341 -0.2623
   15RES   H166 4114   2.897   2.556   0.154 -0.5259 -0.3290  0.2509
   15RES   H167 4115   2.735   2.884   0.196  0.2946  0.5411 -1.6383
   15RES   H168 4116   2.884   2.968   0.238 -0.0269  0.1131  0.5576
   15RES   H169 4117   2.820   2.842   0.352  0.5760 -3.3792 -1.2040
   15RES   O170 4118   2.605   2.669   0.248 -0.1192 -0.3820  0.0679
   15RES   C171 4119   2.491   2.747   0.212  0.0012  0.3659  0.1606
   15RES   C172 4120   2.374   2.728   0.310  0.4850  0.0142 -0.1787
   15RES   C173 4121   2.233   2.750   0.239  0.1254  0.3507 -0.3681
   15RES   O174 4122   2.121   2.725   0.327  0.1828 -0.6923  0.0469
   15RES   C175 4123   1.997   2.770   0.271  0.3325  0.2792  0.1959
   15RES   H176 4124   2.446   2.717   0.118  2.4342  0.3379 -1.0488
   15RES   H177 4125   2.524   2.852   0.212  0.5117  0.2099  0.4692
   15RES   H178 4126   2.376   2.626   0.349 -2.5466 -1.3049 -3.1842
   15RES   H179 4127   2.239   2.847   0.191  1.4379  0.5636  0.2195
   15RES   H180 4128   2.218   2.682   0.155 -0.4513 -0.9892  0.7909
   15RES   H181 4129   1.972   2.723   0.176 -0.8311  0.4960  0.3953
   15RES   H182 4130   2.011   2.877   0.255 -1.0010  0.2830 -1.0224
   15RES   H183 4131   1.917   2.746   0.341  0.2060 -3.6008 -1.1834
   15RES   O184 4132   2.394   2.820   0.420 -0.7036 -0.2393  0.2451
   15RES   C185 4133   2.396   2.760   0.552  0.4713 -0.3875  0.0925
   15RES   C186 4134   2.422   2.863   0.665 -0.7256  0.5471  0.6061
   15RES   C187 4135   2.348   3.001   0.632 -0.3126  0.3811 -0.3477
   15RES   O188 4136   2.325   3.081   0.743 -0.2381 -0.9625  0.1836
   15RES   C189 4137   2.433   3.135   0.814  0.0686 -0.2897 -0.9497
   15RES   H190 4138   2.476   2.687   0.543  2.0775  1.5537 -1.7321
   15RES   H191 4139   2.307   2.699   0.567  0.4834 -0.6690 -0.9594
   15RES   H192 4140   2.369   2.814   0.747 -0.5253 -1.1303 -0.2567
   15RES   H193 4141   2.248   2.975   0.598 -0.2237  0.5599 -0.7504
   15RES   H194 4142   2.402   3.051   0.552  0.1810 -0.2181 -0.3922
   15RES   H195 4143   2.499   3.050   0.832 -1.4390 -1.2970  0.0444
   15RES   H196 4144   2.490   3.211   0.762 -0.4453  2.4203  2.2274
   15RES   H197 4145   2.401   3.184   0.906  1.6949  0.7285 -0.9166
   15RES   O198 4146   2.566   2.870   0.707  0.5416  0.4544  0.3575
   15RES   C199 4147   2.658   2.935   0.628 -0.0396  0.2780  0.5900
   15RES   C200 4148   2.799   2.911   0.686  0.0664  0.4650  0.1088
   15RES   C201 4149   2.830   2.997   0.811 -0.1345  0.0371 -0.6880
   15RES   O202 4150   2.910   2.930   0.907  0.4878  0.0105  0.0065
   15RES   C203 4151   2.856   2.830   0.986 -0.2312 -0.0959 -0.0467
   15RES   H204 4152   2.638   3.041   0.611  2.8421  0.8227  0.4431
   15RES   H205 4153   2.656   2.898   0.525  0.8799 -1.8401  1.3059
   15RES   H206 4154   2.823   2.807   0.707 -0.4418  0.2693 -0.2731
   15RES   H207 4155   2.889   3.084   0.780  2.3615 -0.5328  2.2040
   15RES   H208 4156   2.737   3.032   0.854 -0.2322  1.4312 -1.9675
   15RES   H209 4157   2.931   2.821   1.065 -1.4631  0.9215  1.2608
   15RES   H210 4158   2.850   2.731   0.942 -0.3179 -0.4300  0.7131
   15RES   H211 4159   2.764   2.861   1.035  0.2432 -0.9744  1.4577
   15RES   O212 4160   2.889   2.955   0.581 -0.1932  0.0735  0.5425
   15RES   C213 4161   3.016   2.903   0.595 -0.5085  0.2330 -0.0015
   15RES   C214 4162   3.110   2.958   0.483 -0.2414  0.2211 -0.0506
   15RES   C215 4163   3.253   2.893   0.495 -0.0541  0.3569 -0.3382
   15RES   O216 4164   3.303   2.901   0.625 -0.3768 -0.0293 -0.3894
   15RES   C217 4165   3.364   3.021   0.653  0.3626  0.0919  0.4132
   15RES   H218 4166   3.017   2.794   0.596  1.4566  0.2407  0.8379
   15RES   H219 4167   3.059   2.934   0.690  1.1316  2.6037 -1.4730
   15RES   H220 4168   3.069   2.937   0.384 -1.4125  2.9412 -0.1860
   15RES   H221 4169   3.262   2.785   0.479  1.3233  0.5328 -0.8171
   15RES   H222 4170   3.320   2.931   0.418 -0.4605 -1.5850 -1.6939
   15RES   H223 4171   3.418   3.066   0.570 -0.2391  1.1303  0.5771
   15RES   H224 4172   3.440   3.021   0.732  2.1613 -0.2442 -1.2768
   15RES   H225 4173   3.286   3.088   0.687  1.7758  2.1607 -0.3167
   15RES   O226 4174   3.122   3.099   0.499  0.2217 -0.3234 -0.1626
   15RES   C227 4175   3.136   3.184   0.379  0.1531 -0.4576 -0.1503
   15RES   C228 4176   3.110   3.330   0.414 -0.7812 -0.0168 -0.5683
   15RES   C229 4177   3.162   3.424   0.302 -0.1318 -0.1050  0.4068
   15RES   O230 4178   3.212   3.537   0.368  0.8887 -0.4861 -0.8660
   15RES   C231 4179   3.210   3.638   0.274 -0.2065  0.4782  0.6126
   15RES   H232 4180   3.078   3.156   0.292 -0.5055  0.5612 -0.0456
   15RES   H233 4181   3.240   3.171   0.349  0.9948  1.4393  1.7507
   15RES   H234 4182   3.170   3.349   0.503 -3.5470 -0.7643  1.5320
   15RES   H235 4183   3.080   3.444   0.234  0.3771 -0.8223 -0.4307
   15RES   H236 4184   3.240   3.375   0.244 -0.8637 -0.1496 -0.5478
   15RES   H237 4185   3.267   3.623   0.182 -1.8726  0.9789 -0.5133
   15RES   H238 4186   3.252   3.729   0.319  1.4532 -0.2616  0.6090
   15RES   H239 4187   3.110   3.671   0.244 -0.6502 -0.1841  1.3694
   15RES   O240 4188   2.974   3.344   0.444 -0.6908 -0.0154 -0.1079
   15RES   C241 4189   2.947   3.449   0.533  0.1656  0.7386 -0.2410
   15RES   C242 4190   2.815   3.414   0.592 -0.7346 -0.2632 -0.7880
   15RES   C243 4191   2.765   3.511   0.695 -0.0620  0.0848  0.3288
   15RES   O244 4192   2.671   3.447   0.769  0.1091  0.0804  0.3004
   15RES   C245 4193   2.573   3.532   0.835  0.1004 -0.7219 -0.1350
   15RES   H246 4194   2.932   3.547   0.488  1.6060  1.3633  0.5998
   15RES   H247 4195   3.027   3.456   0.607  0.1677  1.1915 -0.2865
   15RES   H248 4196   2.836   3.315   0.632  0.0110 -0.5295 -1.8164
   15RES   H249 4197   2.847   3.537   0.761 -0.5053 -0.1193  0.9578
   15RES   H250 4198   2.718   3.600   0.652  3.6423  2.1693  0.3943
   15RES   H251 4199   2.471   3.495   0.838 -0.8628  1.9370  1.5126
   15RES   H252 4200   2.563   3.625   0.779 -2.0255 -0.6071  0.3958
   15RES   H253 4201   2.610   3.554   0.935 -2.2864 -0.0118  0.6401
   15RES   O254 4202   2.707   3.425   0.491 -0.2368  0.0193  0.5168
   15RES   C255 4203   2.622   3.313   0.479  0.1930 -0.1928 -0.5969
   15RES   C256 4204   2.528   3.334   0.360  0.1957 -0.5793  0.2948
   15RES   C257 4205   2.496   3.202   0.295  0.4725  0.2676 -0.0351
   15RES   O258 4206   2.465   3.221   0.163  0.2208 -0.3992  0.0384
   15RES   C259 4207   2.392   3.125   0.089 -0.3380  0.4653  0.1163
   15RES   H260 4208   2.679   3.220   0.476 -0.5085 -0.6701  0.5027
   15RES   H261 4209   2.567   3.310   0.573  1.6387 -0.2155  0.2584
   15RES   H262 4210   2.574   3.396   0.283  0.1380 -2.1099 -0.9897
   15RES   H263 4211   2.584   3.137   0.296 -0.9419 -1.6622  0.9267
   15RES   H264 4212   2.416   3.141   0.336 -2.5228  3.8919 -0.2171
   15RES   H265 4213   2.462   3.052   0.048  0.5869  1.0669  0.6127
   15RES   H266 4214   2.354   3.178   0.001 -0.4391  1.1013  0.5376
   15RES   H267 4215   2.318   3.074   0.150 -0.5547  1.3392  0.5852
   15RES   O268 4216   2.406   3.388   0.420 -0.2544  0.1623  0.0421
   15RES   C269 4217   2.410   3.520   0.478  0.0782  0.4319  0.6023
   15RES   C270 4218   2.282   3.544   0.550 -0.0668  0.0506  0.9541
   15RES   C271 4219   2.244   3.442   0.653  0.0698  0.6746  0.0412
   15RES   O272 4220   2.151   3.482   0.746  0.1278 -0.3213 -0.5252
   15RES   C273 4221   2.135   3.380   0.845  0.6449  0.2563  0.5778
   15RES   H274 4222   2.430   3.591   0.398 -2.4814 -0.2450 -0.6955
   15RES   H275 4223   2.485   3.509   0.557  1.3983 -0.1209 -0.7031
   15RES   H276 4224   2.282   3.643   0.597 -1.3410  1.4146 -1.7599
   15RES   H277 4225   2.333   3.407   0.705  0.5410  0.5661 -0.8197
   15RES   H278 4226   2.197   3.357   0.603  0.7119 -1.0382  2.2876
   15RES   H279 4227   2.074   3.421   0.926 -0.8183  0.6567 -0.7013
   15RES   H280 4228   2.230   3.354   0.892  1.0293  2.5559  1.1128
   15RES   H281 4229   2.082   3.292   0.809  1.3974 -0.2720  0.7465
   15RES   H282 4230   2.204   3.543   0.473 -1.1351  3.4337  1.8891
   16RES     O1 4231   1.187   6.588   5.923  0.2436 -0.6077  0.0817
   16RES     C2 4232   1.322   6.601   5.889 -0.1996 -0.1550  0.5880
   16RES     C3 4233   1.406   6.496   5.958 -0.0108  0.0276 -0.2599
   16RES     C4 4234   1.417   6.357   5.891 -0.6437  0.2077  0.1941
   16RES     O5 4235   1.491   6.268   5.964  0.2591  0.4792 -0.0845
   16RES     C6 4236   1.522   6.147   5.896  0.2658  1.0411 -0.0900
   16RES     H7 4237   1.333   6.583   5.782 -0.9828 -0.5543  0.5744
   16RES     H8 4238   1.367   6.696   5.920  0.7039 -0.8043  1.3088
   16RES     H9 4239   1.361   6.476   6.055  0.3445 -1.3658 -0.3690
   16RES    H10 4240   1.464   6.384   5.796  2.0694 -1.6153  0.9693
   16RES    H11 4241   1.319   6.318   5.862  0.1780 -0.1664 -2.2055
   16RES    H12 4242   1.571   6.071   5.957 -1.1289  1.0322  1.0250
   16RES    H13 4243   1.431   6.110   5.849  0.6517  0.5007 -0.4269
   16RES    H14 4244   1.584   6.175   5.811  0.6356 -0.2963 -0.2824
   16RES    H15 4245   1.135   6.664   5.902 -1.8273 -2.3594 -1.2795
   16RES    O16 4246   1.539   6.539   5.974 -0.3743 -0.7896  0.4424
   16RES    C17 4247   1.572   6.591   6.102 -0.1498  0.4712  0.5080
   16RES    C18 4248   1.722   6.638   6.080  0.2005  0.5355  0.1774
   16RES    C19 4249   1.762   6.751   6.176  0.4113  0.6580 -0.2046
   16RES    O20 4250   1.682   6.861   6.150 -0.2084  0.1352  0.0782
   16RES    C21 4251   1.688   6.964   6.253  0.3790 -0.5313 -0.0558
   16RES    H22 4252   1.553   6.521   6.184  3.3302 -1.2828 -0.0854
   16RES    H23 4253   1.497   6.669   6.116  0.5814  1.3022 -0.1494
   16RES    H24 4254   1.730   6.669   5.976 -0.1233  0.6104  0.1727
   16RES    H25 4255   1.730   6.720   6.275  1.1004  0.7147  0.0426
   16RES    H26 4256   1.870   6.770   6.178  0.6741 -0.8213  0.8111
   16RES    H27 4257   1.782   7.018   6.247 -0.7395  1.1504 -3.3722
   16RES    H28 4258   1.677   6.928   6.356  1.5049 -1.0550 -0.1168
   16RES    H29 4259   1.618   7.042   6.223  0.1924 -0.6217  0.1441
   16RES    O30 4260   1.816   6.536   6.113  0.2248  0.8066 -0.1628
   16RES    C31 4261   1.799   6.418   6.036  0.3525  0.5536  0.5717
   16RES    C32 4262   1.904   6.307   6.061  0.1921 -0.4653  0.0870
   16RES    C33 4263   1.897   6.266   6.209 -0.2518  0.0730 -0.4961
   16RES    O34 4264   1.951   6.133   6.224 -0.1506 -0.0590  0.3867
   16RES    C35 4265   1.977   6.084   6.362 -0.2993 -0.1927 -0.1171
   16RES    H36 4266   1.702   6.372   6.053 -0.4464  2.5088  1.5332
   16RES    H37 4267   1.813   6.439   5.930 -0.5915 -0.1389  0.3036
   16RES    H38 4268   1.880   6.217   6.003 -1.9420 -0.5802  1.0976
   16RES    H39 4269   1.797   6.265   6.253  0.4909  1.6950  1.2731
   16RES    H40 4270   1.954   6.334   6.272 -1.0722  1.0583 -0.8047
   16RES    H41 4271   1.880   6.076   6.410  0.0830 -0.9780  0.5367
   16RES    H42 4272   2.034   6.153   6.423 -0.5837  0.5913 -0.7309
   16RES    H43 4273   2.043   5.998   6.352 -0.3215 -0.1041 -1.1239
   16RES    O44 4274   2.034   6.361   6.035  0.1236 -0.2837 -0.3248
   16RES    C45 4275   2.139   6.262   6.021  0.8022 -0.2695  0.1648
   16RES    C46 4276   2.281   6.318   6.043  0.3973  0.2498 -0.6570
   16RES    C47 4277   2.333   6.265   6.179 -0.3519 -0.5783 -0.5681
   16RES    O48 4278   2.469   6.322   6.194  0.3927 -0.3114 -0.6898
   16RES    C49 4279   2.544   6.230   6.267 -0.3131  0.4103 -0.0188
   16RES    H50 4280   2.124   6.233   5.917 -2.6000  2.3358 -0.1604
   16RES    H51 4281   2.128   6.166   6.072  2.9785  0.2854  1.7101
   16RES    H52 4282   2.274   6.426   6.041  0.8522  0.2906 -0.1476
   16RES    H53 4283   2.275   6.304   6.263  0.8138 -0.5632  0.2458
   16RES    H54 4284   2.330   6.156   6.180  0.4848 -0.6362  2.7645
   16RES    H55 4285   2.580   6.146   6.208 -2.2598 -1.1017  0.9077
   16RES    H56 4286   2.485   6.196   6.352  0.2990  0.1218  0.2924
   16RES    H57 4287   2.635   6.280   6.298  0.8503 -2.7100  1.7451
   16RES    O58 4288   2.361   6.273   5.933 -0.3967  0.1041 -0.5293
   16RES    C59 4289   2.466   6.366   5.886 -0.5560 -0.5666  0.1674
   16RES    C60 4290   2.422   6.427   5.755 -0.0151  0.5966 -0.8857
   16RES    C61 4291   2.533   6.522   5.706 -0.7249  1.1008  0.0675
   16RES    O62 4292   2.530   6.519   5.560 -0.1836  0.0827 -0.2442
   16RES    C63 4293   2.630   6.600   5.505 -0.4026 -0.8767  0.4985
   16RES    H64 4294   2.559   6.310   5.875  0.1415  0.9357 -2.0697
   16RES    H65 4295   2.480   6.440   5.965  1.1958 -0.2732 -0.4001
   16RES    H66 4296   2.403   6.351   5.679  0.7123 -1.9980  1.4561
   16RES    H67 4297   2.512   6.625   5.735 -0.9945  0.8953  0.6063
   16RES    H68 4298   2.630   6.494   5.747 -0.6256  0.0624 -0.8723
   16RES    H69 4299   2.628   6.567   5.401 -1.2199 -0.0866  0.2594
   16RES    H70 4300   2.724   6.591   5.560 -0.1570  0.7443  0.3536
   16RES    H71 4301   2.623   6.708   5.514 -0.1502 -0.9036  1.0042
   16RES    O72 4302   2.306   6.508   5.777  0.2499  0.5997 -0.4511
   16RES    C73 4303   2.188   6.471   5.706 -0.3938  0.0379 -0.0901
   16RES    C74 4304   2.066   6.560   5.742  0.0946 -0.0457  0.8681
   16RES    C75 4305   1.947   6.521   5.656  0.1853 -0.6710  0.0430
   16RES    O76 4306   1.829   6.570   5.723  0.1821 -0.3172 -0.2553
   16RES    C77 4307   1.714   6.501   5.695  0.1650 -0.6720  0.4814
   16RES    H78 4308   2.204   6.478   5.598 -0.7035  0.2612 -0.1223
   16RES    H79 4309   2.175   6.364   5.719  2.8521 -0.4145  0.0529
   16RES    H80 4310   2.048   6.544   5.849  2.0720  1.9943  1.5438
   16RES    H81 4311   1.943   6.412   5.653  0.5561 -0.7105  0.8857
   16RES    H82 4312   1.957   6.544   5.550  0.3632  0.9328  0.3985
   16RES    H83 4313   1.694   6.518   5.589 -0.6850 -1.5585  0.4947
   16RES    H84 4314   1.631   6.539   5.755 -0.4801  1.2145 -1.5310
   16RES    H85 4315   1.720   6.396   5.723 -1.3822 -0.4020  1.8718
   16RES    O86 4316   2.093   6.695   5.716 -0.7978 -0.1018  0.0851
   16RES    C87 4317   2.119   6.767   5.838  0.2393  0.0362 -0.2726
   16RES    C88 4318   2.110   6.912   5.796 -0.0019  0.3734  0.4429
   16RES    C89 4319   2.102   7.002   5.926 -0.2551 -0.3127 -0.0185
   16RES    O90 4320   2.027   7.125   5.899  0.4042  0.1125  0.5832
   16RES    C91 4321   1.887   7.103   5.897 -0.6124 -0.4029  0.2103
   16RES    H92 4322   2.033   6.748   5.903 -1.9015  1.1811 -2.6766
   16RES    H93 4323   2.211   6.730   5.884 -1.2657 -0.3646  2.5434
   16RES    H94 4324   2.032   6.926   5.721 -0.1353  0.9598  0.6906
   16RES    H95 4325   2.061   6.944   6.008  0.2263  2.0218  1.9090
   16RES    H96 4326   2.201   7.027   5.965 -0.2923 -0.5621  0.2362
   16RES    H97 4327   1.854   7.051   5.987  0.5784  1.8826  2.0148
   16RES    H98 4328   1.827   7.194   5.906 -0.6160 -0.3639 -0.2046
   16RES    H99 4329   1.853   7.058   5.804 -1.6024  1.4199 -0.3491
   16RES   O100 4330   2.234   6.931   5.731 -0.6927  0.4279 -0.1736
   16RES   C101 4331   2.248   7.063   5.667  0.6121  1.1113  0.7785
   16RES   C102 4332   2.369   7.053   5.579  0.0892 -0.1127  0.5697
   16RES   C103 4333   2.456   7.179   5.563  0.0844  0.1739 -0.2623
   16RES   O104 4334   2.592   7.156   5.535 -0.0382  0.7737  0.0067
   16RES   C105 4335   2.665   7.287   5.528  0.1962 -0.3041  0.0482
   16RES   H106 4336   2.272   7.129   5.751 -0.0520  0.6212  1.3663
   16RES   H107 4337   2.163   7.105   5.613  1.0480  0.0622 -0.7346
   16RES   H108 4338   2.444   6.989   5.626 -2.5072 -1.7725  2.5750
   16RES   H109 4339   2.441   7.240   5.652 -1.7610  1.0405 -1.1572
   16RES   H110 4340   2.414   7.241   5.484  1.7613  0.0412 -1.2848
   16RES   H111 4341   2.652   7.334   5.626 -1.0245  1.4120 -0.9057
   16RES   H112 4342   2.627   7.353   5.450 -3.8309 -0.0205  2.0838
   16RES   H113 4343   2.769   7.274   5.499 -0.0519 -1.5358 -0.3435
   16RES   O114 4344   2.332   7.008   5.452 -0.8220  0.0680  0.8133
   16RES   C115 4345   2.325   6.871   5.443 -0.0848 -0.1459  0.0754
   16RES   C116 4346   2.299   6.826   5.296  0.3529  0.5063  0.8594
   16RES   C117 4347   2.308   6.673   5.280 -0.1597 -0.2219  0.2214
   16RES   O118 4348   2.343   6.629   5.141 -0.2704  0.9344 -0.2072
   16RES   C119 4349   2.231   6.597   5.062  0.2032  0.2116  0.6546
   16RES   H120 4350   2.422   6.827   5.464 -0.2282 -0.4183  0.1618
   16RES   H121 4351   2.246   6.821   5.499  0.3467 -0.9530 -0.0338
   16RES   H122 4352   2.372   6.871   5.229 -0.1615  1.8696  1.1836
   16RES   H123 4353   2.376   6.642   5.359  0.7239  0.9444 -0.0750
   16RES   H124 4354   2.210   6.631   5.303 -0.5427  0.7911  0.4690
   16RES   H125 4355   2.266   6.591   4.959  0.8869 -1.1714  0.9571
   16RES   H126 4356   2.154   6.674   5.071 -0.7516 -0.3929 -1.8982
   16RES   H127 4357   2.179   6.503   5.084 -1.3328  1.6322  3.5113
   16RES   O128 4358   2.161   6.854   5.255  0.8199  0.0174  0.5615
   16RES   C129 4359   2.138   6.984   5.192  0.2136 -0.7751 -0.1495
   16RES   C130 4360   1.995   6.974   5.156  0.0092 -0.4382 -0.4160
   16RES   C131 4361   1.955   7.067   5.039 -0.0892 -0.6220 -0.2794
   16RES   O132 4362   1.828   7.027   4.992 -0.2845  0.0948  0.2414
   16RES   C133 4363   1.776   7.128   4.904  0.5911  0.0512  0.5045
   16RES   H134 4364   2.186   7.064   5.250 -0.0960 -1.5453  1.2069
   16RES   H135 4365   2.195   6.970   5.100  1.6734 -0.7846  0.7320
   16RES   H136 4366   1.951   6.876   5.134  1.4750 -1.3042  0.4167
   16RES   H137 4367   2.029   7.065   4.959 -0.2243 -0.3352 -0.4152
   16RES   H138 4368   1.950   7.170   5.076  2.1456 -0.6436  0.1532
   16RES   H139 4369   1.755   7.219   4.961  0.2460  1.5832 -1.9843
   16RES   H140 4370   1.844   7.145   4.821 -0.2114  1.0517  0.0410
   16RES   H141 4371   1.682   7.096   4.857 -0.3677  0.8723  1.8374
   16RES   O142 4372   1.929   7.030   5.268  0.4518 -0.5141 -0.4925
   16RES   C143 4373   1.858   6.933   5.334  0.0479  0.1546 -0.2130
   16RES   C144 4374   1.778   6.992   5.454  0.6095 -0.3499 -0.0970
   16RES   C145 4375   1.726   6.883   5.556  0.6875 -0.0983  0.0829
   16RES   O146 4376   1.633   6.952   5.644  0.2194  0.9269 -0.8312
   16RES   C147 4377   1.600   6.892   5.766  0.0054  0.7095 -0.6097
   16RES   H148 4378   1.776   6.891   5.276  0.3801  0.0352 -0.5971
   16RES   H149 4379   1.921   6.851   5.369  1.6627  1.3526 -0.2977
   16RES   H150 4380   1.827   7.069   5.515 -1.3548 -1.2541  2.7340
   16RES   H151 4381   1.813   6.845   5.609 -0.2194 -0.4390  1.3283
   16RES   H152 4382   1.677   6.798   5.508 -1.1561  1.0306 -0.0744
   16RES   H153 4383   1.579   6.785   5.763  2.3013  0.2128 -0.2080
   16RES   H154 4384   1.516   6.929   5.824 -1.1119  0.3402 -1.9629
   16RES   H155 4385   1.691   6.907   5.825  1.3378  0.1235 -2.4324
   16RES   O156 4386   1.659   7.052   5.402  0.2190  0.9404 -0.2040
   16RES   C157 4387   1.668   7.186   5.358  0.2944  0.5160 -0.2919
   16RES   C158 4388   1.524   7.232   5.330  0.6836 -0.5694  0.2265
   16RES   C159 4389   1.532   7.316   5.205 -0.7744  0.0566 -0.3160
   16RES   O160 4390   1.409   7.373   5.156  0.0954  0.2629  0.0360
   16RES   C161 4391   1.379   7.493   5.219  0.3500 -0.7847 -0.3249
   16RES   H162 4392   1.711   7.256   5.430  0.3429 -2.7304  2.9789
   16RES   H163 4393   1.734   7.192   5.272  0.0514  0.7743 -0.4623
   16RES   H164 4394   1.450   7.157   5.304 -1.2909  2.0328 -1.9488
   16RES   H165 4395   1.608   7.393   5.215 -2.5889  1.9070 -0.5614
   16RES   H166 4396   1.553   7.243   5.126 -0.0992 -1.1846  0.9842
   16RES   H167 4397   1.391   7.578   5.153  0.5924  0.2599  1.0578
   16RES   H168 4398   1.455   7.511   5.295  1.8314 -1.7263 -1.5381
   16RES   H169 4399   1.275   7.506   5.250  1.3124  3.6717  1.3495
   16RES   O170 4400   1.479   7.321   5.440 -0.3662  0.3226 -0.0742
   16RES   C171 4401   1.445   7.257   5.563  0.7969  0.2557 -0.6422
   16RES   C172 4402   1.403   7.354   5.675  0.5870 -0.2990 -0.4648
   16RES   C173 4403   1.432   7.316   5.826 -1.0529 -0.4399 -0.3544
   16RES   O174 4404   1.573   7.333   5.860  0.5402 -0.5788  0.2584
   16RES   C175 4405   1.586   7.369   6.005 -0.2298 -0.0051 -0.4258
   16RES   H176 4406   1.536   7.202   5.586  0.9676 -0.0755 -2.0654
   16RES   H177 4407   1.375   7.177   5.537  0.1987  0.4492  0.3078
   16RES   H178 4408   1.459   7.447   5.663 -0.5011  0.5967  1.1975
   16RES   H179 4409   1.375   7.378   5.895 -2.9008 -0.1015 -2.1168
   16RES   H180 4410   1.402   7.212   5.839 -1.4316 -0.5096 -1.7104
   16RES   H181 4411   1.545   7.468   6.029  0.3436  0.0504  0.3636
   16RES   H182 4412   1.694   7.384   6.011 -0.5443  2.9406 -1.1494
   16RES   H183 4413   1.544   7.298   6.077 -0.3027  2.2801  1.8715
   16RES   O184 4414   1.266   7.394   5.645 -0.1685  0.4425 -0.3058
   16RES   C185 4415   1.252   7.542   5.635 -0.2086  0.5618  0.3419
   16RES   C186 4416   1.113   7.603   5.606  0.0814 -0.3936 -0.8478
   16RES   C187 4417   1.070   7.598   5.455 -0.1450  0.2665  0.0697
   16RES   O188 4418   0.932   7.623   5.447  0.6151 -0.1182  0.7380
   16RES   C189 4419   0.896   7.644   5.309  0.3648  0.2869  0.5398
   16RES   H190 4420   1.322   7.572   5.556  0.3768  0.9336  1.0001
   16RES   H191 4421   1.289   7.583   5.729  2.8095 -1.9447  0.3214
   16RES   H192 4422   1.049   7.555   5.679 -0.5253 -1.2872 -1.9557
   16RES   H193 4423   1.082   7.492   5.433  0.9193  0.2045  0.8984
   16RES   H194 4424   1.134   7.645   5.380  0.1481 -0.8902 -0.4292
   16RES   H195 4425   0.949   7.727   5.263  0.6620  0.7943  1.7677
   16RES   H196 4426   0.919   7.557   5.249  1.2815  0.1354  1.0996
   16RES   H197 4427   0.789   7.658   5.293  0.5445  2.1388  0.8491
   16RES   O198 4428   1.125   7.747   5.632 -0.2817 -0.5575  0.3145
   16RES   C199 4429   1.007   7.816   5.671 -0.2980  0.5515  0.1483
   16RES   C200 4430   1.049   0.136   5.716  0.0482 -0.1352  0.0541
   16RES   C201 4431   0.937   0.215   5.783 -0.0687  0.2580 -0.0583
   16RES   O202 4432   0.990   0.317   5.866 -0.8386 -0.7412  0.1445
   16RES   C203 4433   1.018   0.260   5.997 -0.4405  0.0303 -0.6343
   16RES   H204 4434   0.956   7.764   5.753  0.6188  1.1179  1.0876
   16RES   H205 4435   0.935   0.011   5.590  0.6837  1.6270 -0.5694
   16RES   H206 4436   1.125   0.117   5.792 -0.9692  1.1764  1.4078
   16RES   H207 4437   0.886   0.271   5.705  0.3726  0.9662  0.1552
   16RES   H208 4438   0.862   0.157   5.838  1.1075 -0.0427  1.2635
   16RES   H209 4439   1.068   0.334   6.060  0.1438  0.5613 -1.7206
   16RES   H210 4440   1.089   0.178   5.993  0.5021  0.7897  0.0203
   16RES   H211 4441   0.928   0.223   6.046 -0.4038  1.7939  0.8157
   16RES   O212 4442   1.089   0.206   5.602 -0.5326 -0.1167 -0.0252
   16RES   C213 4443   1.232   0.192   5.578 -0.2769 -1.0240 -0.3734
   16RES   C214 4444   1.250   0.199   5.423 -0.2295  0.4930  0.0728
   16RES   C215 4445   1.379   0.128   5.376  0.0345 -0.3056  0.7835
   16RES   O216 4446   1.353   0.059   5.248  0.0637 -0.4110 -0.3419
   16RES   C217 4447   1.446   0.087   5.141 -0.0272  0.3246  0.4121
   16RES   H218 4448   1.276   0.105   5.628 -3.6107 -1.3302  2.1841
   16RES   H219 4449   1.274   0.284   5.620 -2.1070 -0.6069  0.6130
   16RES   H220 4450   1.164   0.144   5.386  0.0452  0.8049 -1.0791
   16RES   H221 4451   1.468   0.190   5.368  1.2710 -2.2003 -0.4122
   16RES   H222 4452   1.407   0.043   5.439 -1.7486 -0.5232  1.3265
   16RES   H223 4453   1.416   0.034   5.051  0.4483  0.9319 -0.1030
   16RES   H224 4454   1.545   0.052   5.172 -0.7473 -2.0237  0.1382
   16RES   H225 4455   1.441   0.195   5.123  1.0555  0.2930 -0.1309
   16RES   O226 4456   1.266   0.341   5.398  0.1360 -0.7427  0.4993
   16RES   C227 4457   1.213   0.386   5.277 -0.8103 -0.4079 -0.2964
   16RES   C228 4458   1.263   0.533   5.264  0.3477 -0.2004 -0.3222
   16RES   C229 4459   1.346   0.564   5.140 -0.0220  0.0026  0.0522
   16RES   O230 4460   1.257   0.577   5.033 -0.0355 -0.4062  0.1060
   16RES   C231 4461   1.326   0.591   4.907  0.2615 -0.8262 -0.1309
   16RES   H232 4462   1.104   0.376   5.277 -0.7742 -0.8118 -0.5415
   16RES   H233 4463   1.229   0.329   5.186 -0.3074 -0.6116 -0.0803
   16RES   H234 4464   1.340   0.553   5.339  1.8016  0.4254 -1.9380
   16RES   H235 4465   1.402   0.473   5.121 -1.6304 -1.5133  2.3712
   16RES   H236 4466   1.405   0.654   5.158  2.7794 -1.8724  0.5417
   16RES   H237 4467   1.253   0.590   4.826  0.0695 -1.9206  0.0380
   16RES   H238 4468   1.389   0.505   4.885  2.0701  0.3432  0.3525
   16RES   H239 4469   1.373   0.687   4.885 -0.8077 -1.1099 -4.0203
   16RES   O240 4470   1.150   0.624   5.275  1.0093 -0.1533 -0.7533
   16RES   C241 4471   1.181   0.753   5.321  0.2552  0.0367 -0.2641
   16RES   C242 4472   1.048   0.833   5.289 -0.0337 -0.0429 -0.4834
   16RES   C243 4473   1.059   0.962   5.359 -0.3188  0.3725 -0.0255
   16RES   O244 4474   0.939   1.031   5.344  0.2597  0.3666 -0.0199
   16RES   C245 4475   0.950   1.165   5.383 -0.1296  0.2158 -0.0017
   16RES   H246 4476   1.268   0.800   5.275  0.5722  0.4794  0.7721
   16RES   H247 4477   1.208   0.749   5.426 -0.8887 -2.8979 -0.0380
   16RES   H248 4478   0.958   0.781   5.322  0.5128 -1.6456 -1.4762
   16RES   H249 4479   1.089   0.944   5.463  1.6389 -0.4130 -0.7061
   16RES   H250 4480   1.140   1.014   5.308 -0.2654 -0.1361 -0.4546
   16RES   H251 4481   1.049   1.210   5.379  0.8609 -1.7600  1.3224
   16RES   H252 4482   0.913   1.171   5.486  2.1468 -2.2168  1.0183
   16RES   H253 4483   0.882   1.219   5.317  0.8837 -0.6773 -1.8045
   16RES   O254 4484   1.015   0.867   5.153 -0.0490 -0.1253  0.0521
   16RES   C255 4485   0.956   0.761   5.079 -0.2064 -0.2645  0.1077
   16RES   C256 4486   0.868   0.810   4.961 -0.4036 -0.3032 -0.2793
   16RES   C257 4487   0.767   0.913   5.002  0.5273  0.0375  0.7123
   16RES   O258 4488   0.655   0.925   4.914  0.5455 -0.7261 -0.3412
   16RES   C259 4489   0.560   1.010   4.972 -0.9887  0.2843  0.5382
   16RES   H260 4490   1.035   0.696   5.044 -0.2419 -0.8570  1.1040
   16RES   H261 4491   0.892   0.702   5.145 -1.5981  0.3827 -0.6419
   16RES   H262 4492   0.811   0.724   4.924  0.8650 -1.4045  0.2870
   16RES   H263 4493   0.720   0.879   5.095  0.5307  0.6670  0.9489
   16RES   H264 4494   0.814   1.008   5.025 -0.3595  0.7384 -0.3550
   16RES   H265 4495   0.508   0.954   5.051 -0.4128  1.4627  1.7669
   16RES   H266 4496   0.491   1.046   4.895  0.1649  1.3093 -0.0288
   16RES   H267 4497   0.606   1.100   5.012 -3.9598  1.5915  1.1891
   16RES   O268 4498   0.959   0.843   4.861  0.4404  0.1629 -0.4788
   16RES   C269 4499   0.921   0.828   4.726  0.4249 -0.0582  0.1216
   16RES   C270 4500   1.053   0.812   4.655 -0.0378 -0.9304 -0.4605
   16RES   C271 4501   1.136   0.943   4.646 -0.6660 -0.9156 -0.0346
   16RES   O272 4502   1.266   0.919   4.610 -0.3919 -0.4542  0.5140
   16RES   C273 4503   1.352   0.940   4.718 -0.6440  0.8995  0.3326
   16RES   H274 4504   0.869   0.917   4.693  0.5177  0.5019  1.4620
   16RES   H275 4505   0.853   0.744   4.710 -0.4471  0.5453  0.5990
   16RES   H276 4506   1.115   0.741   4.710 -0.4027  0.1288  1.3751
   16RES   H277 4507   1.134   0.999   4.740  1.7705  0.1035 -0.5569
   16RES   H278 4508   1.093   1.011   4.573 -0.3423 -1.2472 -0.5351
   16RES   H279 4509   1.369   1.045   4.741 -0.3583  1.4282 -2.1433
   16RES   H280 4510   1.452   0.906   4.690 -0.4660  2.3299 -0.8258
   16RES   H281 4511   1.336   0.878   4.806  0.2180  2.3418  1.5284
   16RES   H282 4512   1.023   0.767   4.561 -0.4279  1.4216 -1.5091
   17RES     O1 4513   6.402   4.542   0.859  0.3016 -0.2688  0.0575
   17RES     C2 4514   6.276   4.606   0.840  0.8614 -0.1169  0.4333
   17RES     C3 4515   6.183   4.582   0.962  0.5995 -0.2070  0.2768
   17RES     C4 4516   6.088   4.704   0.968  0.1185 -0.3026 -0.3990
   17RES     O5 4517   6.036   4.718   1.105  0.3152 -0.2858  0.2504
   17RES     C6 4518   5.947   4.828   1.124 -0.2273  0.7875  0.0069
   17RES     H7 4519   6.304   4.711   0.844 -0.1717  0.1189  2.0221
   17RES     H8 4520   6.225   4.591   0.745 -0.7022  2.3931  0.8347
   17RES     H9 4521   6.248   4.592   1.049  0.6927  2.5357 -0.0531
   17RES    H10 4522   6.005   4.701   0.897  2.9216 -0.1184 -3.8170
   17RES    H11 4523   6.147   4.795   0.961  1.7643 -1.5492 -3.3871
   17RES    H12 4524   5.872   4.814   1.046  1.6554  0.1510 -1.7271
   17RES    H13 4525   5.900   4.822   1.222 -5.4876  1.8055 -2.2875
   17RES    H14 4526   6.008   4.917   1.118  3.7958 -1.9336 -1.3579
   17RES    H15 4527   6.425   4.570   0.946  0.9095  0.0588 -0.2070
   17RES    O16 4528   6.114   4.462   0.954  0.0506  0.5345  0.3800
   17RES    C17 4529   6.055   4.409   1.072 -0.5438  0.2295 -0.0047
   17RES    C18 4530   6.027   4.258   1.063  0.0125  0.3005 -0.1913
   17RES    C19 4531   5.958   4.206   1.193  0.5791 -0.3451  0.6228
   17RES    O20 4532   5.976   4.063   1.213  0.4824 -0.9487 -0.0617
   17RES    C21 4533   5.900   3.981   1.127 -0.1561 -0.1645 -0.0451
   17RES    H22 4534   5.960   4.455   1.097 -0.9680 -1.3578  1.4473
   17RES    H23 4535   6.131   4.425   1.149 -0.9092 -0.9328  0.6125
   17RES    H24 4536   6.117   4.196   1.056  0.0440  0.4418 -1.1130
   17RES    H25 4537   6.013   4.241   1.280  0.9307  1.3322 -0.2521
   17RES    H26 4538   5.853   4.237   1.200  0.7567  1.0483 -2.0315
   17RES    H27 4539   5.796   4.010   1.136  0.0891  0.2684  1.5203
   17RES    H28 4540   5.903   3.875   1.153 -0.4141 -0.3886 -0.9131
   17RES    H29 4541   5.928   3.981   1.022 -1.1300  1.2174 -0.3143
   17RES    O30 4542   5.946   4.238   0.953 -0.1320 -0.2042 -0.6976
   17RES    C31 4543   6.017   4.201   0.834 -0.8211  0.7174  0.0665
   17RES    C32 4544   5.918   4.212   0.718 -0.5717 -0.1167 -0.5542
   17RES    C33 4545   5.985   4.156   0.588  0.0544  0.3100 -0.2851
   17RES    O34 4546   5.885   4.091   0.508 -0.5314  0.9134 -0.0366
   17RES    C35 4547   5.937   4.063   0.370  0.1842  0.2276 -1.2929
   17RES    H36 4548   6.100   4.265   0.808 -0.6819 -0.3185 -2.1611
   17RES    H37 4549   6.042   4.095   0.845  0.3121  1.0708  0.9500
   17RES    H38 4550   5.830   4.159   0.753 -0.7236  0.8386  0.5436
   17RES    H39 4551   6.058   4.077   0.606 -0.9816 -0.6649 -0.2927
   17RES    H40 4552   6.034   4.234   0.530 -0.4849 -0.4659 -1.8117
   17RES    H41 4553   5.977   4.156   0.331  1.3641  1.2661  2.1849
   17RES    H42 4554   5.852   4.021   0.316  0.6264 -3.9658  1.0457
   17RES    H43 4555   6.017   3.990   0.368  0.9409  1.0771 -2.2426
   17RES    O44 4556   5.901   4.350   0.679 -0.6724 -0.0711 -0.4281
   17RES    C45 4557   5.777   4.374   0.619  0.0465  0.3751 -0.0771
   17RES    C46 4558   5.771   4.512   0.544  0.2726  0.0716 -0.2900
   17RES    C47 4559   5.839   4.627   0.624 -0.3113 -0.1242 -0.5000
   17RES    O48 4560   5.769   4.747   0.601 -0.1207  0.1105 -0.3528
   17RES    C49 4561   5.832   4.864   0.644  0.5421 -0.3380  0.4385
   17RES    H50 4562   5.696   4.371   0.692  0.6878  1.8759  0.7284
   17RES    H51 4563   5.737   4.299   0.552 -0.7587  0.8091 -0.0981
   17RES    H52 4564   5.665   4.534   0.529 -0.0096 -1.3183 -0.4551
   17RES    H53 4565   5.829   4.606   0.730 -0.0034  1.1746 -0.1968
   17RES    H54 4566   5.943   4.624   0.591 -0.1087 -0.8666  0.1894
   17RES    H55 4567   5.908   4.906   0.579 -0.7877  1.3602 -0.0405
   17RES    H56 4568   5.870   4.849   0.745  1.9072  1.0218  0.1329
   17RES    H57 4569   5.756   4.942   0.650 -1.0355 -1.6633 -1.6673
   17RES    O58 4570   5.827   4.513   0.414 -0.2853 -0.4602 -0.0324
   17RES    C59 4571   5.787   4.424   0.318 -0.0235  0.0605 -0.6144
   17RES    C60 4572   5.869   4.455   0.189  0.2723  0.3518  0.4702
   17RES    C61 4573   5.792   4.386   0.069  0.2436  0.1588 -0.0106
   17RES    O62 4574   5.871   4.386   7.765 -0.4055  0.2467 -0.0663
   17RES    C63 4575   5.854   4.502   7.690 -0.3729  0.0587  0.5398
   17RES    H64 4576   5.678   4.431   0.311 -0.3402 -1.1121  2.3759
   17RES    H65 4577   5.796   4.318   0.341 -0.9578 -0.2124 -1.4587
   17RES    H66 4578   5.873   4.562   0.168  0.0116  0.3651  0.4834
   17RES    H67 4579   5.780   4.279   0.082  0.4986 -0.0512 -1.3628
   17RES    H68 4580   5.694   4.424   0.041  0.6297  0.6768 -0.6942
   17RES    H69 4581   5.924   4.582   7.713  0.5485 -0.1417 -1.4060
   17RES    H70 4582   5.752   4.538   7.700 -0.5729 -0.4577  0.3721
   17RES    H71 4583   5.868   4.476   7.585 -0.6998 -1.3007  0.8221
   17RES    O72 4584   5.988   4.386   0.207  0.0197  0.0404  0.7582
   17RES    C73 4585   6.097   4.462   0.262  0.7153  0.1359 -0.1906
   17RES    C74 4586   6.201   4.366   0.318 -0.3685  0.2389 -0.0922
   17RES    C75 4587   6.308   4.430   0.409 -0.2344 -0.2116  0.1443
   17RES    O76 4588   6.409   4.342   0.453  0.3165  0.2262  0.2039
   17RES    C77 4589   6.354   4.251   0.549 -0.1206 -0.0744 -0.0167
   17RES    H78 4590   6.144   4.523   0.186  0.6954 -2.4366 -2.3188
   17RES    H79 4591   6.067   4.539   0.333  0.3755 -0.4843  0.3470
   17RES    H80 4592   6.142   4.285   0.361 -2.1627  1.6014  0.0371
   17RES    H81 4593   6.258   4.488   0.486 -2.0130  0.4041 -1.4491
   17RES    H82 4594   6.368   4.507   0.360  0.0265 -0.5201 -0.0274
   17RES    H83 4595   6.271   4.188   0.518 -0.6870 -0.0447  1.3873
   17RES    H84 4596   6.335   4.296   0.647 -0.6798  0.6637 -0.4549
   17RES    H85 4597   6.430   4.175   0.562 -2.3415 -1.9636  2.6628
   17RES    O86 4598   6.263   4.336   0.189 -0.4865  0.2211  0.9110
   17RES    C87 4599   6.340   4.217   0.182  0.3008  0.0215  0.4387
   17RES    C88 4600   6.373   4.170   0.038 -0.2540  0.5889 -0.4151
   17RES    C89 4601   6.515   4.112   0.030  0.1356  0.0901 -0.3776
   17RES    O90 4602   6.559   4.082   7.720 -0.3120  0.1778 -0.0281
   17RES    C91 4603   6.701   4.087   7.707 -0.5876 -1.1709 -0.2438
   17RES    H92 4604   6.428   4.248   0.237  0.6920 -0.8035  0.2852
   17RES    H93 4605   6.288   4.137   0.234  0.6541 -0.6980 -0.3007
   17RES    H94 4606   6.369   4.259   7.792  1.5108  0.4741 -0.7249
   17RES    H95 4607   6.581   4.190   0.069  0.9226 -0.6680 -0.1857
   17RES    H96 4608   6.531   4.025   0.094 -1.8671 -2.5331 -3.2678
   17RES    H97 4609   6.750   4.045   7.795 -2.0458 -1.3334  0.5253
   17RES    H98 4610   6.734   4.026   7.623 -0.7571 -0.0314 -1.1416
   17RES    H99 4611   6.736   4.188   7.689 -0.3276 -1.1982  0.1048
   17RES   O100 4612   6.285   4.068   0.007 -0.3855 -0.3728  0.2253
   17RES   C101 4613   6.148   4.109   7.802 -1.2193  0.2827  0.2796
   17RES   C102 4614   6.075   3.977   7.786  0.6617 -0.5370  0.0368
   17RES   C103 4615   5.926   3.993   7.735 -0.5461 -0.0721  0.5507
   17RES   O104 4616   5.862   3.867   7.709 -0.5061  0.3816  0.0113
   17RES   C105 4617   5.774   3.816   7.804  0.2869  0.0001  0.2573
   17RES   H106 4618   6.134   4.170   7.712 -0.5938 -0.1020 -0.0851
   17RES   H107 4619   6.098   4.174   0.057  1.1822 -0.1851  2.4477
   17RES   H108 4620   6.133   3.919   7.715  1.4444  0.0619  0.1793
   17RES   H109 4621   5.917   4.047   7.641 -0.8480 -2.2973 -0.7473
   17RES   H110 4622   5.883   4.051   7.816  1.6149  0.9618  0.9867
   17RES   H111 4623   5.734   3.722   7.767 -0.4982  0.6341 -0.5269
   17RES   H112 4624   5.696   3.886   0.018  0.7969  1.0250 -0.7284
   17RES   H113 4625   5.826   3.790   0.079  0.5249 -2.2769 -0.5018
   17RES   O114 4626   6.075   3.912   0.097  0.0653  0.9295  0.6650
   17RES   C115 4627   6.106   3.774   0.099 -0.0754  0.3730  0.4080
   17RES   C116 4628   6.155   3.736   0.230  0.3188  0.0367  1.4180
   17RES   C117 4629   6.270   3.823   0.281 -0.0112 -0.1078 -0.9544
   17RES   O118 4630   6.328   3.765   0.396  0.7129 -0.1293 -0.0045
   17RES   C119 4631   6.412   3.663   0.371  0.0384  0.2441  0.4399
   17RES   H120 4632   6.046   3.705   0.039  2.1110 -1.1349 -0.1280
   17RES   H121 4633   6.200   3.763   0.045  0.4219 -1.8007  1.6464
   17RES   H122 4634   6.194   3.635   0.219  0.1646 -0.1148  2.2215
   17RES   H123 4635   6.357   3.848   0.220  2.6581 -1.2616  2.2030
   17RES   H124 4636   6.223   3.915   0.315  0.5232 -0.0581 -0.3309
   17RES   H125 4637   6.496   3.696   0.309 -0.3449  0.7810  0.2077
   17RES   H126 4638   6.364   3.578   0.322 -1.8557  0.4277  1.9216
   17RES   H127 4639   6.471   3.631   0.457 -0.3488  1.3408  1.1230
   17RES   O128 4640   6.034   3.737   0.312 -0.1068 -0.4478 -0.1507
   17RES   C129 4641   6.035   3.662   0.435 -0.0060 -0.0383  0.8416
   17RES   C130 4642   5.905   3.695   0.514  0.7629 -0.8415  0.0755
   17RES   C131 4643   5.915   3.658   0.666  0.3540  0.0057 -0.0679
   17RES   O132 4644   5.805   3.704   0.747  0.0431  0.1024 -0.0477
   17RES   C133 4645   5.839   3.832   0.810  0.2443  0.1703  0.2893
   17RES   H134 4646   6.056   3.560   0.401  2.8621  1.3263 -1.7192
   17RES   H135 4647   6.120   3.698   0.493  2.0896 -0.0262 -2.1058
   17RES   H136 4648   5.878   3.799   0.498  0.7737 -0.8542 -0.0261
   17RES   H137 4649   6.007   3.696   0.711  0.2122 -0.0429  0.2693
   17RES   H138 4650   5.927   3.549   0.670  0.3582  0.0389  1.1992
   17RES   H139 4651   5.893   3.805   0.901  0.8923  0.5242  0.0114
   17RES   H140 4652   5.887   3.908   0.748 -2.0120  0.6972 -0.8763
   17RES   H141 4653   5.739   3.873   0.825 -0.2464 -0.8977 -0.0374
   17RES   O142 4654   5.811   3.604   0.450  0.1390 -0.5437 -0.2290
   17RES   C143 4655   5.735   3.657   0.350 -0.0026 -0.0197  0.0840
   17RES   C144 4656   5.671   3.550   0.264  0.4875 -0.0973 -0.1270
   17RES   C145 4657   5.596   3.450   0.350 -0.3560 -0.0758 -0.0674
   17RES   O146 4658   5.491   3.396   0.268 -0.0072 -0.5577  0.2448
   17RES   C147 4659   5.403   3.323   0.347  0.7194 -0.0734 -0.4834
   17RES   H148 4660   5.655   3.718   0.394  0.5003  0.4955  0.2954
   17RES   H149 4661   5.800   3.715   0.285  2.2598 -3.7224 -1.0607
   17RES   H150 4662   5.596   3.610   0.213 -1.6772 -0.1991  2.7975
   17RES   H151 4663   5.554   3.498   0.439  3.4515  0.5415  1.5190
   17RES   H152 4664   5.660   3.367   0.378 -0.8824 -0.7178 -0.7711
   17RES   H153 4665   5.460   3.261   0.416 -0.3707  0.6373  1.0822
   17RES   H154 4666   5.329   3.266   0.290 -0.7410  1.3286 -0.0251
   17RES   H155 4667   5.337   3.390   0.403 -0.0393 -0.2030 -1.2123
   17RES   O156 4668   5.763   3.479   0.183  0.2116  0.3047 -0.2832
   17RES   C157 4669   5.703   3.401   0.082  0.6837 -0.2329  0.5248
   17RES   C158 4670   5.801   3.394   7.784  0.9478  0.2033  0.4788
   17RES   C159 4671   5.723   3.411   7.654 -0.4950  0.8565 -0.1148
   17RES   O160 4672   5.811   3.483   7.570  0.2093  0.0407 -0.3925
   17RES   C161 4673   5.795   3.449   7.437  0.1002  0.5347 -0.3506
   17RES   H162 4674   5.667   3.312   0.134 -3.7319  1.6131  0.8451
   17RES   H163 4675   5.606   3.440   0.049 -0.3998 -2.6706  0.7375
   17RES   H164 4676   5.869   3.479   7.797  0.3169  0.8294 -0.2883
   17RES   H165 4677   5.711   3.307   7.623 -2.8140  0.9681  0.3336
   17RES   H166 4678   5.625   3.458   7.658 -2.1453 -2.4336  0.2796
   17RES   H167 4679   5.849   3.357   7.412  0.2018  0.5076 -0.0425
   17RES   H168 4680   5.843   3.535   7.391  3.2252  0.7895  3.1842
   17RES   H169 4681   5.693   3.442   7.399  0.4349 -0.8517 -1.0395
   17RES   O170 4682   5.877   3.272   7.776 -0.3695 -0.3021 -0.2427
   17RES   C171 4683   6.005   3.274   7.721  0.0928  0.0831 -0.3280
   17RES   C172 4684   6.112   3.337   0.005  0.2797  0.6615 -0.3285
   17RES   C173 4685   6.224   3.396   7.740 -0.4045  0.3804  0.2324
   17RES   O174 4686   6.319   3.467   0.006 -0.2394  0.0959  0.6075
   17RES   C175 4687   6.418   3.521   7.735 -0.1847  0.1370  0.0289
   17RES   H176 4688   6.007   3.332   7.629  2.4359  0.8967  0.1861
   17RES   H177 4689   6.045   3.178   7.689 -2.2506 -1.3676  0.9754
   17RES   H178 4690   6.063   3.410   0.069 -0.6067  1.3281 -1.7591
   17RES   H179 4691   6.284   3.325   7.684  0.6090  1.3012  0.1336
   17RES   H180 4692   6.173   3.457   7.666  1.4158  2.6368  0.7825
   17RES   H181 4693   6.459   3.605   7.790  1.8145 -0.7960  0.0168
   17RES   H182 4694   6.370   3.562   7.646  2.8364  2.7531 -0.4733
   17RES   H183 4695   6.501   3.458   7.703 -1.5372 -0.6643 -2.0765
   17RES   O184 4696   6.160   3.222   0.077 -0.2962  1.0640 -0.2379
   17RES   C185 4697   6.214   3.242   0.205  0.0477 -0.0890 -0.9800
   17RES   C186 4698   6.120   3.272   0.321  0.2161  0.0337 -0.3210
   17RES   C187 4699   6.189   3.298   0.460  0.0825 -0.2206  0.2678
   17RES   O188 4700   6.091   3.326   0.557 -0.5343  0.0454  0.0990
   17RES   C189 4701   6.154   3.357   0.681  0.0993  0.0376 -0.1636
   17RES   H190 4702   6.282   3.327   0.208 -0.7963  0.5841 -0.6359
   17RES   H191 4703   6.276   3.159   0.237 -0.8410 -0.1749  0.5302
   17RES   H192 4704   6.068   3.356   0.274  2.0664  0.1949 -2.1326
   17RES   H193 4705   6.257   3.381   0.443 -0.2424 -0.4003 -2.1336
   17RES   H194 4706   6.253   3.214   0.486  1.3298 -0.3407 -2.9321
   17RES   H195 4707   6.237   3.426   0.666 -0.5644  0.6600 -1.0677
   17RES   H196 4708   6.081   3.393   0.753  0.1892  1.9158 -0.9851
   17RES   H197 4709   6.197   3.267   0.724  0.2772  0.4506  0.5322
   17RES   O198 4710   6.038   3.157   0.336  0.4617 -0.0621 -0.4119
   17RES   C199 4711   5.902   3.194   0.329 -0.3330  0.2049 -0.2483
   17RES   C200 4712   5.811   3.076   0.356 -0.2153 -0.1357  0.1059
   17RES   C201 4713   5.869   2.964   0.442  0.6259  0.2532  0.3692
   17RES   O202 4714   5.765   2.888   0.504  0.2656  0.4005 -0.7238
   17RES   C203 4715   5.826   2.767   0.564 -0.3480 -0.3695 -0.1313
   17RES   H204 4716   5.864   3.249   0.242 -1.5694  0.8772  0.7128
   17RES   H205 4717   5.879   3.265   0.408 -2.4774  1.1149 -1.6284
   17RES   H206 4718   5.734   3.106   0.428 -3.1877 -1.5566 -2.3767
   17RES   H207 4719   5.928   2.893   0.384 -0.4775 -2.3810  2.3917
   17RES   H208 4720   5.943   3.003   0.512 -2.2329  2.5200  2.2345
   17RES   H209 4721   5.763   2.720   0.639 -1.5150  0.5941 -0.5064
   17RES   H210 4722   5.918   2.805   0.610 -0.4530  0.4855 -0.6200
   17RES   H211 4723   5.867   2.699   0.489  2.3634 -0.6484  1.5033
   17RES   O212 4724   5.765   3.017   0.233  0.2496  1.0688 -0.4248
   17RES   C213 4725   5.623   3.033   0.214 -0.0387 -0.1359  0.2460
   17RES   C214 4726   5.580   2.994   0.075  0.9159  0.1281  0.2231
   17RES   C215 4727   5.677   3.026   7.769 -0.4808 -0.2344 -0.5915
   17RES   O216 4728   5.662   2.926   7.666 -0.0209  0.4435 -0.1604
   17RES   C217 4729   5.756   2.930   7.561 -0.1956  0.1393 -0.2509
   17RES   H218 4730   5.602   3.137   0.240 -0.2812 -0.1137 -0.0380
   17RES   H219 4731   5.574   2.976   0.293 -3.7391  0.5834 -1.4433
   17RES   H220 4732   5.565   2.886   0.077 -0.4698  0.3221  0.9912
   17RES   H221 4733   5.658   3.127   7.732  2.3452  0.3258 -0.6516
   17RES   H222 4734   5.783   3.024   7.797 -0.9530 -0.4616  1.2346
   17RES   H223 4735   5.719   2.848   7.499 -0.9526  0.3257 -0.0495
   17RES   H224 4736   5.857   2.903   7.595  0.8229  0.0022 -3.2828
   17RES   H225 4737   5.764   3.029   7.516  2.6367  0.2656  0.4205
   17RES   O226 4738   5.453   3.048   0.038 -0.1324  0.1317  0.5039
   17RES   C227 4739   5.352   2.990   0.120 -0.0553  0.3697 -0.9165
   17RES   C228 4740   5.223   3.036   0.052 -0.5633 -0.0090 -0.5606
   17RES   C229 4741   5.102   2.964   0.115  0.5726 -0.1071 -0.1118
   17RES   O230 4742   4.995   3.003   0.031  0.2175 -0.4334  0.2566
   17RES   C231 4743   4.869   2.935   0.050 -0.3631 -0.2212  0.6970
   17RES   H232 4744   5.360   3.008   0.227 -1.3905 -0.4563 -0.6639
   17RES   H233 4745   5.337   2.882   0.118 -0.6309  0.3589  1.8024
   17RES   H234 4746   5.230   3.010   7.764 -0.8300  1.8499 -1.0396
   17RES   H235 4747   5.076   3.014   0.208 -2.7013 -0.9911 -0.4988
   17RES   H236 4748   5.108   2.855   0.123  1.5210 -0.1675 -1.4169
   17RES   H237 4749   4.869   2.830   0.019  0.9194  0.2299 -0.8448
   17RES   H238 4750   4.784   2.980   7.817 -1.1726 -1.8845  0.5419
   17RES   H239 4751   4.842   2.962   0.152 -1.3866  1.3313  0.0375
   17RES   O240 4752   5.211   3.180   0.071  0.0571  0.3873  0.1396
   17RES   C241 4753   5.239   3.249   7.770 -0.4685  0.3228  0.0267
   17RES   C242 4754   5.249   3.391   0.011  0.3188  0.6362  0.4307
   17RES   C243 4755   5.280   3.485   7.710 -0.3564 -0.4736 -0.4050
   17RES   O244 4756   5.333   3.605   7.769  0.2407 -0.3055 -0.3093
   17RES   C245 4757   5.380   3.690   7.659  0.6469 -0.1531 -0.9297
   17RES   H246 4758   5.152   3.242   7.705 -0.4897  1.8370 -0.1082
   17RES   H247 4759   5.323   3.223   7.705 -2.1379 -0.6395 -1.8049
   17RES   H248 4760   5.332   3.395   0.082  0.8163 -2.0637  0.0564
   17RES   H249 4761   5.345   3.441   7.635 -0.5990 -0.0564 -0.8590
   17RES   H250 4762   5.185   3.512   7.664 -0.2210  3.1929  1.2978
   17RES   H251 4763   5.302   3.703   7.584  0.9819  1.9324 -0.9466
   17RES   H252 4764   5.467   3.635   7.624  0.8290 -0.5494  0.1419
   17RES   H253 4765   5.417   3.788   7.689  0.4577  0.1947 -1.7980
   17RES   O254 4766   5.122   3.427   0.071  0.3231  0.4559 -0.0930
   17RES   C255 4767   5.117   3.552   0.148 -0.0576 -0.3163  0.0664
   17RES   C256 4768   4.967   3.591   0.154 -0.1458 -0.1079 -0.5882
   17RES   C257 4769   4.888   3.502   0.244 -0.7259 -0.3742  0.1488
   17RES   O258 4770   4.751   3.525   0.219  0.6608  0.3607 -0.2842
   17RES   C259 4771   4.668   3.422   0.275 -0.4793  0.0153 -0.0105
   17RES   H260 4772   5.162   3.520   0.241  1.7461 -0.9778 -0.9989
   17RES   H261 4773   5.177   3.636   0.110  0.1668 -0.1139  0.8552
   17RES   H262 4774   4.933   3.611   0.052 -0.7452  2.4863  0.0747
   17RES   H263 4775   4.917   3.403   0.209 -1.0967 -0.0893 -0.9991
   17RES   H264 4776   4.906   3.517   0.350 -0.9273  2.5042 -0.1745
   17RES   H265 4777   4.705   3.328   0.235  3.9574  1.0602  1.4184
   17RES   H266 4778   4.559   3.430   0.269 -0.3093  1.2776 -2.1679
   17RES   H267 4779   4.698   3.414   0.379 -2.5665 -0.4216  0.5858
   17RES   O268 4780   4.991   3.715   0.214 -0.2288 -0.3855 -0.4984
   17RES   C269 4781   4.885   3.807   0.199 -0.0486 -0.3881  0.6909
   17RES   C270 4782   4.921   3.938   0.280  0.4428  0.2359  0.1079
   17RES   C271 4783   5.021   4.028   0.217 -0.0684 -0.2286  0.0504
   17RES   O272 4784   4.945   4.108   0.126  0.1238 -0.9086  0.0168
   17RES   C273 4785   5.031   4.189   0.047 -0.1984 -0.4144  0.5371
   17RES   H274 4786   4.802   3.754   0.245 -1.1531 -0.6308 -1.5144
   17RES   H275 4787   4.872   3.826   0.092 -2.0000 -0.8446  0.8414
   17RES   H276 4788   4.827   3.991   0.297  1.2007  1.0472  1.8352
   17RES   H277 4789   5.103   3.973   0.172  1.3911 -0.4861  2.9001
   17RES   H278 4790   5.065   4.092   0.294 -1.4920 -0.4023  1.0172
   17RES   H279 4791   5.122   4.141   0.011 -0.7239  0.4674 -2.1282
   17RES   H280 4792   5.065   4.277   0.102  1.5176  0.5546 -1.9584
   17RES   H281 4793   4.978   4.229   7.778  2.9678  3.3100  0.1418
   17RES   H282 4794   4.938   3.916   0.385  0.0125  2.0935  0.5738
   18RES     O1 4795   0.458   5.806   5.862 -0.5619  0.0286 -0.7017
   18RES     C2 4796   0.490   5.941   5.843  0.4388 -0.3564  0.8057
   18RES     C3 4797   0.565   5.994   5.962  0.2129  0.2388  0.3926
   18RES     C4 4798   0.479   6.034   6.084  0.3334 -0.6213  0.1107
   18RES     O5 4799   0.521   6.162   6.140 -0.3795 -0.1650 -0.6062
   18RES     C6 4800   0.446   6.215   6.249  0.0236  0.2282  0.4040
   18RES     H7 4801   0.564   5.942   5.763 -0.1864 -1.7491  0.2024
   18RES     H8 4802   0.395   5.990   5.819  1.1034 -0.3065 -1.8942
   18RES     H9 4803   0.604   6.091   5.931 -0.8679  1.1162  1.7085
   18RES    H10 4804   0.483   5.960   6.163  1.7898  0.8695  1.4666
   18RES    H11 4805   0.377   6.044   6.047 -0.1162 -0.1514  1.4827
   18RES    H12 4806   0.497   6.195   6.343  2.8678 -1.1345 -1.3695
   18RES    H13 4807   0.437   6.322   6.232  0.8494  0.3466  0.7113
   18RES    H14 4808   0.346   6.170   6.252  0.1191 -0.1919 -1.8182
   18RES    H15 4809   0.536   5.753   5.866 -0.9071 -0.5510 -1.5850
   18RES    O16 4810   0.674   5.906   5.985  0.3827  0.1152  0.2478
   18RES    C17 4811   0.776   5.979   6.050 -0.0274 -0.0262 -0.2441
   18RES    C18 4812   0.887   5.890   6.112  0.7043  0.0611 -0.2739
   18RES    C19 4813   1.001   5.973   6.165 -0.4311  0.2404 -0.1483
   18RES    O20 4814   1.104   5.903   6.232 -0.3923 -0.0501 -0.2968
   18RES    C21 4815   1.207   5.992   6.272 -0.2210 -0.9508  0.2645
   18RES    H22 4816   0.737   6.037   6.133 -4.0048 -0.2154 -1.8619
   18RES    H23 4817   0.824   6.045   5.979  0.6079  2.2192  2.2158
   18RES    H24 4818   0.939   5.821   6.045 -0.2802 -0.9202 -0.0531
   18RES    H25 4819   1.046   6.016   6.075  0.5600  0.1692  0.3007
   18RES    H26 4820   0.958   6.042   6.236  1.3364  0.1493  1.0548
   18RES    H27 4821   1.233   6.074   6.205  0.1921 -0.7951  0.6137
   18RES    H28 4822   1.292   5.931   6.302  1.1374  1.5166  1.6034
   18RES    H29 4823   1.180   6.046   6.363  1.2490 -1.7975  1.2103
   18RES    O30 4824   0.851   5.810   6.221 -0.5293  0.1871 -0.2311
   18RES    C31 4825   0.759   5.698   6.185  0.2065 -0.5683  0.7071
   18RES    C32 4826   0.741   5.599   6.303  0.0706  0.4674 -0.1819
   18RES    C33 4827   0.689   5.464   6.250 -0.7131  0.3055 -0.2690
   18RES    O34 4828   0.686   5.351   6.339 -0.2439 -0.2066 -0.3126
   18RES    C35 4829   0.633   5.233   6.272  0.1604  0.5996 -0.5572
   18RES    H36 4830   0.663   5.735   6.148  0.7260 -1.2614 -1.4551
   18RES    H37 4831   0.808   5.648   6.101 -0.8388  0.6375 -0.6577
   18RES    H38 4832   0.841   5.583   6.341  0.0758  1.5677  0.2712
   18RES    H39 4833   0.747   5.436   6.162 -0.4440  0.0463 -0.0115
   18RES    H40 4834   0.592   5.479   6.203  0.2449 -2.8539 -3.4778
   18RES    H41 4835   0.705   5.198   6.198 -0.6787 -3.2194  0.3131
   18RES    H42 4836   0.531   5.251   6.238 -1.2651 -1.7711  2.2861
   18RES    H43 4837   0.634   5.146   6.338 -0.2951  0.5989 -0.5511
   18RES    O44 4838   0.653   5.662   6.395 -0.0559  0.3722  0.6924
   18RES    C45 4839   0.721   5.732   6.493 -0.0481 -0.4705 -0.1264
   18RES    C46 4840   0.681   5.680   6.628  0.0562 -0.6333 -0.2753
   18RES    C47 4841   0.792   5.696   6.736 -0.4460  1.0216  0.0995
   18RES    O48 4842   0.826   5.833   6.771 -0.6176  0.0524  0.2190
   18RES    C49 4843   0.891   5.854   6.892  0.0238  0.7924 -0.0943
   18RES    H50 4844   0.699   5.839   6.491  2.3511  0.0506 -1.3863
   18RES    H51 4845   0.829   5.727   6.475  0.2373 -0.0007  1.4536
   18RES    H52 4846   0.666   5.574   6.607  1.4314 -1.3400  2.1985
   18RES    H53 4847   0.774   5.639   6.828  0.9968 -0.6029 -0.5929
   18RES    H54 4848   0.881   5.649   6.695 -1.6959  1.1260 -2.7877
   18RES    H55 4849   0.832   5.816   6.975  0.5351  0.1446 -0.0295
   18RES    H56 4850   0.909   5.960   6.912  2.9372  0.1386  0.9026
   18RES    H57 4851   0.989   5.808   6.888 -0.3556  0.0039 -0.4401
   18RES    O58 4852   0.555   5.731   6.674  0.1603 -0.3357  0.0527
   18RES    C59 4853   0.485   5.638   6.756  0.5312 -0.0132  0.3035
   18RES    C60 4854   0.382   5.556   6.679 -0.6148 -0.3323  0.0557
   18RES    C61 4855   0.271   5.504   6.777 -0.1106 -0.1056  0.1203
   18RES    O62 4856   0.322   5.413   6.870 -0.1456  0.0198 -0.0394
   18RES    C63 4857   0.223   5.347   6.943 -0.0667 -0.5397  0.0605
   18RES    H64 4858   0.433   5.691   6.835  0.0224  1.8412 -1.2299
   18RES    H65 4859   0.552   5.577   6.816 -2.6083 -2.1160  1.8085
   18RES    H66 4860   0.331   5.611   6.599 -0.1219  1.3799  0.8938
   18RES    H67 4861   0.223   5.585   6.832 -1.4179  0.4818 -1.8263
   18RES    H68 4862   0.194   5.460   6.713  0.9825 -0.1698 -1.1656
   18RES    H69 4863   0.150   5.307   6.873  0.1157  1.6162 -1.4123
   18RES    H70 4864   0.169   5.420   7.003  1.6213  0.3126  0.5788
   18RES    H71 4865   0.271   5.268   7.001 -1.2138 -1.6748 -0.5029
   18RES    O72 4866   0.444   5.445   6.614  0.4376  0.7155  0.0070
   18RES    C73 4867   0.361   5.367   6.526 -0.1213  0.4999  0.0206
   18RES    C74 4868   0.326   5.222   6.583  0.2166  0.0971 -0.3927
   18RES    C75 4869   0.436   5.113   6.566  0.0771 -0.3689 -0.2758
   18RES    O76 4870   0.420   4.994   6.646  0.7762 -0.6986  0.1099
   18RES    C77 4871   0.462   4.997   6.776  0.6280 -0.1013 -0.4260
   18RES    H78 4872   0.273   5.429   6.514  0.1220  0.8182 -0.1252
   18RES    H79 4873   0.411   5.363   6.429  0.6992  1.3573  0.3922
   18RES    H80 4874   0.300   5.243   6.687 -1.9275  0.1268 -0.9053
   18RES    H81 4875   0.532   5.157   6.595 -0.1326 -0.3118  0.3392
   18RES    H82 4876   0.442   5.088   6.460 -1.3522 -3.8079  0.3891
   18RES    H83 4877   0.561   5.035   6.801  1.3679 -1.9491 -0.4456
   18RES    H84 4878   0.465   4.894   6.812 -1.6455  0.5979  1.9253
   18RES    H85 4879   0.391   5.055   6.836  0.8876 -0.8785  0.6573
   18RES    O86 4880   0.206   5.189   6.514 -0.2015 -0.0942  0.2423
   18RES    C87 4881   0.131   5.080   6.573  0.1463 -0.0320 -0.9099
   18RES    C88 4882   7.815   5.058   6.505 -0.1932 -0.6333 -0.1550
   18RES    C89 4883   7.755   4.917   6.536  0.3163 -0.6336  0.0939
   18RES    O90 4884   7.712   4.901   6.672  0.0653 -0.2704  0.0930
   18RES    C91 4885   7.583   4.940   6.702 -0.1016 -0.0013  0.7225
   18RES    H92 4886   0.187   4.988   6.562  2.0158  1.0316 -0.4204
   18RES    H93 4887   0.114   5.098   6.680  1.9901 -0.1482 -0.5940
   18RES    H94 4888   0.028   5.054   6.400 -1.4133 -1.1815 -0.4888
   18RES    H95 4889   7.673   4.894   6.467 -0.2585  1.4328  0.0591
   18RES    H96 4890   0.015   4.846   6.506  2.4649  0.6544  2.4816
   18RES    H97 4891   7.549   5.038   6.669 -0.4264 -0.0029  1.0380
   18RES    H98 4892   7.511   4.872   6.657  0.5914 -1.4588  1.7702
   18RES    H99 4893   7.554   4.936   6.807 -0.3095  2.5257  0.8082
   18RES   O100 4894   7.713   5.162   6.531  0.0649  0.5709 -0.2236
   18RES   C101 4895   7.736   5.288   6.468 -0.1465  0.1383  0.3939
   18RES   C102 4896   7.629   5.389   6.513  0.0044  0.4830  0.3653
   18RES   C103 4897   7.652   5.530   6.458 -0.4352  0.1165 -0.0777
   18RES   O104 4898   7.532   5.598   6.430  0.1877  0.1023  0.2289
   18RES   C105 4899   7.543   5.713   6.346  0.0613 -0.4361 -0.2997
   18RES   H106 4900   7.726   5.267   6.362 -0.2182 -1.8335  0.7821
   18RES   H107 4901   0.018   5.329   6.489 -0.3396  0.8244  0.0025
   18RES   H108 4902   7.537   5.339   6.483  0.5053 -1.3283  1.7526
   18RES   H109 4903   7.714   5.523   6.368  0.4123  1.1377  0.4065
   18RES   H110 4904   7.713   5.584   6.531  0.7980 -1.6925  0.2588
   18RES   H111 4905   7.636   5.762   6.371  0.0962 -0.9371  0.5371
   18RES   H112 4906   7.458   5.778   6.371 -0.2415 -1.1402  0.5077
   18RES   H113 4907   7.545   5.696   6.238  0.7154  0.7219 -0.4747
   18RES   O114 4908   7.633   5.394   6.660 -0.2006 -0.0187  0.4410
   18RES   C115 4909   7.504   5.423   6.722 -0.9082 -0.5045 -0.7435
   18RES   C116 4910   7.534   5.449   6.876  0.5940 -0.6922 -0.4522
   18RES   C117 4911   7.414   5.507   6.942 -0.1541  0.4017 -0.3901
   18RES   O118 4912   7.458   5.537   7.079 -1.1165 -0.1489  0.3206
   18RES   C119 4913   7.349   5.562   7.166  0.4391 -0.2101  0.5403
   18RES   H120 4914   7.471   5.514   6.672  0.5475  0.6074  0.2515
   18RES   H121 4915   7.419   5.357   6.708 -1.4523 -0.0486  0.3464
   18RES   H122 4916   7.615   5.522   6.886  0.2390 -0.2620 -0.6745
   18RES   H123 4917   7.390   5.601   6.892  2.5344 -0.5729 -3.6885
   18RES   H124 4918   7.329   5.440   6.925 -0.3858  0.6419 -0.1825
   18RES   H125 4919   7.265   5.498   7.138  1.9641 -0.3058 -4.1327
   18RES   H126 4920   7.325   5.665   7.142  2.4301 -1.0346 -5.9860
   18RES   H127 4921   7.386   5.541   7.267  2.5054 -0.3397 -0.2253
   18RES   O128 4922   7.565   5.326   6.933 -0.3150  0.2249 -0.2461
   18RES   C129 4923   7.691   5.270   6.925 -0.4420  0.1512 -0.1124
   18RES   C130 4924   7.704   5.158   7.029 -0.5036  0.0242 -0.0878
   18RES   C131 4925   7.673   5.201   7.175 -0.5108  0.2528 -0.2378
   18RES   O132 4926   7.690   5.093   7.260  0.3697 -0.7718 -0.0391
   18RES   C133 4927   7.682   5.133   7.397 -0.1979  0.8518 -0.1395
   18RES   H134 4928   7.718   5.229   6.827 -0.3738  0.4245 -0.2076
   18RES   H135 4929   7.755   5.355   6.946 -0.3596 -0.0451  0.4454
   18RES   H136 4930   7.634   5.077   7.006  2.0753 -2.4271  0.3593
   18RES   H137 4931   7.565   5.218   7.178 -0.8066 -1.5212 -0.1723
   18RES   H138 4932   7.743   5.282   7.195  0.4102 -0.2144 -1.5437
   18RES   H139 4933   7.681   5.055   7.474 -0.2579  1.1030  0.1143
   18RES   H140 4934   7.755   5.209   7.422  1.5571 -0.7867 -0.1497
   18RES   H141 4935   7.580   5.169   7.406 -1.0913 -1.7500  0.7073
   18RES   O142 4936   0.021   5.113   7.016  0.1731  0.2124  0.2574
   18RES   C143 4937   0.041   4.973   7.011 -0.2386  0.0721 -0.4453
   18RES   C144 4938   0.189   4.958   7.066 -0.9745  0.1607  0.0700
   18RES   C145 4939   0.236   4.813   7.041  0.0158 -0.5978 -0.3626
   18RES   O146 4940   0.371   4.795   7.084  0.1828  0.0501 -0.1920
   18RES   C147 4941   0.422   4.671   7.058 -0.0680 -0.5497 -0.5843
   18RES   H148 4942   7.782   4.920   7.069 -0.1171 -0.7503 -1.0273
   18RES   H149 4943   0.048   4.932   6.910  0.1745  2.3380 -1.3518
   18RES   H150 4944   0.256   5.023   7.010  1.2853 -1.0918  1.2512
   18RES   H151 4945   0.231   4.789   6.935  1.3278 -0.1161 -0.5563
   18RES   H152 4946   0.182   4.743   7.104  1.4004 -1.4195 -0.0723
   18RES   H153 4947   0.427   4.636   6.955  0.9047 -0.0016 -0.7281
   18RES   H154 4948   0.371   4.591   7.112  1.5410 -0.1297  1.6558
   18RES   H155 4949   0.524   4.678   7.098 -0.9659 -2.3145  2.1644
   18RES   O156 4950   0.211   4.983   7.202 -0.1284 -0.3098 -0.5478
   18RES   C157 4951   0.226   5.120   7.238 -0.1157 -0.3507  0.5993
   18RES   C158 4952   0.215   5.151   7.389  0.2640  0.4394 -0.0469
   18RES   C159 4953   0.206   5.304   7.394  0.4838 -0.3793 -0.8249
   18RES   O160 4954   0.200   5.326   7.535  0.1516 -0.1834  0.3558
   18RES   C161 4955   0.209   5.469   7.557  0.6641  0.6510  0.1556
   18RES   H162 4956   0.324   5.149   7.198 -0.2378  2.1855  1.9989
   18RES   H163 4957   0.158   5.183   7.181 -0.6092 -0.4854  1.0348
   18RES   H164 4958   0.126   5.118   7.441  1.1765  1.3379  2.1408
   18RES   H165 4959   0.297   5.336   7.343 -1.5623  1.7003 -3.3221
   18RES   H166 4960   0.112   5.342   7.353 -1.2487 -1.9881  1.4841
   18RES   H167 4961   0.114   5.520   7.569  0.5353  0.2253  0.9600
   18RES   H168 4962   0.268   5.515   7.478 -2.5325 -0.1733 -2.8387
   18RES   H169 4963   0.261   5.502   7.647  0.7236  0.6249  0.1306
   18RES   O170 4964   0.336   5.103   7.450  0.4569 -0.7560  0.5977
   18RES   C171 4965   0.326   4.972   7.492  0.5238 -0.5939 -0.2190
   18RES   C172 4966   0.463   4.912   7.444  0.6771  0.2547 -0.4406
   18RES   C173 4967   0.468   4.754   7.446 -0.1973 -0.2069 -0.0143
   18RES   O174 4968   0.562   4.698   7.355 -0.1129 -0.6929 -0.1623
   18RES   C175 4969   0.553   4.559   7.351 -0.2660  1.0344 -0.3260
   18RES   H176 4970   0.240   4.917   7.453 -0.1027  0.1409  0.1150
   18RES   H177 4971   0.326   4.962   7.601 -0.2971 -1.2483 -0.2736
   18RES   H178 4972   0.487   4.940   7.342  0.3949  0.5632 -0.4232
   18RES   H179 4973   0.491   4.731   7.550 -1.8788 -0.0478  0.3993
   18RES   H180 4974   0.370   4.707   7.436  0.3412 -1.5613  0.8793
   18RES   H181 4975   0.474   4.513   7.292  0.7125 -0.6389 -0.3643
   18RES   H182 4976   0.565   4.496   7.439 -0.0241 -1.0268 -1.7846
   18RES   H183 4977   0.640   4.528   7.293 -0.9352  2.6800 -2.2654
   18RES   O184 4978   0.567   4.969   7.531  0.7206  0.4268 -0.0234
   18RES   C185 4979   0.698   4.994   7.478  0.9160  0.9094  0.3430
   18RES   C186 4980   0.796   5.047   7.585 -0.3084  0.1409  0.1101
   18RES   C187 4981   0.907   5.126   7.513 -0.1652  0.2071 -0.4383
   18RES   O188 4982   1.000   5.176   7.601 -0.0582 -0.3294  0.0193
   18RES   C189 4983   1.088   5.263   7.544 -0.2700  0.1620 -0.8072
   18RES   H190 4984   0.680   5.052   7.388 -1.0985  0.1639  0.2458
   18RES   H191 4985   0.730   4.895   7.444  0.0863  0.3810  1.0659
   18RES   H192 4986   0.742   5.105   7.660 -0.7414 -2.4175  1.8277
   18RES   H193 4987   0.858   5.209   7.463 -0.3828  0.3899  0.0804
   18RES   H194 4988   0.959   5.060   7.444  0.3331  1.8582 -1.6585
   18RES   H195 4989   1.038   5.344   7.491 -1.3487 -0.1929 -0.3406
   18RES   H196 4990   1.157   5.299   7.620  1.9680  1.7564 -3.4828
   18RES   H197 4991   1.164   5.211   7.485  0.7903 -0.0058  0.6937
   18RES   O198 4992   0.866   4.937   7.646  0.0885 -0.3348 -0.4497
   18RES   C199 4993   0.869   4.956   7.785 -0.4591 -0.1877  0.0141
   18RES   C200 4994   0.936   4.843   0.047  0.2299  0.1273  0.1221
   18RES   C201 4995   1.091   4.867   0.059  1.0084 -0.2347  0.3915
   18RES   O202 4996   1.142   4.794   0.169 -0.1918 -0.2153 -0.1095
   18RES   C203 4997   1.266   4.838   0.218  0.2232  0.2763 -0.0725
   18RES   H204 4998   0.766   4.959   0.005 -0.9779 -0.0263 -1.3803
   18RES   H205 4999   0.912   5.051   7.814 -0.3120  0.2734 -1.6527
   18RES   H206 5000   0.895   4.857   0.147  1.1811 -2.1848  0.8828
   18RES   H207 5001   1.134   4.837   7.780 -1.7974  2.2560 -1.7293
   18RES   H208 5002   1.112   4.974   0.063  1.0714 -0.0037 -3.6982
   18RES   H209 5003   1.269   4.934   0.270 -1.0951  0.7873 -0.9374
   18RES   H210 5004   1.348   4.845   0.145 -0.6487 -2.1011 -1.3396
   18RES   H211 5005   1.290   4.764   0.294  0.5329  0.9882  0.5363
   18RES   O212 5006   0.894   4.715   7.810  0.4270 -0.0532  0.1222
   18RES   C213 5007   0.911   4.602   0.077  0.2507  0.0153 -0.1798
   18RES   C214 5008   0.847   4.476   0.001  0.3051  0.3674 -0.0570
   18RES   C215 5009   0.886   4.468   7.668  0.0911 -0.1290 -0.4570
   18RES   O216 5010   0.829   4.352   7.607  0.2012  0.0986 -0.3574
   18RES   C217 5011   0.879   4.340   7.473 -0.5705  0.0779 -0.9826
   18RES   H218 5012   0.853   4.618   0.167 -1.0190 -0.4667 -0.8990
   18RES   H219 5013   1.016   4.594   0.105  0.1546 -1.2661 -0.1626
   18RES   H220 5014   0.884   4.389   0.055 -1.2765  0.0052  0.4771
   18RES   H221 5015   0.865   4.559   7.612 -0.3258  1.2759  1.8797
   18RES   H222 5016   0.994   4.455   7.668  0.1748  0.4855 -2.1253
   18RES   H223 5017   0.987   4.330   7.459 -0.6942 -1.4557 -0.9832
   18RES   H224 5018   0.839   4.418   7.408  0.2249  1.1289 -0.2282
   18RES   H225 5019   0.848   4.242   7.436 -1.5651 -0.4120  1.0717
   18RES   O226 5020   0.706   4.491   0.005  0.0338 -0.3583 -0.7426
   18RES   C227 5021   0.638   4.381   0.056  0.0837  0.0657  0.2988
   18RES   C228 5022   0.482   4.397   0.035 -0.4013 -0.2342  0.9571
   18RES   C229 5023   0.397   4.270   0.063  0.2130  0.6094 -0.3932
   18RES   O230 5024   0.270   4.278   7.811  0.4486  0.0123 -0.0293
   18RES   C231 5025   0.189   4.168   0.033  0.1315 -0.0984 -0.2672
   18RES   H232 5026   0.672   4.360   0.158 -0.0359 -0.5913  0.2037
   18RES   H233 5027   0.670   4.288   0.008 -2.0394 -0.4864 -0.0615
   18RES   H234 5028   0.477   4.405   7.743  2.9433 -0.2145  0.7753
   18RES   H235 5029   0.373   4.270   0.169 -1.9964 -0.7254 -0.8483
   18RES   H236 5030   0.459   4.183   0.043  0.4410  0.6674  0.0676
   18RES   H237 5031   0.110   4.144   7.778  0.0165  0.2106 -0.2438
   18RES   H238 5032   0.122   4.199   0.113 -0.5060 -1.4908 -0.2541
   18RES   H239 5033   0.243   4.085   0.078 -2.3863 -0.8557  1.4944
   18RES   O240 5034   0.428   4.513   0.092  0.4601  0.0012  0.1100
   18RES   C241 5035   0.365   4.610   0.008  0.7981 -0.4062  0.0259
   18RES   C242 5036   0.374   4.745   0.074  0.9915 -0.6861 -1.0007
   18RES   C243 5037   0.512   4.808   0.112 -0.6213 -0.1199 -0.2523
   18RES   O244 5038   0.484   4.924   0.192  0.1487  0.3207 -1.2481
   18RES   C245 5039   0.595   5.004   0.225  0.1626 -0.4361 -0.4042
   18RES   H246 5040   0.260   4.584   7.811  0.4917  0.6995  0.1966
   18RES   H247 5041   0.418   4.625   7.732 -0.7033  0.7848 -0.6472
   18RES   H248 5042   0.325   4.725   0.170 -2.3415  0.6981 -2.3376
   18RES   H249 5043   0.575   4.737   0.166  1.6897  0.6900 -1.7889
   18RES   H250 5044   0.570   4.834   0.023 -0.9495 -1.2688 -0.8168
   18RES   H251 5045   0.564   5.087   0.288 -0.8035 -0.4971 -0.7917
   18RES   H252 5046   0.640   5.046   0.136  0.1155  0.8209  0.1554
   18RES   H253 5047   0.675   4.954   0.280  1.4663  2.2011  0.1732
   18RES   O254 5048   0.289   4.841   0.012  0.3729  0.2308  0.5202
   18RES   C255 5049   0.160   4.870   0.057  0.7055  0.1143  0.2784
   18RES   C256 5050   0.083   4.984   7.804 -0.4907  0.3557  0.3975
   18RES   C257 5051   7.749   4.968   7.808 -0.1590  0.4806 -0.5322
   18RES   O258 5052   7.697   4.982   0.127  0.2693 -0.2369  0.5580
   18RES   C259 5053   7.572   4.928   0.135  0.1878 -0.1154 -0.0590
   18RES   H260 5054   0.106   4.776   0.044  1.0365 -0.0033 -0.2442
   18RES   H261 5055   0.146   4.887   0.164 -1.0342  2.4739 -0.3003
   18RES   H262 5056   0.113   4.961   7.702  0.8397 -1.9256  1.2471
   18RES   H263 5057   7.696   5.038   7.743  0.9692  1.4446 -0.4253
   18RES   H264 5058   7.727   4.874   7.756  1.6190  0.6313 -1.5860
   18RES   H265 5059   7.495   4.988   0.086 -1.2223 -0.8339  1.2500
   18RES   H266 5060   7.547   4.926   0.241 -1.5895 -0.1708 -0.4540
   18RES   H267 5061   7.572   4.825   0.099  0.9847 -1.0279  2.5029
   18RES   O268 5062   0.107   5.116   0.040 -0.0820  0.1131 -0.9664
   18RES   C269 5063   0.238   5.161   0.052  0.1510  0.1594  0.2971
   18RES   C270 5064   0.239   5.311   0.075  0.6342  0.5302 -0.4306
   18RES   C271 5065   0.367   5.367   0.141  0.6197 -0.9511  0.2653
   18RES   O272 5066   0.326   5.491   0.198 -0.5693 -0.1156 -0.2894
   18RES   C273 5067   0.421   5.583   0.245  0.3003  0.3392 -0.0823
   18RES   H274 5068   0.291   5.135   7.778 -1.3655 -1.1064 -0.2494
   18RES   H275 5069   0.299   5.109   0.127  1.1916  1.8717  0.6769
   18RES   H276 5070   0.226   5.362   7.797 -0.2556  1.1142 -0.0069
   18RES   H277 5071   0.448   5.373   0.067 -0.2017 -2.7208 -0.7960
   18RES   H278 5072   0.419   5.306   0.214  0.9695 -0.9492  0.0213
   18RES   H279 5073   0.487   5.550   0.326 -0.4350 -0.4586  0.1950
   18RES   H280 5074   0.385   5.680   0.279  1.4127  0.2832  1.3581
   18RES   H281 5075   0.489   5.590   0.160  0.0852  0.7588 -0.2225
   18RES   H282 5076   0.148   5.333   0.131  1.8828  0.1075  1.8070
   19RES     O1 5077   3.555   7.229   0.110 -0.0528 -0.4446 -0.5391
   19RES     C2 5078   3.502   7.135   0.023 -0.7819 -0.2903 -0.7732
   19RES     C3 5079   3.353   7.108   0.046  0.4629  0.9357 -0.3129
   19RES     C4 5080   3.278   7.044   7.745  0.2819  0.0005 -0.1952
   19RES     O5 5081   3.321   6.911   7.720  0.2693 -0.3647 -0.5149
   19RES     C6 5082   3.272   6.846   7.605  0.0855 -0.0716 -0.5538
   19RES     H7 5083   3.532   7.167   7.741  1.4121  0.4200  0.0786
   19RES     H8 5084   3.563   7.047   0.044 -1.9428 -1.2300 -1.2325
   19RES     H9 5085   3.306   7.205   0.059  1.6331  0.9793  4.5006
   19RES    H10 5086   3.312   7.098   7.658  2.5411  2.1204  1.9436
   19RES    H11 5087   3.169   7.043   7.748  0.2757  2.5662  1.5747
   19RES    H12 5088   3.291   6.910   7.519 -2.4637  1.5942  0.0578
   19RES    H13 5089   3.317   6.747   7.599  1.5370  0.4579  1.1956
   19RES    H14 5090   3.164   6.833   7.614  0.0988  1.5432  2.9515
   19RES    H15 5091   3.517   7.234   0.196 -0.5347  1.3115 -0.8367
   19RES    O16 5092   3.336   7.033   0.163  0.4645  0.7886  0.3107
   19RES    C17 5093   3.219   7.072   0.232 -0.1585 -0.3247 -0.0741
   19RES    C18 5094   3.201   6.999   0.366 -0.1915 -0.6426  0.5779
   19RES    C19 5095   3.136   7.090   0.471  0.6204 -0.2701  0.6144
   19RES    O20 5096   3.155   7.025   0.598 -0.3035  0.3343  0.0375
   19RES    C21 5097   3.119   7.110   0.704  0.9074 -0.3696 -0.1411
   19RES    H22 5098   3.127   7.047   0.180 -0.2024 -1.7598  0.6603
   19RES    H23 5099   3.210   7.181   0.234  1.0029 -0.1834 -1.2041
   19RES    H24 5100   3.303   6.979   0.400  0.6617 -1.0287 -2.0946
   19RES    H25 5101   3.192   7.184   0.481 -0.1548  0.1628  0.9520
   19RES    H26 5102   3.033   7.115   0.447  1.3031  1.3210 -0.7660
   19RES    H27 5103   3.083   7.042   0.782 -0.8865  0.0768 -0.5524
   19RES    H28 5104   3.029   7.165   0.676  0.5734 -0.7349  0.1956
   19RES    H29 5105   3.196   7.179   0.739  1.0649  0.5919 -2.2925
   19RES    O30 5106   3.137   6.872   0.361  0.6884 -0.0527 -0.1618
   19RES    C31 5107   3.164   6.777   0.249 -0.4788  0.0326 -0.9971
   19RES    C32 5108   3.311   6.722   0.257 -0.1730  0.7043 -0.6136
   19RES    C33 5109   3.352   6.624   0.142 -0.3255 -0.6415  0.0796
   19RES    O34 5110   3.493   6.591   0.128  0.2859 -0.2133  0.5114
   19RES    C35 5111   3.538   6.484   0.209 -0.6848  0.6314  0.3768
   19RES    H36 5112   3.089   6.698   0.257 -0.7318  0.3266 -0.4017
   19RES    H37 5113   3.132   6.819   0.153 -0.3003 -0.0178 -1.0781
   19RES    H38 5114   3.377   6.809   0.264 -0.0014  0.6946 -2.0280
   19RES    H39 5115   3.320   6.675   0.052 -2.6986 -0.1447  1.1652
   19RES    H40 5116   3.289   6.537   0.162 -1.4926  0.3333  0.7005
   19RES    H41 5117   3.643   6.465   0.186 -1.0365  2.3813 -2.9934
   19RES    H42 5118   3.475   6.396   0.191  0.7133 -0.4542  0.7133
   19RES    H43 5119   3.533   6.502   0.316 -1.1565  2.3058  0.0883
   19RES    O44 5120   3.319   6.641   0.380 -0.3596  0.2228 -0.7831
   19RES    C45 5121   3.359   6.709   0.501  0.4449 -0.9706 -0.5958
   19RES    C46 5122   3.370   6.604   0.613 -0.6377  0.4854 -1.1104
   19RES    C47 5123   3.234   6.524   0.631  0.2629 -0.4414  0.1132
   19RES    O48 5124   3.240   6.441   0.752 -0.0854  0.0187  0.6952
   19RES    C49 5125   3.120   6.364   0.766  1.0820 -0.8234  0.5203
   19RES    H50 5126   3.290   6.790   0.525  1.3404 -0.2473 -0.4447
   19RES    H51 5127   3.456   6.758   0.492 -0.6100  1.8757  2.5025
   19RES    H52 5128   3.395   6.649   0.709 -0.9076 -3.0785  0.7320
   19RES    H53 5129   3.148   6.590   0.625  0.6507 -0.0992 -2.5200
   19RES    H54 5130   3.230   6.463   0.541  0.7915  0.1619 -0.3282
   19RES    H55 5131   3.050   6.438   0.805  0.8580  0.1192 -1.6330
   19RES    H56 5132   3.146   6.277   0.827  0.1655 -2.1068 -0.8693
   19RES    H57 5133   3.090   6.324   0.669 -0.7725  1.9095 -0.0655
   19RES    O58 5134   3.481   6.519   0.575 -0.2916 -0.3749 -0.4004
   19RES    C59 5135   3.559   6.452   0.676 -0.1621 -0.4585 -0.4654
   19RES    C60 5136   3.698   6.419   0.611 -0.6946  0.2608 -0.4371
   19RES    C61 5137   3.787   6.349   0.717 -0.0384  0.0478 -0.0875
   19RES    O62 5138   3.884   6.265   0.651 -0.3105  0.3226  0.2053
   19RES    C63 5139   3.960   6.198   0.751 -0.0900 -0.5755  0.3806
   19RES    H64 5140   3.505   6.362   0.703 -0.5787  0.0260  0.3365
   19RES    H65 5141   3.581   6.512   0.764  1.3877  0.3469 -1.3678
   19RES    H66 5142   3.675   6.351   0.528  0.4427  1.1045 -1.4734
   19RES    H67 5143   3.831   6.415   0.793 -0.1572 -1.4233  1.2879
   19RES    H68 5144   3.728   6.295   0.791 -0.4834  0.5964 -0.0428
   19RES    H69 5145   4.033   6.136   0.699  0.0450 -0.0425 -0.0691
   19RES    H70 5146   3.912   6.125   0.816 -2.2085  1.4416  1.1412
   19RES    H71 5147   4.021   6.263   0.813 -0.0185  0.4053 -0.7078
   19RES    O72 5148   3.773   6.536   0.577  0.8681  0.1164 -0.4458
   19RES    C73 5149   3.852   6.535   0.458 -0.1815 -0.5170  0.1053
   19RES    C74 5150   3.928   6.665   0.458 -0.0572  0.5197 -0.0333
   19RES    C75 5151   3.987   6.700   0.597  0.5322  0.4374  0.6193
   19RES    O76 5152   4.077   6.809   0.593 -0.0071  0.1714  0.3393
   19RES    C77 5153   4.130   6.861   0.713  0.1392 -0.0660 -0.5604
   19RES    H78 5154   3.910   6.443   0.446 -0.3445 -0.2549 -3.1445
   19RES    H79 5155   3.790   6.542   0.369  0.8383 -1.0658 -0.6589
   19RES    H80 5156   4.004   6.652   0.381  1.1931  1.9286  0.9403
   19RES    H81 5157   4.035   6.609   0.634 -1.3814 -0.9033 -0.1083
   19RES    H82 5158   3.911   6.726   0.671  0.9399  3.1605  0.1307
   19RES    H83 5159   4.048   6.896   0.776 -0.0970  0.9163 -1.4132
   19RES    H84 5160   4.201   6.939   0.688  1.1312 -1.1624 -1.2190
   19RES    H85 5161   4.187   6.781   0.761 -0.5039 -0.0190  0.3001
   19RES    O86 5162   3.842   6.764   0.417 -0.6534 -0.5089 -0.3284
   19RES    C87 5163   3.895   6.891   0.395  0.4378 -0.5772 -0.0938
   19RES    C88 5164   3.789   6.979   0.326 -0.4490  0.2128  0.7653
   19RES    C89 5165   3.814   7.130   0.337 -0.6310 -0.3763 -0.2732
   19RES    O90 5166   3.935   7.175   0.260  0.3899  0.0144  0.5581
   19RES    C91 5167   3.905   7.240   0.133 -0.0105 -0.6697  0.5150
   19RES    H92 5168   3.916   6.932   0.494  0.6906 -1.6508  0.3167
   19RES    H93 5169   3.987   6.886   0.335  1.6814  0.7265  1.6559
   19RES    H94 5170   3.694   6.963   0.377 -1.5287 -0.5122 -1.4149
   19RES    H95 5171   3.725   7.188   0.309  0.0884  2.2512  2.6010
   19RES    H96 5172   3.833   7.150   0.443 -1.5204 -0.1089 -0.1543
   19RES    H97 5173   3.841   7.328   0.144  0.5181  0.1186 -2.3711
   19RES    H98 5174   3.992   7.283   0.082 -0.0997  1.1201  1.7932
   19RES    H99 5175   3.856   7.175   0.061  1.3648 -2.0628  0.8125
   19RES   O100 5176   3.786   6.946   0.185 -0.3385 -0.0296  0.2146
   19RES   C101 5177   3.712   6.832   0.140  0.0480  0.0497 -0.6851
   19RES   C102 5178   3.748   6.805   7.813 -0.2429 -0.5422 -0.2589
   19RES   C103 5179   3.661   6.705   7.747  0.3897 -0.2733  0.4058
   19RES   O104 5180   3.697   6.683   7.611 -0.2103  0.5122  0.1624
   19RES   C105 5181   3.637   6.559   7.560 -0.5172  0.3542 -0.5374
   19RES   H106 5182   3.607   6.858   0.150  0.3780  0.6278  1.5818
   19RES   H107 5183   3.732   6.743   0.200 -1.2077  1.4344  1.8629
   19RES   H108 5184   3.743   6.893   7.749 -0.6481 -0.0028  0.5061
   19RES   H109 5185   3.556   6.736   7.749  0.9163  1.8228 -1.7971
   19RES   H110 5186   3.666   6.605   7.790 -2.0197 -0.8021 -0.4428
   19RES   H111 5187   3.530   6.578   7.561 -0.5430  0.3022 -2.0259
   19RES   H112 5188   3.664   6.473   7.621  0.2332 -0.3809 -1.8914
   19RES   H113 5189   3.665   6.540   7.456 -0.1666 -0.8794 -0.2285
   19RES   O114 5190   3.876   6.740   7.795 -0.7500 -0.4751 -0.9897
   19RES   C115 5191   3.992   6.824   7.799 -0.0873 -0.4704  0.0360
   19RES   C116 5192   4.071   6.825   7.664  0.3611 -0.1038  0.8445
   19RES   C117 5193   4.180   6.929   7.653  0.0063 -0.5341 -0.4271
   19RES   O118 5194   4.214   6.961   7.517 -0.1367  0.3089  0.1401
   19RES   C119 5195   4.318   7.059   7.502  0.3354  0.0530  0.3375
   19RES   H120 5196   3.951   6.923   0.000  1.3195  0.0607  0.3366
   19RES   H121 5197   4.060   6.801   0.064  1.3347  0.4954 -0.8516
   19RES   H122 5198   4.001   6.841   7.582  3.3988  1.7252 -1.5082
   19RES   H123 5199   4.137   7.016   7.703  0.0833 -0.0121 -1.2721
   19RES   H124 5200   4.265   6.902   7.716 -0.8511 -3.2985 -0.4106
   19RES   H125 5201   4.347   7.067   7.397 -0.2223 -0.4599  0.1427
   19RES   H126 5202   4.406   7.029   7.558  0.6530 -0.0923 -0.2349
   19RES   H127 5203   4.290   7.155   7.546 -0.7499 -0.0632 -0.0779
   19RES   O128 5204   4.128   6.696   7.635 -0.3821  0.1035  0.2835
   19RES   C129 5205   4.024   6.611   7.578 -0.1602 -0.0046 -0.2759
   19RES   C130 5206   4.094   6.476   7.539 -0.0263 -0.2167 -0.6364
   19RES   C131 5207   4.005   6.382   7.457  0.1044  0.4200  0.0848
   19RES   O132 5208   4.065   6.254   7.441  1.0480 -0.5009  0.3694
   19RES   C133 5209   3.970   6.169   7.381  0.1483 -0.5655 -0.4602
   19RES   H134 5210   3.931   6.596   7.633 -0.5891 -2.5165 -1.6019
   19RES   H135 5211   4.001   6.655   7.482 -0.8809 -1.9553 -1.0292
   19RES   H136 5212   4.189   6.506   7.494  1.0234 -0.3564  1.4128
   19RES   H137 5213   4.009   6.422   7.355 -0.7355  1.0743  0.3027
   19RES   H138 5214   3.904   6.381   7.497  0.7599 -1.9939  1.7772
   19RES   H139 5215   4.016   6.073   7.356  0.6400 -0.4897  0.1547
   19RES   H140 5216   3.883   6.154   7.445  1.8690  0.9158  2.3008
   19RES   H141 5217   3.938   6.200   7.281  3.8145 -1.6083 -2.0444
   19RES   O142 5218   4.123   6.397   7.652 -0.5216  0.4764 -0.3181
   19RES   C143 5219   4.236   6.416   7.724  0.1429  0.0314  0.0904
   19RES   C144 5220   4.260   6.298   0.006 -0.9820 -0.3389  0.0269
   19RES   C145 5221   4.346   6.342   0.122 -0.0528  0.2017  0.1753
   19RES   O146 5222   4.345   6.241   0.218 -0.3546  0.5667 -0.2550
   19RES   C147 5223   4.463   6.164   0.227 -0.0934 -0.1001 -0.4308
   19RES   H148 5224   4.327   6.431   7.666 -0.1613  2.0580  0.0826
   19RES   H149 5225   4.212   6.504   7.783  1.7490  0.7055 -0.2173
   19RES   H150 5226   4.171   6.246   0.040 -0.0519 -3.1067 -1.5770
   19RES   H151 5227   4.304   6.429   0.171 -1.1713 -0.2255 -0.0027
   19RES   H152 5228   4.445   6.377   0.093  0.1053 -1.7092 -1.7633
   19RES   H153 5229   4.548   6.231   0.234 -0.8221  0.7350  0.4428
   19RES   H154 5230   4.480   6.101   0.139 -2.0207 -1.4399  0.1111
   19RES   H155 5231   4.462   6.104   0.318 -2.7936 -0.7748 -0.8723
   19RES   O156 5232   4.347   6.203   7.761  0.3504 -0.1572  0.2778
   19RES   C157 5233   4.269   6.110   7.681  0.0174  0.9301  0.3555
   19RES   C158 5234   4.361   6.031   7.585  0.4322  0.8284 -0.1372
   19RES   C159 5235   4.279   5.969   7.467 -0.6811  0.4493 -0.5337
   19RES   O160 5236   4.371   5.947   7.360 -0.1343  0.1896 -0.3043
   19RES   C161 5237   4.339   5.847   7.264  0.1027  0.0388 -0.4581
   19RES   H162 5238   4.202   6.051   7.743 -0.8487  1.2266 -0.2940
   19RES   H163 5239   4.204   6.170   7.618  0.0756  2.6656  1.9029
   19RES   H164 5240   4.426   6.106   7.541 -0.7869  1.9291 -0.0840
   19RES   H165 5241   4.217   5.883   7.491  1.4321 -1.5622 -2.0135
   19RES   H166 5242   4.212   6.043   7.424 -1.9069 -1.2494 -1.6086
   19RES   H167 5243   4.343   5.743   7.295 -2.9021 -0.1154 -0.4164
   19RES   H168 5244   4.390   5.867   7.169  1.4697  0.9055  0.4421
   19RES   H169 5245   4.233   5.859   7.241 -0.6298  0.2968  2.8198
   19RES   O170 5246   4.431   5.934   7.661 -0.4077  0.4047  0.1746
   19RES   C171 5247   4.516   5.848   7.596  0.2283 -0.0697  0.0817
   19RES   C172 5248   4.582   5.749   7.704  0.4104  0.6328 -0.6231
   19RES   C173 5249   4.659   5.633   7.635 -0.0948  0.3195 -0.3130
   19RES   O174 5250   4.793   5.693   7.620  0.3275 -0.6388  0.3590
   19RES   C175 5251   4.877   5.606   7.547 -0.0414 -0.2185 -0.0894
   19RES   H176 5252   4.587   5.905   7.536 -0.2746 -0.2005 -0.6410
   19RES   H177 5253   4.450   5.793   7.529 -0.9137 -0.9772  1.9248
   19RES   H178 5254   4.654   5.803   7.766 -0.0424  0.0666  0.4007
   19RES   H179 5255   4.667   5.543   7.696  0.4433  0.6043  0.0380
   19RES   H180 5256   4.615   5.593   7.543 -0.5046  1.0738 -0.4522
   19RES   H181 5257   4.850   5.598   7.442 -0.1590 -2.0069  0.0628
   19RES   H182 5258   4.880   5.508   7.594  2.1661  1.4092  3.3980
   19RES   H183 5259   4.972   5.659   7.557 -0.3965  0.6898 -1.4294
   19RES   O184 5260   4.472   5.704   7.780  0.5777  0.0349  0.1526
   19RES   C185 5261   4.454   5.771   0.087 -0.3128 -0.6165 -0.5989
   19RES   C186 5262   4.332   5.720   0.162 -0.5454  0.1349  0.2972
   19RES   C187 5263   4.283   5.817   0.277  0.4368 -0.0421 -0.4568
   19RES   O188 5264   4.177   5.750   0.347  0.3117  0.3784  0.0189
   19RES   C189 5265   4.125   5.820   0.458 -0.4062 -0.4380 -0.1510
   19RES   H190 5266   4.441   5.877   0.063 -0.9136 -0.2373  1.2872
   19RES   H191 5267   4.533   5.769   0.162  0.2324  0.2686 -1.1488
   19RES   H192 5268   4.256   5.719   0.084  0.7751 -2.1741 -1.0393
   19RES   H193 5269   4.240   5.906   0.230 -0.9026 -1.6500 -2.3803
   19RES   H194 5270   4.366   5.841   0.343  1.0656  0.4236 -1.4061
   19RES   H195 5271   4.201   5.851   0.529  1.1742 -2.2363 -1.0037
   19RES   H196 5272   4.086   5.915   0.421  1.0023  0.9023  1.7143
   19RES   H197 5273   4.046   5.758   0.499  0.8964 -1.5013  0.7957
   19RES   O198 5274   4.365   5.595   0.233  0.1609  0.0531 -0.1408
   19RES   C199 5275   4.337   5.487   0.143 -0.3688  0.1832 -0.3416
   19RES   C200 5276   4.397   5.348   0.184 -0.1159  0.2995 -0.0589
   19RES   C201 5277   4.307   5.278   0.281 -0.2057  0.2294 -0.5186
   19RES   O202 5278   4.359   5.145   0.299  0.1261  0.3136  0.0442
   19RES   C203 5279   4.295   5.055   0.396 -0.4524  0.1853  0.9842
   19RES   H204 5280   4.376   5.513   0.045  1.3266 -0.9235  0.0141
   19RES   H205 5281   4.234   5.480   0.110  0.1588 -0.9538 -1.7928
   19RES   H206 5282   4.408   5.292   0.090  2.6464  1.0330 -0.2181
   19RES   H207 5283   4.293   5.335   0.372 -0.0378 -0.3498 -0.1296
   19RES   H208 5284   4.205   5.273   0.241 -1.6807 -0.8292  3.1665
   19RES   H209 5285   4.232   4.999   0.327 -0.7181  2.5070 -0.7031
   19RES   H210 5286   4.236   5.112   0.468 -0.7370  0.4632  0.5342
   19RES   H211 5287   4.364   4.990   0.449  0.3162 -0.1922 -0.4818
   19RES   O212 5288   4.525   5.373   0.238 -0.2778  0.2830  0.8012
   19RES   C213 5289   4.625   5.390   0.147 -0.1676 -0.0483  0.9979
   19RES   C214 5290   4.758   5.448   0.207 -0.6414  0.3033 -0.1206
   19RES   C215 5291   4.825   5.558   0.124 -0.4048  0.2005 -0.2142
   19RES   O216 5292   4.922   5.624   0.183 -0.0946 -0.0475 -0.1211
   19RES   C217 5293   4.961   5.741   0.107 -0.2920  0.3850 -0.4758
   19RES   H218 5294   4.587   5.463   0.074 -1.3505 -0.2248  1.4211
   19RES   H219 5295   4.632   5.294   0.096 -0.4199 -0.5701  1.9479
   19RES   H220 5296   4.732   5.483   0.307  1.5624 -2.7831  1.6442
   19RES   H221 5297   4.866   5.526   0.028  3.6024 -2.6679  2.2786
   19RES   H222 5298   4.750   5.634   0.103  2.0418  2.0206 -2.7635
   19RES   H223 5299   5.001   5.733   0.006 -0.2364 -2.2851 -0.2765
   19RES   H224 5300   5.045   5.787   0.159 -1.5102  1.4426  0.6118
   19RES   H225 5301   4.884   5.817   0.093  1.8272  2.7921  0.4281
   19RES   O226 5302   4.861   5.350   0.202  0.4718  0.3721  0.2990
   19RES   C227 5303   4.926   5.332   0.330 -0.3830  0.1432  0.3590
   19RES   C228 5304   5.043   5.238   0.319 -0.9604 -0.1982  1.0064
   19RES   C229 5305   5.120   5.219   0.454  0.1804  0.4237  0.2646
   19RES   O230 5306   5.261   5.217   0.430 -0.0705 -0.2382 -0.0044
   19RES   C231 5307   5.328   5.307   0.527 -0.3409  0.7662 -0.3790
   19RES   H232 5308   4.859   5.281   0.399 -1.1023 -1.2216 -1.2965
   19RES   H233 5309   4.948   5.433   0.362  1.8493 -0.1390 -0.2164
   19RES   H234 5310   5.110   5.287   0.247 -0.7727  0.6658  1.7669
   19RES   H235 5311   5.094   5.123   0.498 -0.5726  1.2879  1.7483
   19RES   H236 5312   5.094   5.303   0.518 -1.1867  1.1374 -1.1990
   19RES   H237 5313   5.316   5.273   0.630  0.9153 -1.1555 -0.8348
   19RES   H238 5314   5.319   5.415   0.521 -2.2667  0.5985 -1.0132
   19RES   H239 5315   5.436   5.297   0.519 -0.4625  0.5427 -1.8383
   19RES   O240 5316   4.993   5.120   0.267  0.5082  0.3965  0.1611
   19RES   C241 5317   5.071   5.020   0.203 -0.4353 -0.4378 -0.3190
   19RES   C242 5318   5.086   5.046   0.055 -0.3593  0.2362 -0.2516
   19RES   C243 5319   5.204   4.976   7.813 -0.2202  0.0593 -0.7083
   19RES   O244 5320   5.229   5.032   7.689  0.2431 -0.0192 -0.4718
   19RES   C245 5321   5.330   4.956   7.621 -0.2198  0.0780 -0.3794
   19RES   H246 5322   5.035   4.918   0.219 -0.3059 -0.4572 -0.1516
   19RES   H247 5323   5.168   5.014   0.252 -0.4102 -3.2993 -0.5757
   19RES   H248 5324   5.095   5.154   0.044  0.1667  0.5336  2.6479
   19RES   H249 5325   5.290   4.995   0.061 -0.7276 -2.0907  0.6458
   19RES   H250 5326   5.189   4.868   7.810  1.9375 -0.4042  2.3668
   19RES   H251 5327   5.291   4.861   7.585 -0.3455 -0.7935  1.9745
   19RES   H252 5328   5.427   4.937   7.668 -1.4452 -3.4151  0.9025
   19RES   H253 5329   5.349   5.016   7.532 -0.6906 -1.3129 -1.4235
   19RES   O254 5330   4.974   4.994   7.799  0.5778 -0.1474 -0.0776
   19RES   C255 5331   4.879   5.095   7.767 -0.3526 -0.3388 -0.7204
   19RES   C256 5332   4.739   5.039   7.731  0.0831 -0.9890 -0.0802
   19RES   C257 5333   4.660   5.003   0.054  0.0900  0.9289  0.0349
   19RES   O258 5334   4.528   4.950   0.038  0.1656 -0.4057 -0.8257
   19RES   C259 5335   4.495   4.831   0.119  0.4661  0.2904  0.2646
   19RES   H260 5336   4.856   5.157   0.036  0.8620 -0.8750  0.0051
   19RES   H261 5337   4.914   5.151   7.680 -0.3040  1.0244  0.1627
   19RES   H262 5338   4.755   4.951   7.669  1.2616  0.7090 -2.2562
   19RES   H263 5339   4.718   4.932   0.112 -0.5368  0.1391 -0.3029
   19RES   H264 5340   4.635   5.090   0.115 -2.9076  0.7144 -0.7749
   19RES   H265 5341   4.556   4.745   0.090 -0.2801 -0.3312  0.5404
   19RES   H266 5342   4.388   4.825   0.104  0.6271 -0.8857 -0.4656
   19RES   H267 5343   4.496   4.838   0.227  0.6269 -1.0323  0.3622
   19RES   O268 5344   4.672   5.145   7.668 -0.1676  0.4367 -0.4274
   19RES   C269 5345   4.591   5.120   7.553 -1.1856 -0.5787 -0.2402
   19RES   C270 5346   4.557   5.248   7.477 -0.0050  0.2344  0.9602
   19RES   C271 5347   4.469   5.346   7.558  0.5916 -0.8069 -0.1060
   19RES   O272 5348   4.398   5.430   7.473  0.5714  0.5151 -0.1890
   19RES   C273 5349   4.299   5.499   7.547  0.5187 -0.3382 -0.6997
   19RES   H274 5350   4.509   5.053   7.579 -1.0484 -0.5959  0.1495
   19RES   H275 5351   4.655   5.067   7.482  3.2593  1.1357  2.2569
   19RES   H276 5352   4.647   5.299   7.444 -0.8466  0.5661 -0.8395
   19RES   H277 5353   4.540   5.390   7.628 -0.1124  3.0956 -1.6902
   19RES   H278 5354   4.397   5.298   7.625 -1.1512  1.3443 -0.3741
   19RES   H279 5355   4.323   5.541   7.644  1.8266 -2.4500 -0.0732
   19RES   H280 5356   4.212   5.433   7.554  1.3717 -1.4475 -0.4348
   19RES   H281 5357   4.272   5.591   7.496  0.6037 -0.4616 -0.9669
   19RES   H282 5358   4.498   5.205   7.397 -1.3741  1.7719  1.1238
   20RES     O1 5359   4.377   3.989   0.301 -0.2787  0.4164 -0.4668
   20RES     C2 5360   4.280   4.010   0.404 -0.1219  0.0632 -0.4009
   20RES     C3 5361   4.226   4.157   0.402 -0.3729 -0.9515 -0.7518
   20RES     C4 5362   4.078   4.162   0.374 -0.4471  0.2405  1.5838
   20RES     O5 5363   4.041   4.290   0.342 -0.5232  0.0755  0.3501
   20RES     C6 5364   3.912   4.290   0.285 -0.5581 -0.1900  0.1941
   20RES     H7 5365   4.212   3.932   0.371  2.9900 -2.5482 -0.8824
   20RES     H8 5366   4.334   3.996   0.497  0.2955 -1.9798 -0.9390
   20RES     H9 5367   4.263   4.203   0.310 -0.7096 -0.9298 -0.8766
   20RES    H10 5368   4.016   4.132   0.459  1.1111  0.4039  2.8046
   20RES    H11 5369   4.058   4.089   0.295 -2.0122 -0.2651  2.4250
   20RES    H12 5370   3.913   4.237   0.189  0.8683 -1.7411  1.0327
   20RES    H13 5371   3.834   4.260   0.354  0.4692  0.4842  1.6808
   20RES    H14 5372   3.888   4.391   0.253  0.5224  0.3673  1.1016
   20RES    H15 5373   4.343   4.014   0.216 -0.7209  2.1945  0.2197
   20RES    O16 5374   4.278   4.217   0.523 -0.3128 -0.6502  0.2186
   20RES    C17 5375   4.250   4.352   0.533 -0.4132 -0.0452 -0.2665
   20RES    C18 5376   4.330   4.414   0.646 -0.3484 -0.4451 -0.0977
   20RES    C19 5377   4.342   4.568   0.638  0.7297 -0.4024  0.7673
   20RES    O20 5378   4.458   4.605   0.704  0.2931  0.1252 -0.6187
   20RES    C21 5379   4.495   4.742   0.689  0.4445  1.0792 -0.7481
   20RES    H22 5380   4.147   4.380   0.552  0.1735  1.7683  0.4337
   20RES    H23 5381   4.287   4.404   0.445  1.3294 -0.6356  0.0818
   20RES    H24 5382   4.427   4.365   0.637 -1.1185 -2.1829  0.6816
   20RES    H25 5383   4.356   4.593   0.533 -0.8374 -1.9668  0.1519
   20RES    H26 5384   4.253   4.614   0.681  0.3851 -0.9614  0.6525
   20RES    H27 5385   4.446   4.816   0.753  2.5276  2.6326 -0.8724
   20RES    H28 5386   4.478   4.774   0.587  2.6938 -2.2504 -2.2681
   20RES    H29 5387   4.600   4.756   0.716  0.8083  0.8085 -1.9984
   20RES    O30 5388   4.259   4.367   0.768 -0.4819  0.3178  0.0932
   20RES    C31 5389   4.339   4.385   0.887 -0.4392 -0.5327  0.5789
   20RES    C32 5390   4.258   4.338   1.008  0.1575  0.6491  0.8133
   20RES    C33 5391   4.318   4.402   1.131 -0.2904  0.4161 -0.6789
   20RES    O34 5392   4.221   4.405   1.232 -0.1928  0.9423 -0.1898
   20RES    C35 5393   4.271   4.380   1.360  0.1030  0.1402 -0.9588
   20RES    H36 5394   4.437   4.340   0.888  0.7780  1.9653 -0.6927
   20RES    H37 5395   4.358   4.493   0.891  2.0901 -0.8863 -1.0931
   20RES    H38 5396   4.153   4.364   1.003  0.0563  0.7653  2.9715
   20RES    H39 5397   4.355   4.504   1.117 -2.2746  1.0674 -1.3381
   20RES    H40 5398   4.407   4.348   1.165  0.5438 -0.3891 -3.9553
   20RES    H41 5399   4.301   4.276   1.375 -0.0578  0.0630 -1.1613
   20RES    H42 5400   4.204   4.404   1.442 -1.7169 -2.7571 -1.5146
   20RES    H43 5401   4.361   4.435   1.386 -0.1670 -1.1713  3.0491
   20RES    O44 5402   4.271   4.194   1.008 -0.2030 -0.2661  0.1520
   20RES    C45 5403   4.148   4.138   0.961  0.3550 -0.8615 -0.4827
   20RES    C46 5404   4.132   3.983   0.931  0.5294 -0.4466  0.8316
   20RES    C47 5405   4.240   3.934   0.832  0.4281  0.8781  0.8939
   20RES    O48 5406   4.181   3.846   0.742  0.5768 -0.2912  0.2798
   20RES    C49 5407   4.281   3.780   0.668 -0.4129 -0.3552 -0.1512
   20RES    H50 5408   4.133   4.182   0.862 -0.4123  0.9263  0.4247
   20RES    H51 5409   4.059   4.166   1.016 -0.2472 -0.5455 -1.6166
   20RES    H52 5410   4.032   3.963   0.892  0.5899  0.2381  0.3177
   20RES    H53 5411   4.278   4.016   0.771 -2.5505  3.0627  1.8573
   20RES    H54 5412   4.327   3.894   0.885  0.6646 -2.0497 -1.5627
   20RES    H55 5413   4.299   3.695   0.735  1.1094 -0.1308 -0.2577
   20RES    H56 5414   4.373   3.835   0.650  0.1088 -0.8591  0.9205
   20RES    H57 5415   4.232   3.732   0.583  0.4382 -1.4341 -0.0440
   20RES    O58 5416   4.134   3.919   1.058  0.5626  0.6242  0.0453
   20RES    C59 5417   4.089   3.784   1.067 -0.7378  0.2217  0.2807
   20RES    C60 5418   4.116   3.745   1.215 -0.0034  0.3785  0.0006
   20RES    C61 5419   4.115   3.591   1.216  0.3832  0.7832 -0.0667
   20RES    O62 5420   4.105   3.551   1.354 -0.1929  0.2631 -0.1153
   20RES    C63 5421   4.140   3.410   1.370  0.7934 -0.4281 -0.2241
   20RES    H64 5422   4.139   3.721   0.994 -0.1627 -0.2768  1.0980
   20RES    H65 5423   3.982   3.777   1.046 -0.4926 -0.9673 -0.6394
   20RES    H66 5424   4.216   3.786   1.233 -0.9753  2.4553  0.9353
   20RES    H67 5425   4.042   3.549   1.147  1.9165  1.0593 -1.8954
   20RES    H68 5426   4.199   3.541   1.167  0.4688 -0.5606  1.4243
   20RES    H69 5427   4.247   3.402   1.351  0.6117  0.4688 -1.6832
   20RES    H70 5428   4.090   3.351   1.293 -2.1403 -0.5687  1.6912
   20RES    H71 5429   4.103   3.373   1.466  2.0237 -0.3879  0.2689
   20RES    O72 5430   4.015   3.782   1.307 -0.6374 -0.3313  1.2273
   20RES    C73 5431   4.009   3.922   1.344  0.7859  0.2558  0.1692
   20RES    C74 5432   4.095   3.959   1.472  0.0110 -0.0556 -0.0874
   20RES    C75 5433   4.031   4.080   1.549 -0.1639 -0.3853  0.2427
   20RES    O76 5434   4.053   4.070   1.686 -0.3567  0.1591  0.1207
   20RES    C77 5435   3.985   4.175   1.762  0.1681 -1.0561  0.0878
   20RES    H78 5436   4.036   3.986   1.260  0.9866  0.5239  0.4363
   20RES    H79 5437   3.905   3.947   1.365  0.3651 -0.2830 -1.2316
   20RES    H80 5438   4.104   3.864   1.527 -0.4143 -0.0976 -0.0892
   20RES    H81 5439   3.922   4.078   1.552 -0.2361 -1.8740 -1.8589
   20RES    H82 5440   4.058   4.172   1.497  0.2298 -0.4249  0.3766
   20RES    H83 5441   3.879   4.156   1.777 -0.5451  2.5603  0.1778
   20RES    H84 5442   4.003   4.269   1.709  1.3796 -2.0661 -1.3193
   20RES    H85 5443   4.039   4.176   1.857  1.4063 -2.0449 -0.5930
   20RES    O86 5444   4.227   3.994   1.429 -0.6214 -0.1942  0.1207
   20RES    C87 5445   4.331   3.983   1.525  0.6989 -0.5413 -0.4911
   20RES    C88 5446   4.468   4.038   1.481 -0.3395 -0.3255 -0.4618
   20RES    C89 5447   4.569   4.004   1.593  0.1776  0.9222 -0.1594
   20RES    O90 5448   4.701   4.058   1.581 -0.3640 -0.0018 -0.1983
   20RES    C91 5449   4.801   3.975   1.513  0.2051  0.6874  0.1560
   20RES    H92 5450   4.304   4.029   1.619  2.8243 -1.3085  0.5192
   20RES    H93 5451   4.336   3.875   1.542  1.6310 -0.7335 -1.8715
   20RES    H94 5452   4.459   4.147   1.474  1.4321 -0.2616 -2.4073
   20RES    H95 5453   4.519   4.048   1.679 -1.1054  2.3743 -1.6156
   20RES    H96 5454   4.574   3.895   1.605  1.0533  1.0176  0.4527
   20RES    H97 5455   4.905   3.997   1.533  0.3078 -0.3807  0.8323
   20RES    H98 5456   4.791   3.868   1.534  0.6619  0.2858 -1.5442
   20RES    H99 5457   4.771   3.982   1.408  0.3510  0.2759  0.0833
   20RES   O100 5458   4.516   3.959   1.375 -0.2835 -0.0257  0.0878
   20RES   C101 5459   4.473   4.015   1.244  0.0417 -0.8201 -0.2323
   20RES   C102 5460   4.572   3.981   1.137  0.4793  0.3616  0.4028
   20RES   C103 5461   4.546   4.064   1.016  0.4763 -0.0018  0.4662
   20RES   O104 5462   4.658   4.067   0.925  0.6721  0.1001  0.0456
   20RES   C105 5463   4.632   4.128   0.802 -0.1630  0.4892 -0.4509
   20RES   H106 5464   4.471   4.124   1.258 -1.3318 -0.6764 -1.4424
   20RES   H107 5465   4.374   3.989   1.207  0.1897 -1.0871 -0.4360
   20RES   H108 5466   4.667   4.015   1.176  1.7536 -0.0621 -2.2132
   20RES   H109 5467   4.529   4.167   1.047 -0.0715  0.9441 -2.8001
   20RES   H110 5468   4.454   4.029   0.970  1.9360  0.1768 -2.6718
   20RES   H111 5469   4.542   4.095   0.749  0.5912 -0.1697 -1.3205
   20RES   H112 5470   4.716   4.129   0.734  0.5229 -3.7411  0.2041
   20RES   H113 5471   4.612   4.233   0.826 -0.1536  0.3584  0.1476
   20RES   O114 5472   4.571   3.844   1.090 -0.4540  0.6210  0.0883
   20RES   C115 5473   4.653   3.751   1.167  0.1284 -0.4753  0.0197
   20RES   C116 5474   4.801   3.764   1.136  0.4177  0.0465 -0.0423
   20RES   C117 5475   4.882   3.682   1.232  0.2822 -0.0232  0.2308
   20RES   O118 5476   4.805   3.566   1.267  0.1131  0.0144 -0.6997
   20RES   C119 5477   4.812   3.457   1.175 -0.0169  0.2827  0.2255
   20RES   H120 5478   4.634   3.765   1.274  2.1703 -1.8992  0.6194
   20RES   H121 5479   4.614   3.652   1.148 -2.7418  0.1410  2.4092
   20RES   H122 5480   4.831   3.868   1.141 -2.0691  0.8971 -1.6833
   20RES   H123 5481   4.975   3.656   1.182 -0.4827 -1.2890 -0.5684
   20RES   H124 5482   4.902   3.741   1.321  2.3680 -0.4693  0.0626
   20RES   H125 5483   4.912   3.423   1.147 -0.3186 -1.0146  0.6686
   20RES   H126 5484   4.764   3.496   1.086 -0.7750 -1.8825 -0.3403
   20RES   H127 5485   4.751   3.373   1.207  0.5705  0.1876  1.1213
   20RES   O128 5486   4.833   3.713   1.007  0.2361  0.3994 -0.5105
   20RES   C129 5487   4.793   3.789   0.899  0.5842 -0.3373  1.0532
   20RES   C130 5488   4.839   3.725   0.769  0.9254 -0.8478  0.6330
   20RES   C131 5489   4.804   3.806   0.645  0.3546  0.2217  0.0705
   20RES   O132 5490   4.667   3.825   0.632  0.6715 -0.1370 -0.5633
   20RES   C133 5491   4.620   3.860   0.504 -0.1584 -0.5444 -0.1600
   20RES   H134 5492   4.685   3.802   0.898  0.7293  0.8639 -0.2766
   20RES   H135 5493   4.818   3.896   0.897  0.7308 -0.3797  0.5873
   20RES   H136 5494   4.948   3.725   0.779  1.1182  0.4115 -1.1539
   20RES   H137 5495   4.854   3.758   0.561 -0.5812 -0.5453 -0.0539
   20RES   H138 5496   4.854   3.902   0.654  0.1187  0.0947  3.3126
   20RES   H139 5497   4.514   3.837   0.494  0.2377 -1.6035 -2.1447
   20RES   H140 5498   4.638   3.967   0.492 -2.1700 -0.0060  1.2053
   20RES   H141 5499   4.669   3.813   0.419 -1.0022  0.2838 -1.1197
   20RES   O142 5500   4.789   3.593   0.733  0.8424 -0.2048 -0.3514
   20RES   C143 5501   4.842   3.490   0.823 -0.2890  0.3223  0.1638
   20RES   C144 5502   4.898   3.381   0.738 -0.0317 -0.8526  0.4310
   20RES   C145 5503   4.854   3.244   0.794  0.6578  0.1331 -0.0716
   20RES   O146 5504   4.888   3.150   0.696  0.0824 -0.1581 -0.7304
   20RES   C147 5505   4.842   3.021   0.733  0.0906 -0.1462 -0.0876
   20RES   H148 5506   4.920   3.534   0.883  0.1632 -0.7926  0.4152
   20RES   H149 5507   4.759   3.443   0.877  1.2474  0.0958  2.3722
   20RES   H150 5508   4.860   3.389   0.637 -2.1360  2.6430  1.3994
   20RES   H151 5509   4.746   3.232   0.797  0.8475 -1.8465 -0.1416
   20RES   H152 5510   4.890   3.223   0.895  0.3815  2.0753  0.4499
   20RES   H153 5511   4.833   2.960   0.643 -1.2072 -0.1527  0.0378
   20RES   H154 5512   4.737   3.025   0.761 -0.2427 -1.8291 -1.0719
   20RES   H155 5513   4.898   2.982   0.817 -0.1567  1.0620  0.6567
   20RES   O156 5514   5.041   3.392   0.725 -0.1391  0.6633 -0.5657
   20RES   C157 5515   5.073   3.472   0.610 -0.1862  0.2296  0.0913
   20RES   C158 5516   5.190   3.563   0.652 -0.5933  0.6462 -0.3479
   20RES   C159 5517   5.218   3.654   0.527  0.0436 -0.0628 -0.4514
   20RES   O160 5518   5.289   3.771   0.572 -0.0185  0.0271 -0.4060
   20RES   C161 5519   5.419   3.746   0.618 -0.2456  0.1171 -0.0093
   20RES   H162 5520   5.112   3.408   0.531  0.5536 -0.3170  0.8877
   20RES   H163 5521   4.990   3.526   0.565 -2.5004 -0.6475  3.1273
   20RES   H164 5522   5.171   3.619   0.744 -2.3279 -0.8228  0.2150
   20RES   H165 5523   5.277   3.607   0.448  0.6318  1.1705 -0.7690
   20RES   H166 5524   5.124   3.695   0.492  0.0407  0.1330 -0.2213
   20RES   H167 5525   5.485   3.831   0.605 -0.0992  0.1943  1.1123
   20RES   H168 5526   5.480   3.674   0.564 -0.2330  0.7025 -0.7735
   20RES   H169 5527   5.419   3.715   0.723  2.4614 -0.4712 -0.1528
   20RES   O170 5528   5.309   3.485   0.665  0.1767 -0.8331  0.4559
   20RES   C171 5529   5.336   3.416   0.778  0.5410 -0.0985 -0.2786
   20RES   C172 5530   5.439   3.296   0.757  0.5609 -0.8138 -0.6883
   20RES   C173 5531   5.583   3.341   0.738 -0.5164 -0.1663  0.4295
   20RES   O174 5532   5.666   3.221   0.751  0.0307 -0.0687  0.0147
   20RES   C175 5533   5.800   3.263   0.782  0.2812  0.5558 -0.3754
   20RES   H176 5534   5.245   3.378   0.824  0.6756 -0.7355 -0.5375
   20RES   H177 5535   5.370   3.482   0.858 -1.8906 -0.6480  1.2866
   20RES   H178 5536   5.448   3.237   0.848  2.3242  3.3430  1.9613
   20RES   H179 5537   5.595   3.378   0.636 -0.3885  2.6883  1.4423
   20RES   H180 5538   5.611   3.415   0.812  2.7090 -2.3375  1.4866
   20RES   H181 5539   5.864   3.178   0.758  1.0903  1.2325 -0.6625
   20RES   H182 5540   5.803   3.296   0.886 -2.6945 -0.9779  0.2356
   20RES   H183 5541   5.821   3.343   0.710  1.1997  0.4998 -0.1851
   20RES   O184 5542   5.399   3.215   0.652  0.5366  0.3515  0.1339
   20RES   C185 5543   5.276   3.157   0.669  0.1398  0.8610  0.5921
   20RES   C186 5544   5.286   3.026   0.585 -0.0546  0.0590  0.2220
   20RES   C187 5545   5.145   2.981   0.535  0.0109  0.1027 -0.1215
   20RES   O188 5546   5.152   2.868   0.450 -0.5952 -0.1494 -0.0638
   20RES   C189 5547   5.030   2.804   0.429  0.2635  0.1690  0.3610
   20RES   H190 5548   5.212   3.228   0.616  0.4120  2.0076  1.7665
   20RES   H191 5549   5.240   3.142   0.771  1.0460  2.4029  1.1689
   20RES   H192 5550   5.359   3.038   0.504 -0.4727 -0.8060 -0.2823
   20RES   H193 5551   5.102   3.065   0.480  1.7022  2.2284  1.6600
   20RES   H194 5552   5.089   2.963   0.627  3.1213 -2.7674  1.3201
   20RES   H195 5553   4.966   2.870   0.372 -0.4307 -1.3533 -0.6610
   20RES   H196 5554   5.041   2.708   0.378 -0.6563 -0.3630  1.1365
   20RES   H197 5555   5.011   2.781   0.534 -0.3494  0.6450  0.3564
   20RES   O198 5556   5.333   2.926   0.672 -0.3487 -0.6705 -0.3511
   20RES   C199 5557   5.437   2.853   0.613 -0.4476  0.5107  0.1072
   20RES   C200 5558   5.468   2.743   0.707  0.0711 -1.0092  0.6210
   20RES   C201 5559   5.340   2.672   0.768 -0.6501 -0.3368  0.1462
   20RES   O202 5560   5.381   2.544   0.823  0.5885 -0.0841 -0.3689
   20RES   C203 5561   5.276   2.488   0.901 -0.4922  0.3703 -0.4481
   20RES   H204 5562   5.518   2.922   0.590 -1.8473  2.1859  0.0396
   20RES   H205 5563   5.403   2.805   0.522  2.7324 -2.0704  0.2068
   20RES   H206 5564   5.528   2.670   0.653  2.0744  1.4422 -0.5603
   20RES   H207 5565   5.298   2.734   0.847 -0.8200 -1.5999  1.0690
   20RES   H208 5566   5.274   2.664   0.681  1.2632 -2.0984 -1.2092
   20RES   H209 5567   5.310   2.401   0.958 -0.0188  0.6615 -0.2802
   20RES   H210 5568   5.200   2.449   0.834 -2.4088  3.7663 -0.3659
   20RES   H211 5569   5.235   2.562   0.969  1.6077  1.4043 -0.2444
   20RES   O212 5570   5.558   2.781   0.811  0.0558 -0.7373  0.2751
   20RES   C213 5571   5.529   2.897   0.896 -0.3603  0.0602  0.9776
   20RES   C214 5572   5.603   2.899   1.032  0.0298 -0.0899  0.6490
   20RES   C215 5573   5.751   2.883   1.016  0.7011  0.1567  0.1705
   20RES   O216 5574   5.824   2.979   1.085  0.2109  0.7492 -0.0649
   20RES   C217 5575   5.959   3.009   1.041  0.3027  0.2352  0.1467
   20RES   H218 5576   5.421   2.902   0.913 -0.9618  0.7118 -2.6676
   20RES   H219 5577   5.552   2.987   0.839  0.4697 -0.5906  0.2797
   20RES   H220 5578   5.589   3.003   1.064 -0.7608 -0.4521  1.5090
   20RES   H221 5579   5.789   2.784   1.038  1.0095  0.3290  0.4195
   20RES   H222 5580   5.770   2.900   0.910  0.6240  1.4906  0.3611
   20RES   H223 5581   6.021   2.991   1.129  1.4083 -1.3155 -0.9423
   20RES   H224 5582   5.974   3.115   1.019  0.2134 -0.1168 -1.6982
   20RES   H225 5583   5.988   2.944   0.958 -1.2743  1.8548 -1.7338
   20RES   O226 5584   5.558   2.810   1.136 -0.7157 -0.3976 -0.8053
   20RES   C227 5585   5.424   2.818   1.182 -0.9527 -0.2497  0.6102
   20RES   C228 5586   5.427   2.780   1.332 -0.3896  0.2041 -0.2711
   20RES   C229 5587   5.292   2.819   1.395  0.0413 -0.2793 -0.5072
   20RES   O230 5588   5.186   2.747   1.349  0.1602 -0.4374 -0.0662
   20RES   C231 5589   5.062   2.805   1.385  0.1985 -0.1291 -0.1420
   20RES   H232 5590   5.354   2.748   1.135 -0.3680 -1.3753  1.4073
   20RES   H233 5591   5.378   2.917   1.174  0.3894  0.3060 -0.5372
   20RES   H234 5592   5.488   2.834   1.405 -1.3383 -0.8334  1.3294
   20RES   H235 5593   5.285   2.927   1.378 -0.5996 -0.2392 -0.0154
   20RES   H236 5594   5.311   2.806   1.502  0.4038  2.3204 -0.2041
   20RES   H237 5595   4.982   2.754   1.331  0.4379 -1.0792  0.3882
   20RES   H238 5596   5.049   2.912   1.373  0.8157 -0.0127  0.2064
   20RES   H239 5597   5.048   2.805   1.493 -0.2190 -1.0875 -0.1834
   20RES   O240 5598   5.436   2.644   1.367 -0.1855  0.1632  0.0008
   20RES   C241 5599   5.571   2.603   1.373 -0.2203 -0.3283  0.4693
   20RES   C242 5600   5.590   2.458   1.341  0.2142 -0.1189 -0.1829
   20RES   C243 5601   5.491   2.369   1.425 -0.3523 -0.5908 -0.3458
   20RES   O244 5602   5.562   2.255   1.462 -0.3554 -0.2154 -0.1956
   20RES   C245 5603   5.485   2.164   1.538 -0.2490 -0.0519  0.2844
   20RES   H246 5604   5.607   2.628   1.473  0.7920  0.1133  0.0090
   20RES   H247 5605   5.635   2.668   1.313  0.6173 -1.5524  0.0282
   20RES   H248 5606   5.687   2.425   1.378  1.2056  0.3449 -2.3216
   20RES   H249 5607   5.463   2.411   1.522 -0.8576 -0.0353 -0.7329
   20RES   H250 5608   5.399   2.351   1.370  0.1357  1.7168 -1.9375
   20RES   H251 5609   5.424   2.201   1.620  0.9869  1.8944  0.3460
   20RES   H252 5610   5.559   2.098   1.585 -1.3195 -1.3978  0.1128
   20RES   H253 5611   5.432   2.093   1.474  1.1137 -0.5776 -0.3046
   20RES   O254 5612   5.561   2.443   1.200  0.1148 -0.2648  0.1861
   20RES   C255 5613   5.676   2.458   1.115  0.3511 -0.1422 -0.7381
   20RES   C256 5614   5.660   2.398   0.977 -0.5398  0.3447 -0.0815
   20RES   C257 5615   5.748   2.461   0.866 -0.3575  0.0130 -1.3316
   20RES   O258 5616   5.887   2.418   0.893 -0.8456 -0.2065 -0.2853
   20RES   C259 5617   5.981   2.482   0.810  0.2147 -0.3412 -0.4917
   20RES   H260 5618   5.698   2.563   1.091 -0.2699 -0.2721 -1.8925
   20RES   H261 5619   5.760   2.418   1.172  1.2098  0.1826 -1.7496
   20RES   H262 5620   5.553   2.412   0.957 -0.8731  0.1655  1.4611
   20RES   H263 5621   5.719   2.442   0.763 -1.9900 -0.6326 -0.7709
   20RES   H264 5622   5.739   2.568   0.884 -0.0876 -0.1874  0.0854
   20RES   H265 5623   6.079   2.437   0.831  1.0400  0.6652 -2.0749
   20RES   H266 5624   5.988   2.588   0.833 -1.0108 -0.5511  0.8752
   20RES   H267 5625   5.946   2.480   0.707  1.3648 -2.0179 -0.8905
   20RES   O268 5626   5.681   2.259   0.979 -0.2752  0.0441 -0.1057
   20RES   C269 5627   5.634   2.180   0.872 -1.2063 -0.0854  0.3524
   20RES   C270 5628   5.696   2.039   0.880  0.4358  0.2948 -0.0177
   20RES   C271 5629   5.603   1.923   0.852  0.3597  0.4341  0.3492
   20RES   O272 5630   5.663   1.797   0.887  0.3672 -0.5885  0.2758
   20RES   C273 5631   5.567   1.690   0.892  0.0625  0.4304 -0.6099
   20RES   H274 5632   5.661   2.222   0.775  0.7292  2.6306  1.9564
   20RES   H275 5633   5.526   2.179   0.882 -1.3326  1.3234 -0.6615
   20RES   H276 5634   5.786   2.032   0.819 -0.7340  2.1068 -2.0005
   20RES   H277 5635   5.557   1.925   0.753  0.2640  0.6102  0.3951
   20RES   H278 5636   5.510   1.947   0.903  0.1898 -0.7960  0.6298
   20RES   H279 5637   5.620   1.605   0.935  1.9315  1.9855  0.2441
   20RES   H280 5638   5.540   1.669   0.789  2.2148 -0.0565 -1.1091
   20RES   H281 5639   5.473   1.725   0.936 -1.1453 -2.2980 -0.9393
   20RES   H282 5640   5.725   2.037   0.985  0.3113 -2.2173 -0.0085
   21RES     O1 5641   6.278   3.980   1.255 -0.1657  0.4360 -0.1248
   21RES     C2 5642   6.297   3.868   1.336 -0.0035 -0.8123  0.2014
   21RES     C3 5643   6.299   3.736   1.254 -0.0244 -0.2343 -0.0531
   21RES     C4 5644   6.307   3.605   1.329  1.1263  0.2168  0.1870
   21RES     O5 5645   6.414   3.624   1.427  0.8367 -0.3319  0.3495
   21RES     C6 5646   6.471   3.510   1.487 -0.1569  0.8791  0.4687
   21RES     H7 5647   6.381   3.882   1.404  1.9002 -3.2046 -1.5471
   21RES     H8 5648   6.215   3.867   1.408 -0.8916 -1.5167 -0.8012
   21RES     H9 5649   6.385   3.740   1.187  0.8620  1.7943  1.1267
   21RES    H10 5650   6.338   3.526   1.260 -0.9647 -0.1909 -0.3336
   21RES    H11 5651   6.213   3.581   1.379  0.3503  0.2711 -1.2073
   21RES    H12 5652   6.492   3.433   1.412 -2.7342  2.3513 -1.8547
   21RES    H13 5653   6.562   3.553   1.528  1.7006 -0.7031 -1.8321
   21RES    H14 5654   6.406   3.469   1.564  0.6630  0.3208  0.8706
   21RES    H15 5655   6.190   3.972   1.222 -0.9129  0.6460  1.7697
   21RES    O16 5656   6.180   3.740   1.174 -0.1411  0.6988  0.1044
   21RES    C17 5657   6.171   3.668   1.052 -0.0289  0.2855 -0.9083
   21RES    C18 5658   6.263   3.693   0.927  0.1024 -0.1420 -0.1656
   21RES    C19 5659   6.260   3.841   0.894 -0.2807 -0.6801  0.5254
   21RES    O20 5660   6.258   3.869   0.760 -0.3392 -0.2056  0.0757
   21RES    C21 5661   6.378   3.846   0.697  0.0311  0.2260  0.2294
   21RES    H22 5662   6.069   3.682   1.016 -1.1506 -0.5286  1.7933
   21RES    H23 5663   6.178   3.565   1.085  1.1439  0.1948 -1.4422
   21RES    H24 5664   6.232   3.631   0.843  0.7265 -0.6486 -0.0208
   21RES    H25 5665   6.166   3.890   0.920 -0.0141  0.8445 -1.1709
   21RES    H26 5666   6.332   3.903   0.948 -2.0578  2.2118 -0.2902
   21RES    H27 5667   6.468   3.883   0.745  1.0239 -1.2050 -0.4882
   21RES    H28 5668   6.368   3.903   0.605 -1.4390  0.1111  0.2989
   21RES    H29 5669   6.379   3.740   0.671 -1.4143  0.4738 -0.9046
   21RES    O30 5670   6.398   3.664   0.962  0.1496  0.2959 -0.2362
   21RES    C31 5671   6.450   3.542   0.913 -0.3214 -0.6475 -0.0040
   21RES    C32 5672   6.591   3.512   0.981  0.3280 -0.0164  0.4320
   21RES    C33 5673   6.631   3.370   0.928 -0.2328  0.4467  0.1467
   21RES    O34 5674   6.778   3.361   0.918  0.2084 -0.2096  0.0890
   21RES    C35 5675   6.827   3.235   0.963  0.3455  0.0095  0.2872
   21RES    H36 5676   6.383   3.457   0.931 -0.8569 -0.5266 -1.3730
   21RES    H37 5677   6.455   3.552   0.805 -1.0881  2.6717  0.2236
   21RES    H38 5678   6.668   3.587   0.966 -0.7046  1.1020  0.6609
   21RES    H39 5679   6.595   3.361   0.826  1.3999 -2.7247 -0.1990
   21RES    H40 5680   6.589   3.283   0.980 -2.8414  1.1994 -0.5966
   21RES    H41 5681   6.786   3.154   0.902 -1.5905 -1.3309  3.2337
   21RES    H42 5682   6.784   3.230   1.063 -0.4602  0.6453 -0.0195
   21RES    H43 5683   6.935   3.239   0.967  0.4472 -1.9644  0.2083
   21RES    O44 5684   6.564   3.502   1.114 -0.1311 -0.4542 -0.0851
   21RES    C45 5685   6.677   3.516   1.198  0.1034 -0.0824  0.2926
   21RES    C46 5686   6.699   3.665   1.247 -0.2915 -0.1491 -0.1363
   21RES    C47 5687   6.796   3.679   1.368 -0.6388  0.4042 -0.2306
   21RES    O48 5688   6.759   3.799   1.442 -0.7040 -0.1715  0.3509
   21RES    C49 5689   6.855   3.869   1.512 -0.6335  0.0638  0.5561
   21RES    H50 5690   6.767   3.477   1.150  0.2684  1.8695 -1.0259
   21RES    H51 5691   6.673   3.454   1.288 -0.0676  1.6854  1.5069
   21RES    H52 5692   6.603   3.695   1.288 -0.0822 -1.1313  1.1227
   21RES    H53 5693   6.799   3.598   1.440  1.1345 -1.2929 -2.1401
   21RES    H54 5694   6.894   3.699   1.325 -1.1897  1.7344 -0.8814
   21RES    H55 5695   6.912   3.930   1.440 -0.3835 -1.7168 -0.7864
   21RES    H56 5696   6.929   3.804   1.557  0.0815 -0.5962 -1.4805
   21RES    H57 5697   6.812   3.944   1.578  0.3658  0.3038  0.9385
   21RES    O58 5698   6.752   3.741   1.148 -0.2624  0.7465  0.0236
   21RES    C59 5699   6.668   3.849   1.113 -0.5312 -0.5148 -0.0984
   21RES    C60 5700   6.735   3.944   1.019 -0.3145 -0.3843  0.2918
   21RES    C61 5701   6.629   4.055   0.984  0.2744 -0.3434 -0.1337
   21RES    O62 5702   6.689   4.166   0.902 -0.0860  0.3030 -0.2828
   21RES    C63 5703   6.595   4.269   0.876 -0.3100  0.2621 -0.2880
   21RES    H64 5704   6.645   3.903   1.205 -0.8287 -0.2237 -0.3436
   21RES    H65 5705   6.572   3.806   1.084 -1.2667  1.6637 -0.9525
   21RES    H66 5706   6.823   3.986   1.067  1.5674 -2.2326 -1.4152
   21RES    H67 5707   6.546   4.012   0.928 -1.6678  1.8820  0.9700
   21RES    H68 5708   6.588   4.097   1.075  1.4636  0.3292  0.1152
   21RES    H69 5709   6.501   4.235   0.832 -1.2730  0.7800  1.3344
   21RES    H70 5710   6.644   4.348   0.821 -0.7925  0.8108  0.0624
   21RES    H71 5711   6.571   4.309   0.975 -0.4851  0.9032 -0.5923
   21RES    O72 5712   6.769   3.858   0.906 -0.4241 -0.3735  0.4465
   21RES    C73 5713   6.813   3.927   0.787 -0.4177  0.0135  0.4685
   21RES    C74 5714   6.906   3.846   0.695 -0.1122 -0.0499  0.0979
   21RES    C75 5715   6.848   3.718   0.645  0.4317 -0.6392 -0.8493
   21RES    O76 5716   6.912   3.670   0.534 -0.2927  0.0665 -0.0182
   21RES    C77 5717   6.835   3.568   0.469 -0.2096 -0.1083  0.7539
   21RES    H78 5718   6.729   3.951   0.722 -1.0496  0.3980  1.4134
   21RES    H79 5719   6.863   4.021   0.811  1.7125 -0.8810 -0.3407
   21RES    H80 5720   6.931   3.909   0.610 -2.5976 -0.8404 -1.2323
   21RES    H81 5721   6.742   3.737   0.626 -0.1394 -3.1112 -0.3619
   21RES    H82 5722   6.856   3.644   0.724 -1.8374 -0.7478 -0.6921
   21RES    H83 5723   6.742   3.616   0.438 -0.7621 -1.1774  0.7348
   21RES    H84 5724   6.818   3.475   0.524  0.6438  0.4029  1.9024
   21RES    H85 5725   6.888   3.538   0.379 -0.1103  1.4155  0.2870
   21RES    O86 5726   7.021   3.828   0.769  1.0150  0.1348  0.5409
   21RES    C87 5727   7.134   3.918   0.743  0.0257  0.2802 -0.5131
   21RES    C88 5728   7.217   3.868   0.621 -0.3155  0.1195 -0.2803
   21RES    C89 5729   7.290   3.985   0.554 -0.6458 -0.3315 -0.5392
   21RES    O90 5730   7.361   3.938   0.435 -0.0027  0.5523 -0.0282
   21RES    C91 5731   7.454   4.031   0.390  0.5231 -0.1740 -0.1761
   21RES    H92 5732   7.093   4.018   0.729  2.6355  1.3540 -0.6957
   21RES    H93 5733   7.198   3.926   0.831  0.3066 -2.1147 -0.4618
   21RES    H94 5734   7.154   3.817   0.548  0.1650 -1.5353  0.4496
   21RES    H95 5735   7.231   4.074   0.533  0.0731 -0.1274 -1.7272
   21RES    H96 5736   7.370   4.012   0.624 -0.9515 -2.0975  0.5339
   21RES    H97 5737   7.487   4.013   0.288  0.9178  0.0407 -0.0900
   21RES    H98 5738   7.419   4.133   0.405  0.3198  0.0160 -1.8821
   21RES    H99 5739   7.546   4.029   0.450 -0.0214 -0.2485  0.6599
   21RES   O100 5740   7.311   3.783   0.685 -0.1881  0.5878  0.4345
   21RES   C101 5741   7.346   3.663   0.612  0.0054 -0.2630  0.4368
   21RES   C102 5742   7.471   3.589   0.672  0.4818  0.4449 -0.0180
   21RES   C103 5743   7.549   3.511   0.561 -0.5345 -0.6128 -0.8018
   21RES   O104 5744   7.650   3.440   0.626  0.4734  0.0446 -0.0745
   21RES   C105 5745   7.758   3.404   0.541 -0.0538 -0.1209 -0.0703
   21RES   H106 5746   7.358   3.679   0.505  1.2339 -2.0187  0.2902
   21RES   H107 5747   7.255   3.603   0.622 -0.6353  0.3016 -1.7643
   21RES   H108 5748   7.538   3.655   0.727  1.8071 -1.9857  1.4211
   21RES   H109 5749   7.600   3.586   0.501 -2.0610  3.1578  2.3497
   21RES   H110 5750   7.474   3.452   0.509 -3.8014  2.5804  0.0464
   21RES   H111 5751   0.009   3.339   0.597  0.1788 -1.3732 -1.7686
   21RES   H112 5752   7.811   3.495   0.514 -2.1068  0.9847 -0.4636
   21RES   H113 5753   7.730   3.358   0.447 -1.4713 -0.0088  0.2936
   21RES   O114 5754   7.422   3.505   0.778 -1.0579  0.1128 -0.0190
   21RES   C115 5755   7.401   3.568   0.901 -0.0958 -0.7219 -0.0851
   21RES   C116 5756   7.526   3.539   0.995  0.5362  0.0788 -0.1840
   21RES   C117 5757   7.529   3.647   1.104 -0.1128 -0.1620  0.3384
   21RES   O118 5758   7.663   3.659   1.161  0.7028  0.1225  0.4096
   21RES   C119 5759   7.696   3.787   1.208 -0.0230  0.0376  0.2905
   21RES   H120 5760   7.377   3.674   0.893  3.3417  0.2293  1.2498
   21RES   H121 5761   7.313   3.525   0.948 -1.1715  1.0540 -0.4395
   21RES   H122 5762   7.617   3.563   0.940  1.5736  1.3404  2.0423
   21RES   H123 5763   7.491   3.741   1.063 -1.0881 -0.8764 -0.4215
   21RES   H124 5764   7.453   3.614   1.176 -1.5344  2.0050 -0.1153
   21RES   H125 5765   7.624   3.804   1.288  0.0850 -0.1292  0.4265
   21RES   H126 5766   7.679   3.861   1.131  0.0764 -1.3792 -1.1233
   21RES   H127 5767   7.796   3.798   1.249 -0.2982 -2.6596  1.8037
   21RES   O128 5768   7.516   3.406   1.052  0.3017  0.7155 -0.0687
   21RES   C129 5769   7.607   3.309   1.007 -0.2373  0.4274 -0.0073
   21RES   C130 5770   7.551   3.167   1.039 -0.5364  0.2579 -0.4052
   21RES   C131 5771   7.651   3.106   1.141 -0.1172 -0.0470  0.2713
   21RES   O132 5772   7.594   3.018   1.237  0.3645  0.2825 -0.0160
   21RES   C133 5773   7.686   2.965   1.338 -0.4883 -0.1241  0.6892
   21RES   H134 5774   7.620   3.311   0.898 -0.3890 -2.9895 -0.1456
   21RES   H135 5775   7.699   3.326   1.062  0.2002  1.7489 -1.1209
   21RES   H136 5776   7.458   3.188   1.093 -1.1074 -3.3635  0.1464
   21RES   H137 5777   7.681   3.188   1.207  0.1699  1.2140 -1.4150
   21RES   H138 5778   7.730   3.060   1.082 -1.2883  1.0629 -2.2520
   21RES   H139 5779   7.730   3.048   1.393 -2.1361 -0.0815  1.9455
   21RES   H140 5780   7.640   2.897   1.410  1.5724 -2.1487  0.1833
   21RES   H141 5781   7.768   2.905   1.297  0.3828  0.0271  2.1802
   21RES   O142 5782   7.545   3.083   0.921 -0.1931 -0.8940  0.5240
   21RES   C143 5783   7.420   3.083   0.856  0.5683  0.0669  0.3350
   21RES   C144 5784   7.416   2.955   0.759  0.0226  0.5625  0.0402
   21RES   C145 5785   7.292   2.953   0.667  0.2515  0.7161 -0.7624
   21RES   O146 5786   7.312   2.870   0.553 -0.1746  0.0084  0.0309
   21RES   C147 5787   7.227   2.758   0.549  0.8964  0.2373 -0.0056
   21RES   H148 5788   7.339   3.075   0.928 -0.7725 -0.1826 -1.1728
   21RES   H149 5789   7.415   3.169   0.789  0.3968  0.4059  0.7834
   21RES   H150 5790   7.510   2.961   0.704  0.5612  0.9537  0.9917
   21RES   H151 5791   7.276   3.054   0.628 -0.8528  0.2145 -1.6317
   21RES   H152 5792   7.205   2.924   0.726  0.4570  2.9690  0.7057
   21RES   H153 5793   7.121   2.784   0.561  0.1592 -2.5077 -0.3478
   21RES   H154 5794   7.244   2.677   0.619  0.0474  0.8315  0.9125
   21RES   H155 5795   7.228   2.706   0.454 -2.9226  0.0862 -0.0454
   21RES   O156 5796   7.407   2.836   0.829 -0.1846  0.2521  0.1663
   21RES   C157 5797   7.530   2.779   0.875 -0.2319 -0.2967  0.1968
   21RES   C158 5798   7.493   2.674   0.978 -0.4978  0.4592  0.1460
   21RES   C159 5799   7.482   2.729   1.115 -0.3497 -0.1577  0.0528
   21RES   O160 5800   7.373   2.682   1.192  0.2001 -0.3004 -0.3155
   21RES   C161 5801   7.343   2.780   1.289  0.3457 -0.2964 -0.1855
   21RES   H162 5802   7.586   2.750   0.787 -1.6090 -1.4014 -0.3345
   21RES   H163 5803   7.594   2.850   0.928  0.0212  2.3943 -3.5343
   21RES   H164 5804   7.396   2.640   0.944  0.8944 -1.6170 -1.8509
   21RES   H165 5805   7.576   2.727   1.170 -0.2537 -0.0141 -0.1076
   21RES   H166 5806   7.471   2.837   1.103 -3.0660 -0.4917 -0.7987
   21RES   H167 5807   7.249   2.751   1.337  0.5060 -1.2104 -0.4066
   21RES   H168 5808   7.310   2.872   1.241  0.7206 -0.6030 -1.0376
   21RES   H169 5809   7.419   2.808   1.362 -0.7636  0.7753  0.5613
   21RES   O170 5810   7.594   2.578   0.968 -0.3497  0.1228  0.4627
   21RES   C171 5811   7.540   2.451   1.021 -0.9177 -0.0875 -0.2554
   21RES   C172 5812   7.531   2.347   0.903  0.4596 -1.0485  0.6786
   21RES   C173 5813   7.668   2.324   0.831  0.5165 -0.1984 -0.2058
   21RES   O174 5814   7.671   2.187   0.782  0.2348 -0.7783 -0.4565
   21RES   C175 5815   7.778   2.178   0.685  0.0636  0.2178 -0.9380
   21RES   H176 5816   7.447   2.470   1.075  0.3622 -2.0477  2.7913
   21RES   H177 5817   7.606   2.415   1.100 -1.1920  0.9707  0.4643
   21RES   H178 5818   7.483   2.258   0.945  0.2719 -1.6920 -0.8526
   21RES   H179 5819   7.685   2.403   0.758  0.7247 -1.2123 -1.2691
   21RES   H180 5820   7.746   2.324   0.907  2.2765 -1.0103 -1.9371
   21RES   H181 5821   7.791   2.253   0.607 -1.1434  1.2456 -0.1677
   21RES   H182 5822   7.789   2.083   0.634  0.7022  0.5273 -1.3797
   21RES   H183 5823   0.060   2.175   0.730 -0.6893  1.0959  0.8301
   21RES   O184 5824   7.448   2.406   0.811  0.2857 -0.1571 -0.0038
   21RES   C185 5825   7.356   2.323   0.741 -0.4066 -0.9118 -0.0045
   21RES   C186 5826   7.232   2.287   0.831  0.2502  0.7080  0.6351
   21RES   C187 5827   7.162   2.156   0.787  0.2770  0.6456  0.4689
   21RES   O188 5828   7.073   2.105   0.888  0.5422 -0.1580  0.2100
   21RES   C189 5829   6.990   1.997   0.840 -0.9397  0.5861 -0.0175
   21RES   H190 5830   7.407   2.230   0.713 -0.3383 -1.5510  2.1239
   21RES   H191 5831   7.324   2.377   0.653 -0.2143  0.2210  0.6144
   21RES   H192 5832   7.262   2.271   0.934  0.4592 -0.0925  0.4504
   21RES   H193 5833   7.243   2.085   0.772 -1.1931 -0.5297 -2.0861
   21RES   H194 5834   7.127   2.172   0.685  2.6812  0.8925 -0.3481
   21RES   H195 5835   6.943   2.029   0.747 -2.2910  2.1115  1.1613
   21RES   H196 5836   7.058   1.916   0.813 -0.9703  0.4593  0.2770
   21RES   H197 5837   6.916   1.961   0.911  1.0617 -1.3881  1.1360
   21RES   O198 5838   7.123   2.376   0.816 -0.6574 -0.2007  0.1838
   21RES   C199 5839   7.139   2.498   0.883  0.0569 -0.1786 -0.3236
   21RES   C200 5840   7.011   2.580   0.862 -0.0290  0.5285  0.3141
   21RES   C201 5841   7.033   2.723   0.899 -0.2543  0.4576 -0.2591
   21RES   O202 5842   6.947   2.804   0.824 -0.0524  0.4012 -0.4169
   21RES   C203 5843   6.834   2.836   0.903  0.0951 -0.6344 -0.8575
   21RES   H204 5844   7.223   2.555   0.843  2.1736 -2.0798  1.2834
   21RES   H205 5845   7.150   2.490   0.991  1.1515  3.4841 -0.1100
   21RES   H206 5846   6.979   2.587   0.758 -0.2512  0.0531  0.3476
   21RES   H207 5847   7.044   2.749   1.005 -1.3697  1.7373 -0.4481
   21RES   H208 5848   7.137   2.749   0.878 -0.5052  0.5873 -1.3407
   21RES   H209 5849   6.779   2.908   0.843  1.4210 -0.6958 -2.1903
   21RES   H210 5850   6.865   2.889   0.993 -1.8415  0.7649 -0.9835
   21RES   H211 5851   6.763   2.758   0.929 -0.6553  0.8761  1.8524
   21RES   O212 5852   6.903   2.534   0.948  0.1642 -0.2394  0.4060
   21RES   C213 5853   6.833   2.423   0.891 -0.0013 -0.1973  0.3284
   21RES   C214 5854   6.692   2.412   0.950  0.4429  0.2818  0.6068
   21RES   C215 5855   6.631   2.269   0.940  0.2507  0.0667 -0.3124
   21RES   O216 5856   6.501   2.263   0.996 -0.1759  0.1749 -0.3833
   21RES   C217 5857   6.489   2.198   1.118  0.6490 -0.3011 -0.0043
   21RES   H218 5858   6.892   2.335   0.918  0.3821  0.6490  2.3488
   21RES   H219 5859   6.837   2.439   0.784  2.5029  1.2632  0.5972
   21RES   H220 5860   6.701   2.442   1.055  0.4463  1.9864  0.1388
   21RES   H221 5861   6.619   2.243   0.835  1.6733  0.7130 -0.6606
   21RES   H222 5862   6.701   2.192   0.972 -0.2439 -1.0071 -1.7900
   21RES   H223 5863   6.565   2.245   1.181  2.3594 -1.0669 -1.4644
   21RES   H224 5864   6.508   2.091   1.118  2.8657  0.0630 -1.5858
   21RES   H225 5865   6.388   2.216   1.156 -0.0672  0.7136 -2.3271
   21RES   O226 5866   6.617   2.502   0.867  0.1970  0.2128  0.6092
   21RES   C227 5867   6.530   2.585   0.933 -0.3192 -0.2579  0.7380
   21RES   C228 5868   6.438   2.656   0.829 -0.1874 -0.5203 -0.5397
   21RES   C229 5869   6.353   2.562   0.747 -0.1198 -0.3085  0.0587
   21RES   O230 5870   6.288   2.610   0.633 -0.1903  0.3683  0.4740
   21RES   C231 5871   6.366   2.621   0.514 -0.8256  0.0222 -0.3740
   21RES   H232 5872   6.579   2.660   0.995 -0.8579  1.1358 -0.4955
   21RES   H233 5873   6.463   2.525   0.994 -1.8734  0.0447 -0.6418
   21RES   H234 5874   6.503   2.712   0.761  0.0290 -1.9779 -1.5465
   21RES   H235 5875   6.277   2.522   0.814 -0.7806 -0.9201 -1.0515
   21RES   H236 5876   6.412   2.475   0.716 -0.7609  0.3892 -3.2740
   21RES   H237 5877   6.461   2.673   0.528 -1.2696  0.9706 -0.8556
   21RES   H238 5878   6.316   2.686   0.443 -0.0246  1.5217  0.4070
   21RES   H239 5879   6.398   2.523   0.479  1.9905  0.2269  1.4497
   21RES   O240 5880   6.354   2.746   0.905  0.5534  0.4031  0.4390
   21RES   C241 5881   6.293   2.849   0.826 -0.0103  0.7913  0.4765
   21RES   C242 5882   6.365   2.983   0.831 -0.1955 -0.4008  0.4220
   21RES   C243 5883   6.393   3.017   0.972  0.4936  0.4085 -0.0410
   21RES   O244 5884   6.373   3.158   0.988 -0.3482  0.1291 -0.6546
   21RES   C245 5885   6.376   3.199   1.121  0.5359 -0.4895  0.3246
   21RES   H246 5886   6.197   2.877   0.869 -0.0350  1.5213 -0.0523
   21RES   H247 5887   6.258   2.823   0.726 -0.4124  1.8690  0.3294
   21RES   H248 5888   6.307   3.062   0.783  0.5174  1.5816  2.7215
   21RES   H249 5889   6.318   2.964   1.031 -0.7373  1.5825 -0.5183
   21RES   H250 5890   6.487   2.979   1.013 -0.2476 -2.1158 -0.6018
   21RES   H251 5891   6.453   3.156   1.186  1.2687  0.8107  0.3215
   21RES   H252 5892   6.279   3.191   1.170  0.9240  0.6246  1.3040
   21RES   H253 5893   6.408   3.301   1.100  1.7114 -1.6906 -4.1958
   21RES   O254 5894   6.489   2.982   0.756  0.3953 -0.1602 -0.3747
   21RES   C255 5895   6.469   3.008   0.614 -0.2857  0.1657  0.7944
   21RES   C256 5896   6.595   2.971   0.528  0.2878  0.4851 -0.1966
   21RES   C257 5897   6.552   2.975   0.376 -0.1016  0.3639 -0.6713
   21RES   O258 5898   6.478   3.100   0.350  0.3113  0.3684 -0.2637
   21RES   C259 5899   6.571   3.205   0.316  0.0953  0.4281 -0.2076
   21RES   H260 5900   6.384   2.949   0.578 -0.2843  1.4680 -1.4045
   21RES   H261 5901   6.431   3.108   0.595  1.7015  0.7999  0.0834
   21RES   H262 5902   6.629   2.870   0.554  0.0110  0.5233  0.3194
   21RES   H263 5903   6.633   2.953   0.307 -0.2353  0.8204 -0.9734
   21RES   H264 5904   6.482   2.891   0.369  1.0650 -1.0897  3.3931
   21RES   H265 5905   6.627   3.173   0.228  1.0083  1.3569  0.0234
   21RES   H266 5906   6.640   3.238   0.394  2.8299 -0.5736 -2.1542
   21RES   H267 5907   6.515   3.297   0.298 -3.5494 -1.1270  2.4226
   21RES   O268 5908   6.701   3.060   0.562 -0.0170  0.0501  0.4872
   21RES   C269 5909   6.824   3.029   0.485  0.9365 -0.4940  0.0622
   21RES   C270 5910   6.950   3.039   0.567 -0.4922 -0.9257 -0.4422
   21RES   C271 5911   6.970   3.185   0.613  0.4139  0.2710 -0.2955
   21RES   O272 5912   7.088   3.179   0.689 -0.0075  0.3001 -0.3097
   21RES   C273 5913   7.129   3.307   0.728 -0.5262  0.2082  0.5305
   21RES   H274 5914   6.842   3.101   0.405  0.5506 -2.6644 -2.0538
   21RES   H275 5915   6.827   2.931   0.436  0.1971 -0.7464  0.5094
   21RES   H276 5916   6.948   2.979   0.658 -0.9175 -1.6094 -0.8953
   21RES   H277 5917   6.889   3.228   0.672 -0.4647 -1.7189 -0.0187
   21RES   H278 5918   6.967   3.239   0.518  3.1644 -1.0260 -1.1734
   21RES   H279 5919   7.066   3.351   0.806 -0.6121 -2.2254  1.8915
   21RES   H280 5920   7.143   3.373   0.643  1.2086 -2.6372 -1.5095
   21RES   H281 5921   7.228   3.295   0.773 -0.6281 -1.5893  0.3087
   21RES   H282 5922   7.037   3.007   0.510  1.9792 -0.1899  2.7729
   22RES     O1 5923   7.049   4.428   1.804 -0.1450  0.4323 -0.3176
   22RES     C2 5924   6.952   4.337   1.821 -0.5201  0.6272 -0.0194
   22RES     C3 5925   6.999   4.215   1.905  0.0565 -0.5884 -0.5528
   22RES     C4 5926   6.901   4.103   1.921  0.4567 -0.2931 -0.4137
   22RES     O5 5927   6.946   3.994   2.009  0.5510  0.4457 -0.4689
   22RES     C6 5928   6.835   3.910   2.029  0.0741  0.5452  0.2486
   22RES     H7 5929   6.874   4.386   1.879 -1.5510 -1.7830  0.6863
   22RES     H8 5930   6.916   4.304   1.724 -1.1658 -0.2146  0.5023
   22RES     H9 5931   7.024   4.256   2.003  0.9659  1.3495 -1.5694
   22RES    H10 5932   6.889   4.061   1.821 -1.5870 -2.4748  0.7030
   22RES    H11 5933   6.809   4.147   1.959  0.4442  0.6131 -1.4694
   22RES    H12 5934   6.865   3.822   2.087 -0.5216  0.6360  0.7029
   22RES    H13 5935   6.762   3.958   2.094  0.6331  1.6138  0.0956
   22RES    H14 5936   6.788   3.887   1.934  0.0831 -1.6924  0.7443
   22RES    H15 5937   7.117   4.376   1.763 -0.4921  0.7748 -1.3487
   22RES    O16 5938   7.102   4.168   1.819  0.8586 -0.1982  0.0319
   22RES    C17 5939   7.214   4.127   1.900  0.1751 -0.8758  0.2369
   22RES    C18 5940   7.310   4.254   1.931  0.3225  0.5822  0.6498
   22RES    C19 5941   7.409   4.220   2.043 -0.1920 -0.0184 -0.1832
   22RES    O20 5942   7.469   4.092   2.024  0.4906 -0.1129  0.4001
   22RES    C21 5943   7.547   4.074   2.144  0.7236 -0.0483  0.3740
   22RES    H22 5944   7.267   4.041   1.858 -2.4477 -2.1728 -0.5065
   22RES    H23 5945   7.180   4.084   1.994  0.1554 -3.4253 -0.8946
   22RES    H24 5946   7.236   4.325   1.968  0.5057  1.0723  0.0855
   22RES    H25 5947   7.476   4.305   2.046 -1.2551  0.9684 -2.9795
   22RES    H26 5948   7.362   4.227   2.141 -1.1067  0.3093 -0.6328
   22RES    H27 5949   7.625   3.998   2.137  0.5176 -0.1884 -0.5195
   22RES    H28 5950   7.473   4.056   2.222 -0.6765 -0.6247 -1.0616
   22RES    H29 5951   7.596   4.166   2.177 -2.5284  1.6515  0.7483
   22RES    O30 5952   7.370   4.310   1.805 -0.1465 -0.0198 -0.2152
   22RES    C31 5953   7.477   4.245   1.748  0.0346 -0.5132 -0.7332
   22RES    C32 5954   7.515   4.305   1.619 -0.3214  0.4617  0.3720
   22RES    C33 5955   7.589   4.205   1.527  0.6145 -0.1531 -0.2259
   22RES    O34 5956   7.587   4.257   1.395 -0.5275 -0.5323 -0.4038
   22RES    C35 5957   7.655   4.165   1.315  0.0258 -0.8136  0.6077
   22RES    H36 5958   7.564   4.246   1.814  0.7938  0.1712 -1.7303
   22RES    H37 5959   7.440   4.143   1.741  1.3309 -1.1546  1.3021
   22RES    H38 5960   7.417   4.329   1.579 -1.3463 -2.6833  0.8969
   22RES    H39 5961   7.533   4.112   1.525 -3.5250  2.1908 -0.5939
   22RES    H40 5962   7.688   4.198   1.571 -0.1882 -1.8109  1.3486
   22RES    H41 5963   7.758   4.174   1.349  0.1582 -0.4633  0.1146
   22RES    H42 5964   7.652   4.194   1.210 -0.1222  0.3544  0.9241
   22RES    H43 5965   7.626   4.060   1.310  0.3809 -0.8530 -0.6683
   22RES    O44 5966   7.588   4.423   1.642 -0.5867  0.6039 -0.0245
   22RES    C45 5967   7.560   4.520   1.551  0.2403  0.5776  0.1494
   22RES    C46 5968   7.668   4.632   1.555 -0.2549 -0.4454 -0.2217
   22RES    C47 5969   7.667   4.733   1.439  0.0244  0.8503 -0.6749
   22RES    O48 5970   7.805   4.770   1.421  0.5457 -0.3399 -0.4236
   22RES    C49 5971   0.003   4.905   1.399  0.0079 -0.3198 -0.2424
   22RES    H50 5972   7.470   4.579   1.573  0.3934  0.3278  1.5417
   22RES    H51 5973   7.556   4.487   1.448  0.7211 -2.4516  1.0399
   22RES    H52 5974   7.771   4.600   1.547  1.0521  2.6662  2.5402
   22RES    H53 5975   7.639   4.670   1.355  2.3277 -2.6032  1.0149
   22RES    H54 5976   7.600   4.815   1.462  1.2523  1.5444  0.4977
   22RES    H55 5977   7.784   4.939   1.301 -1.6147 -3.0470 -0.6332
   22RES    H56 5978   0.109   4.929   1.388 -0.2904  0.2153 -2.1392
   22RES    H57 5979   7.779   4.967   1.479 -0.5393 -0.4782 -0.3942
   22RES    O58 5980   7.644   4.714   1.667 -0.4698 -0.4477  0.1674
   22RES    C59 5981   7.761   4.730   1.748  0.0870 -0.1768  0.1648
   22RES    C60 5982   7.736   4.817   1.870 -0.6186 -1.1744 -0.9099
   22RES    C61 5983   0.049   4.883   1.912 -0.1799  0.3312  0.1093
   22RES    O62 5984   0.023   4.987   2.005 -0.4904 -0.5677 -0.2663
   22RES    C63 5985   0.138   5.031   2.080  0.2614 -0.1899  0.0849
   22RES    H64 5986   0.012   4.783   1.681  0.2513 -1.8137 -0.9804
   22RES    H65 5987   7.809   4.633   1.762  2.3300  1.1372  1.9646
   22RES    H66 5988   7.653   4.886   1.856  1.6830  1.3381 -2.6140
   22RES    H67 5989   0.123   4.815   1.954 -0.4436 -1.4619 -2.2712
   22RES    H68 5990   0.097   4.923   1.823  0.4055 -0.9681 -0.1716
   22RES    H69 5991   0.101   5.108   2.148 -1.1899  0.1484 -1.0693
   22RES    H70 5992   0.221   5.067   2.019 -0.7380  0.3840 -0.9690
   22RES    H71 5993   0.181   4.962   2.153 -3.3498 -1.7623  0.8184
   22RES    O72 5994   7.700   4.729   1.978 -0.3853  0.2599  0.7349
   22RES    C73 5995   7.576   4.658   1.962  0.2028 -0.4185  0.8800
   22RES    C74 5996   7.480   4.707   2.075  0.4252 -0.6822 -0.2644
   22RES    C75 5997   7.357   4.614   2.103 -0.6422  0.0489  0.0239
   22RES    O76 5998   7.262   4.628   2.214 -0.1132 -0.2275  0.2688
   22RES    C77 5999   7.170   4.724   2.188  0.4342  0.2015 -0.0511
   22RES    H78 6000   7.530   4.668   1.864  1.8511  0.6470  0.1892
   22RES    H79 6001   7.599   4.554   1.985 -0.4884 -1.0418 -1.1615
   22RES    H80 6002   7.531   4.704   2.171 -1.2241  1.9559  0.7634
   22RES    H81 6003   7.407   4.520   2.125 -0.3271  0.4207  0.8714
   22RES    H82 6004   7.298   4.596   2.012 -0.5082 -1.1995  0.1815
   22RES    H83 6005   7.205   4.826   2.206 -0.9076  0.6069  0.3103
   22RES    H84 6006   7.102   4.710   2.272 -0.0791  2.4569 -0.0471
   22RES    H85 6007   7.112   4.715   2.096  0.3069  1.3240 -0.0913
   22RES    O86 6008   7.426   4.838   2.048 -0.2725 -0.2039  0.0385
   22RES    C87 6009   7.490   4.950   2.107  0.0319  0.2586 -0.1031
   22RES    C88 6010   7.428   5.082   2.051  0.5413 -0.7439 -0.0526
   22RES    C89 6011   7.464   5.094   1.900 -0.0115 -0.7474  0.1578
   22RES    O90 6012   7.387   5.198   1.849 -0.2310  0.4321 -0.5965
   22RES    C91 6013   7.402   5.232   1.711 -0.7987  0.6668  0.2377
   22RES    H92 6014   7.475   4.948   2.214 -3.7867 -2.4633 -0.5814
   22RES    H93 6015   7.598   4.952   2.088  0.3967 -1.0042  1.7498
   22RES    H94 6016   7.482   5.162   2.102  0.0516  0.3275 -1.1958
   22RES    H95 6017   7.571   5.108   1.889  0.1516 -0.1854  2.3180
   22RES    H96 6018   7.436   5.004   1.845 -0.3251 -0.5840  0.0435
   22RES    H97 6019   7.366   5.332   1.687 -1.8507  0.4129  0.7078
   22RES    H98 6020   7.508   5.226   1.684 -0.7362  1.2527  0.3565
   22RES    H99 6021   7.343   5.164   1.650 -3.0662 -0.4005  3.4847
   22RES   O100 6022   7.284   5.088   2.070 -0.6112 -0.6127  0.0197
   22RES   C101 6023   7.252   5.126   2.205  0.2455  0.1698 -0.3317
   22RES   C102 6024   7.266   5.279   2.242 -0.0685  0.4269 -0.2578
   22RES   C103 6025   7.320   5.311   2.381 -0.1189  0.8263  0.1840
   22RES   O104 6026   7.427   5.401   2.359 -0.4735  0.6755  1.3434
   22RES   C105 6027   7.491   5.441   2.471 -0.0517 -0.3565  0.1439
   22RES   H106 6028   7.311   5.065   2.274 -0.5254 -1.1142 -0.7934
   22RES   H107 6029   7.152   5.086   2.221 -0.1169  1.0918 -0.2988
   22RES   H108 6030   7.341   5.311   2.170  1.9978  0.0112  1.6559
   22RES   H109 6031   7.368   5.218   2.412  2.4009  0.8614 -3.3010
   22RES   H110 6032   7.249   5.345   2.457  0.9627  3.4941  0.0760
   22RES   H111 6033   7.570   5.511   2.443 -0.7750  0.5143  0.2506
   22RES   H112 6034   7.541   5.358   2.521  1.4991 -0.1798 -1.0883
   22RES   H113 6035   7.427   5.497   2.540 -0.2340 -0.0889 -0.2434
   22RES   O114 6036   7.145   5.351   2.218  0.6211 -0.1392 -0.4462
   22RES   C115 6037   7.101   5.366   2.085 -0.3254  0.1361  0.9873
   22RES   C116 6038   7.179   5.464   1.988  0.3079 -0.3595 -0.6462
   22RES   C117 6039   7.097   5.500   1.865 -0.1901  0.1102  0.4789
   22RES   O118 6040   7.169   5.528   1.746 -0.3132 -0.3499 -0.4827
   22RES   C119 6041   7.253   5.640   1.758 -0.2569 -0.3627  0.5695
   22RES   H120 6042   7.099   5.273   2.028 -0.5628  1.4242 -1.1521
   22RES   H121 6043   7.001   5.405   2.101  0.1670  1.2898  1.2681
   22RES   H122 6044   7.270   5.413   1.955  1.7452  2.3160 -0.9377
   22RES   H123 6045   7.042   5.407   1.851  0.0035 -0.1267  1.3096
   22RES   H124 6046   7.021   5.575   1.888  0.1756  0.3171  0.9923
   22RES   H125 6047   7.273   5.676   1.657 -1.8059 -1.3773 -0.1220
   22RES   H126 6048   7.341   5.614   1.817  0.0360  0.2434  0.4092
   22RES   H127 6049   7.184   5.710   1.806 -3.1900 -0.0328 -3.7816
   22RES   O128 6050   7.198   5.592   2.054  0.3004 -0.4833  0.2259
   22RES   C129 6051   7.310   5.598   2.146 -0.3168 -0.8752 -0.3753
   22RES   C130 6052   7.341   5.745   2.187  0.4424 -0.2218  0.1413
   22RES   C131 6053   7.434   5.812   2.082  0.2223  0.7757 -0.9926
   22RES   O132 6054   7.420   5.952   2.080 -0.1315 -0.2283  0.3253
   22RES   C133 6055   7.508   6.014   2.161 -0.2603  0.0411  0.1471
   22RES   H134 6056   7.263   5.555   2.235 -1.4393 -0.3586 -0.7132
   22RES   H135 6057   7.403   5.551   2.111  0.4808 -2.2931  3.4078
   22RES   H136 6058   7.252   5.805   2.175  0.5483  0.0732  0.8181
   22RES   H137 6059   7.390   5.783   1.987 -0.5935 -0.0911 -0.3604
   22RES   H138 6060   7.537   5.777   2.083  0.4844  1.4947  1.6579
   22RES   H139 6061   7.478   6.027   2.265  0.7687 -0.2436  0.4969
   22RES   H140 6062   7.603   5.960   2.152  0.4002  1.3949 -1.1494
   22RES   H141 6063   7.523   6.116   2.127  0.9836 -0.0147  0.4795
   22RES   O142 6064   7.387   5.758   2.323 -0.0038  0.3692  0.0725
   22RES   C143 6065   7.280   5.803   2.413 -0.0716 -0.2457 -0.3535
   22RES   C144 6066   7.336   5.814   2.559  0.3672 -0.5234  0.6674
   22RES   C145 6067   7.231   5.858   2.667  0.9515 -0.2310  0.3267
   22RES   O146 6068   7.219   5.764   2.777 -0.0475 -0.1181 -1.0897
   22RES   C147 6069   7.105   5.792   2.860 -0.0682  0.1567 -0.1118
   22RES   H148 6070   7.267   5.908   2.387 -1.5054 -0.4262 -0.4235
   22RES   H149 6071   7.190   5.742   2.403 -0.0995 -0.3355  0.3993
   22RES   H150 6072   7.359   5.711   2.586 -0.0227 -1.0191 -0.8441
   22RES   H151 6073   7.136   5.878   2.619  1.3106  1.1055  0.1442
   22RES   H152 6074   7.260   5.957   2.703 -0.5890  0.2159  0.3366
   22RES   H153 6075   7.096   5.720   2.941 -2.4308  1.1268  0.5299
   22RES   H154 6076   7.011   5.785   2.805 -0.0931  1.1588 -0.2069
   22RES   H155 6077   7.112   5.887   2.913  1.5816  0.2747 -0.5175
   22RES   O156 6078   7.452   5.893   2.564  0.1296 -0.0840 -0.0750
   22RES   C157 6079   7.571   5.811   2.548 -0.0838  0.1309 -0.0419
   22RES   C158 6080   7.687   5.910   2.521 -0.7961 -0.3282  0.2347
   22RES   C159 6081   7.802   5.858   2.429 -0.6081  0.3054 -0.5412
   22RES   O160 6082   0.007   5.721   2.443 -0.4291 -0.1344 -0.6681
   22RES   C161 6083   0.151   5.699   2.410  0.0753 -0.3035  0.0074
   22RES   H162 6084   7.590   5.746   2.633 -1.0507 -0.5139 -0.3071
   22RES   H163 6085   7.565   5.741   2.465 -3.3562  3.2539 -2.6235
   22RES   H164 6086   7.647   5.998   2.472  0.3776  0.4226  0.6140
   22RES   H165 6087   7.760   5.874   2.329  0.5464 -1.4542 -1.3280
   22RES   H166 6088   0.074   5.920   2.430  0.8459 -1.7585 -0.0341
   22RES   H167 6089   0.166   5.743   2.312  0.5121 -0.7789 -0.1385
   22RES   H168 6090   0.185   5.597   2.393  2.5561  0.8862 -2.4790
   22RES   H169 6091   0.221   5.734   2.487 -0.9692 -0.3378  0.9902
   22RES   O170 6092   7.735   5.941   2.649  0.7219 -0.2445 -0.2413
   22RES   C171 6093   7.766   6.076   2.656 -0.0488 -0.4653 -0.5471
   22RES   C172 6094   0.023   6.104   2.792 -0.3599  0.1499  0.1388
   22RES   C173 6095   0.036   6.258   2.825 -0.2536  0.2213 -0.2944
   22RES   O174 6096   0.119   6.318   2.723  0.6936 -0.3636  0.1701
   22RES   C175 6097   0.126   6.459   2.725  0.7742  0.1311 -0.0627
   22RES   H176 6098   7.672   6.129   2.643 -0.9225 -1.3802  1.7617
   22RES   H177 6099   0.002   6.101   2.564  0.2448 -2.0818 -0.8313
   22RES   H178 6100   7.783   6.072   2.879  1.3220  1.0298  1.5958
   22RES   H179 6101   7.762   6.317   2.813 -0.6830 -0.4979 -0.6165
   22RES   H180 6102   0.075   6.268   2.927 -0.9215  0.0686 -0.0171
   22RES   H181 6103   0.183   6.490   2.637 -0.7857  0.9299 -0.8293
   22RES   H182 6104   0.172   6.501   2.814  0.0084  2.3189 -0.6669
   22RES   H183 6105   0.028   6.507   2.733  1.4239  1.5401 -0.3752
   22RES   O184 6106   0.158   6.054   2.810  0.6812  0.6771 -0.3770
   22RES   C185 6107   0.173   5.913   2.835  0.1502  0.0323  0.3552
   22RES   C186 6108   0.323   5.891   2.865  0.2334 -0.0990  0.0465
   22RES   C187 6109   0.377   5.759   2.815 -0.7188 -0.1508  0.3723
   22RES   O188 6110   0.519   5.768   2.813  0.1928  0.0517  0.5556
   22RES   C189 6111   0.587   5.653   2.750 -0.5075 -0.1964  0.2045
   22RES   H190 6112   0.135   5.861   2.747 -1.0961  1.6325 -0.0776
   22RES   H191 6113   0.111   5.880   2.918  0.8898 -2.8747 -0.1936
   22RES   H192 6114   0.387   5.963   2.814 -1.7607  2.4920  1.1116
   22RES   H193 6115   0.341   5.741   2.714 -0.9442 -2.7068  0.8846
   22RES   H194 6116   0.348   5.672   2.873  2.8300 -0.3072  2.0523
   22RES   H195 6117   0.542   5.630   2.653 -0.1799 -1.7660  0.4113
   22RES   H196 6118   0.694   5.671   2.752 -0.8032  1.5520  0.5641
   22RES   H197 6119   0.560   5.568   2.813  0.6661 -1.0005 -0.3605
   22RES   O198 6120   0.340   5.887   3.008 -0.2698  0.0566  0.2586
   22RES   C199 6121   0.422   5.994   3.067 -0.4169 -0.8765 -0.8491
   22RES   C200 6122   0.463   5.955   3.202  0.5928 -0.5829 -0.3864
   22RES   C201 6123   0.539   6.061   3.282  0.0766  0.6582  0.0624
   22RES   O202 6124   0.494   6.056   3.418 -0.0828 -0.4748 -0.2985
   22RES   C203 6125   0.576   6.133   3.501  0.1501  0.3570 -0.6460
   22RES   H204 6126   0.352   6.078   3.069  0.4299 -0.1666 -0.7027
   22RES   H205 6127   0.514   6.024   3.016  0.5202  1.8866  2.2967
   22RES   H206 6128   0.374   5.933   3.261  1.0982  1.3304  1.1781
   22RES   H207 6129   0.647   6.053   3.274  0.0340  0.8052 -0.6908
   22RES   H208 6130   0.495   6.153   3.243 -1.7496 -0.5048 -0.7079
   22RES   H209 6131   0.531   6.134   3.601  0.6412  0.9739 -0.4201
   22RES   H210 6132   0.572   6.232   3.454 -0.2935 -0.1096 -1.5930
   22RES   H211 6133   0.675   6.088   3.515 -0.7914 -1.7496 -0.5923
   22RES   O212 6134   0.535   5.831   3.201 -0.2304 -0.0190  0.1032
   22RES   C213 6135   0.657   5.820   3.128 -0.0154  0.5589  0.7180
   22RES   C214 6136   0.729   5.694   3.176  0.3426 -0.1116  0.3412
   22RES   C215 6137   0.879   5.715   3.167 -0.6220 -0.5107  0.5256
   22RES   O216 6138   0.952   5.619   3.241  0.8461 -0.7306  0.0602
   22RES   C217 6139   1.061   5.670   3.312  0.2927  0.3225 -0.4465
   22RES   H218 6140   0.719   5.909   3.138 -0.0224  0.8416 -1.5098
   22RES   H219 6141   0.640   5.809   3.021 -2.7699  3.0409  0.8215
   22RES   H220 6142   0.717   5.679   3.283  2.2284  3.3067  1.1005
   22RES   H221 6143   0.923   5.710   3.067 -0.5596 -0.9836  0.5739
   22RES   H222 6144   0.905   5.811   3.213  0.7703 -0.7591  0.2881
   22RES   H223 6145   1.112   5.753   3.263 -1.6585  1.9947  0.3047
   22RES   H224 6146   1.125   5.582   3.321 -1.4280 -0.9211 -0.2557
   22RES   H225 6147   1.020   5.698   3.409 -1.5706 -0.5946 -0.9537
   22RES   O226 6148   0.696   5.573   3.102 -0.2401 -0.0573  0.2857
   22RES   C227 6149   0.558   5.540   3.129 -0.1723  0.3658  0.2631
   22RES   C228 6150   0.546   5.387   3.117 -0.3134  0.1216  0.3497
   22RES   C229 6151   0.402   5.333   3.146  0.5301  0.2955 -1.1239
   22RES   O230 6152   0.416   5.188   3.130  0.3584 -0.0271 -0.2602
   22RES   C231 6153   0.297   5.117   3.120 -0.5183 -0.0426  0.2076
   22RES   H232 6154   0.490   5.590   3.060  0.4467 -1.1114 -1.4609
   22RES   H233 6155   0.521   5.560   3.229 -0.9377  2.1414 -0.3428
   22RES   H234 6156   0.624   5.347   3.181  0.2832 -0.0844 -0.5018
   22RES   H235 6157   0.333   5.373   3.072 -0.3382  1.1823  0.1372
   22RES   H236 6158   0.360   5.365   3.242  0.0309 -1.5430 -0.7121
   22RES   H237 6159   0.326   5.018   3.082 -1.0504 -0.1284  0.0145
   22RES   H238 6160   0.220   5.166   3.060 -0.2437  1.4915  1.0818
   22RES   H239 6161   0.270   5.104   3.225 -1.9128 -2.5339 -0.4150
   22RES   O240 6162   0.567   5.353   2.976  0.1912 -0.7079 -0.3043
   22RES   C241 6163   0.656   5.239   2.966 -0.5781 -0.9465 -0.1799
   22RES   C242 6164   0.689   5.218   2.817 -0.1305 -0.2983 -0.4792
   22RES   C243 6165   0.821   5.142   2.793 -0.0569 -0.0532  0.2485
   22RES   O244 6166   0.931   5.226   2.835 -0.3668  0.0897 -0.2167
   22RES   C245 6167   1.053   5.163   2.799 -0.5243 -0.2001  0.5691
   22RES   H246 6168   0.604   5.148   3.000 -0.2924 -1.3216 -0.7364
   22RES   H247 6169   0.742   5.261   3.028 -0.6276 -0.8316 -0.1526
   22RES   H248 6170   0.704   5.314   2.768 -1.5504 -0.8531 -2.0761
   22RES   H249 6171   0.816   5.059   2.863  1.3593 -0.8265 -0.5258
   22RES   H250 6172   0.835   5.105   2.691  0.9941  0.1055  0.3242
   22RES   H251 6173   1.137   5.228   2.822 -0.2737  0.0141 -0.9079
   22RES   H252 6174   1.063   5.157   2.691  0.0265  2.4903  0.4375
   22RES   H253 6175   1.055   5.062   2.841 -1.6126 -0.2598  0.4985
   22RES   O254 6176   0.594   5.135   2.749  0.6101  0.0158  0.4071
   22RES   C255 6177   0.461   5.172   2.765  0.0920 -0.5603 -0.1558
   22RES   C256 6178   0.374   5.132   2.643  0.7872 -0.8147  0.5016
   22RES   C257 6179   0.239   5.109   2.695  0.3293  0.4248 -0.4898
   22RES   O258 6180   0.178   5.219   2.765 -0.4994  0.6940 -0.1015
   22RES   C259 6181   0.129   5.322   2.680  1.1758 -0.1065 -0.8827
   22RES   H260 6182   0.430   5.126   2.859  1.7237 -0.7924  0.2818
   22RES   H261 6183   0.448   5.280   2.766 -2.6688 -0.8456 -0.5280
   22RES   H262 6184   0.403   5.032   2.610 -0.0689 -1.1476  0.7469
   22RES   H263 6185   0.172   5.075   2.616  1.3630 -1.4923 -0.5566
   22RES   H264 6186   0.228   5.022   2.759 -0.0015 -0.4159 -1.6698
   22RES   H265 6187   0.027   5.311   2.643  0.7878  0.4511  0.0113
   22RES   H266 6188   0.189   5.357   2.596 -0.0232  1.4199 -1.1291
   22RES   H267 6189   0.107   5.402   2.751 -0.3089  0.0358 -1.5005
   22RES   O268 6190   0.380   5.222   2.528 -0.1928 -0.2298  0.4632
   22RES   C269 6191   0.480   5.189   2.430  0.0737  0.0697  0.8379
   22RES   C270 6192   0.491   5.308   2.339  0.1303 -0.3259  0.2869
   22RES   C271 6193   0.368   5.337   2.247 -0.1716  0.0247  0.4624
   22RES   O272 6194   0.388   5.457   2.166 -0.5753 -0.4379 -0.5255
   22RES   C273 6195   0.296   5.461   2.057  0.6290 -0.0830  0.0516
   22RES   H274 6196   0.463   5.102   2.366  0.0030  1.6458 -1.3222
   22RES   H275 6197   0.575   5.179   2.482  1.0008 -2.1025 -1.1708
   22RES   H276 6198   0.493   5.398   2.401  0.2863 -0.8655  1.0784
   22RES   H277 6199   0.270   5.342   2.295 -0.0303 -1.3583  0.9075
   22RES   H278 6200   0.361   5.255   2.175  1.7508  1.4017 -1.3408
   22RES   H279 6201   0.194   5.444   2.093  0.4841  0.5134 -0.0719
   22RES   H280 6202   0.319   5.383   1.984 -2.1599 -2.3450  1.4707
   22RES   H281 6203   0.302   5.561   2.013 -0.0718 -0.2903 -0.5324
   22RES   H282 6204   0.587   5.310   2.289 -0.4572 -1.8133 -0.9202
   23RES     O1 6205   1.711   1.413   6.281 -0.6550  0.3331  0.0112
   23RES     C2 6206   1.827   1.415   6.363  0.0175  0.0458 -0.3439
   23RES     C3 6207   1.862   1.563   6.389  0.2781  0.3313 -0.0911
   23RES     C4 6208   1.990   1.563   6.477  0.1917  0.4057 -0.1631
   23RES     O5 6209   2.032   1.698   6.482  0.5213  0.3826  0.7290
   23RES     C6 6210   1.943   1.764   6.570 -0.1293  0.9780  0.5150
   23RES     H7 6211   1.802   1.361   6.454 -0.5249 -0.0598 -0.5537
   23RES     H8 6212   1.901   1.357   6.308 -0.3214 -0.5735 -0.1415
   23RES     H9 6213   1.786   1.613   6.449 -0.5376 -3.3992  2.1792
   23RES    H10 6214   2.059   1.498   6.424 -0.0293 -1.4285  1.7283
   23RES    H11 6215   1.974   1.513   6.573 -3.3700 -0.3304 -1.0833
   23RES    H12 6216   1.975   1.867   6.590  2.9768 -0.2391  2.1546
   23RES    H13 6217   1.844   1.782   6.530  0.1305 -1.5718 -1.3595
   23RES    H14 6218   1.941   1.727   6.672  0.9130 -2.2803 -0.5966
   23RES    H15 6219   1.736   1.449   6.198  2.5157 -1.0698  0.3058
   23RES    O16 6220   1.890   1.617   6.264 -0.6481 -0.6026 -0.0111
   23RES    C17 6221   1.821   1.734   6.220 -0.1517  0.1313  0.2731
   23RES    C18 6222   1.854   1.769   6.076  0.3255  0.2682  0.3826
   23RES    C19 6223   1.744   1.859   6.015  0.0045 -0.3985 -0.9216
   23RES    O20 6224   1.742   1.836   5.875 -0.2281  0.1002 -0.2705
   23RES    C21 6225   1.627   1.883   5.811  0.4422  0.7353  0.2188
   23RES    H22 6226   1.839   1.820   6.284  0.3712 -1.1571  1.9222
   23RES    H23 6227   1.715   1.711   6.232  0.0639 -0.1241  1.8992
   23RES    H24 6228   1.863   1.686   6.006  0.0084 -0.1353  0.8170
   23RES    H25 6229   1.646   1.841   6.058 -0.1583  1.2225 -0.5719
   23RES    H26 6230   1.770   1.963   6.036  1.8625 -0.7505 -1.3567
   23RES    H27 6231   1.538   1.842   5.859  1.1366 -1.0130  0.0520
   23RES    H28 6232   1.631   1.849   5.708  0.6284  1.4305 -0.0001
   23RES    H29 6233   1.620   1.991   5.822 -0.9861  0.7174 -0.3752
   23RES    O30 6234   1.976   1.841   6.068  0.3730  0.2271  0.2829
   23RES    C31 6235   2.102   1.784   6.093 -0.4273 -0.4059 -0.0538
   23RES    C32 6236   2.144   1.670   6.000 -0.1174 -0.3825 -0.2134
   23RES    C33 6237   2.251   1.589   6.074 -0.5489  0.1011  0.1304
   23RES    O34 6238   2.364   1.672   6.104 -0.2077  0.5517 -0.1518
   23RES    C35 6239   2.480   1.602   6.168  0.5105 -0.4034  0.2242
   23RES    H36 6240   2.168   1.870   6.076 -1.0823  0.0419 -0.3429
   23RES    H37 6241   2.115   1.751   6.196 -1.1593 -1.8629 -0.4265
   23RES    H38 6242   2.055   1.608   5.989 -1.1486  1.4717 -2.7571
   23RES    H39 6243   2.275   1.508   6.005 -1.4649 -0.1181  0.0726
   23RES    H40 6244   2.218   1.538   6.165  0.2148 -0.5021  0.0760
   23RES    H41 6245   2.555   1.674   6.199  0.0925 -0.5241  1.5321
   23RES    H42 6246   2.530   1.533   6.100 -0.0887 -0.8580  0.2388
   23RES    H43 6247   2.437   1.549   6.253 -0.2866  0.0307  0.0993
   23RES    O44 6248   2.206   1.711   5.875 -0.1603  0.3367 -0.0980
   23RES    C45 6249   2.128   1.792   5.793 -0.0820  0.0834  0.0389
   23RES    C46 6250   2.191   1.813   5.653  0.0142 -0.2859 -0.5024
   23RES    C47 6251   2.336   1.867   5.653  0.2547 -0.3143 -0.3606
   23RES    O48 6252   2.361   1.928   5.524 -0.0573 -0.3561 -0.5106
   23RES    C49 6253   2.490   1.989   5.533  0.4166  0.3665  0.1589
   23RES    H50 6254   2.111   1.884   5.849 -0.9938 -1.1527  1.8311
   23RES    H51 6255   2.028   1.750   5.787 -0.4998  0.9743  0.7878
   23RES    H52 6256   2.133   1.892   5.606 -1.1855  0.4429  2.1172
   23RES    H53 6257   2.330   1.953   5.720  1.8245 -0.5762  0.1246
   23RES    H54 6258   2.404   1.793   5.694  0.6681  0.4510  0.3637
   23RES    H55 6259   2.570   1.917   5.546  1.5949  1.8004  0.9439
   23RES    H56 6260   2.492   2.064   5.612  0.7897  4.5910 -3.6042
   23RES    H57 6261   2.504   2.052   5.445 -0.1053  0.8588  0.4211
   23RES    O58 6262   2.189   1.698   5.564  0.1388 -0.0004 -0.1539
   23RES    C59 6263   2.065   1.667   5.494 -0.3635 -0.5303 -0.3466
   23RES    C60 6264   2.048   1.514   5.466  0.2354 -0.4658 -0.3854
   23RES    C61 6265   2.012   1.442   5.598  0.2126  0.6407 -0.0193
   23RES    O62 6266   1.995   1.304   5.574 -0.1327 -0.0294 -0.5336
   23RES    C63 6267   1.950   1.227   5.683  0.3442  0.2353 -0.6461
   23RES    H64 6268   2.064   1.735   5.409 -1.1994 -0.0472  0.0414
   23RES    H65 6269   1.979   1.700   5.553 -0.6522 -1.8256 -0.0197
   23RES    H66 6270   1.964   1.494   5.399 -0.5447  0.5765  0.2685
   23RES    H67 6271   2.089   1.458   5.673 -0.0906  0.3298  0.3639
   23RES    H68 6272   1.914   1.466   5.639  0.3266  0.5660  0.3017
   23RES    H69 6273   1.857   1.269   5.720 -1.0982 -1.5931 -2.0881
   23RES    H70 6274   2.020   1.216   5.766  0.2454 -0.5732 -0.6687
   23RES    H71 6275   1.936   1.124   5.651 -0.0962  0.7544 -2.1627
   23RES    O72 6276   2.169   1.461   5.410  0.5245 -0.2433  0.5045
   23RES    C73 6277   2.173   1.467   5.265  1.0125  0.2821  0.8206
   23RES    C74 6278   2.316   1.482   5.214  0.0236  0.1151  0.4112
   23RES    C75 6279   2.332   1.480   5.061  0.3370 -0.2710 -0.0970
   23RES    O76 6280   2.308   1.346   5.030  0.2489 -0.4414 -0.4066
   23RES    C77 6281   2.361   1.310   4.902  0.4546  0.5990 -0.7500
   23RES    H78 6282   2.133   1.375   5.223 -0.4700  0.8601  0.9240
   23RES    H79 6283   2.110   1.540   5.214  0.4887 -1.2331 -0.7597
   23RES    H80 6284   2.349   1.579   5.251  3.8627 -1.8377  2.4624
   23RES    H81 6285   2.433   1.502   5.027  0.2449  0.1909 -0.0717
   23RES    H82 6286   2.250   1.541   5.024  1.3758  0.6834 -0.8496
   23RES    H83 6287   2.294   1.349   4.826  1.2041  0.1018 -1.6811
   23RES    H84 6288   2.349   1.202   4.897 -0.9836  0.6237  1.4086
   23RES    H85 6289   2.467   1.329   4.888  0.2576  2.2012 -0.1575
   23RES    O86 6290   2.397   1.382   5.277  0.5056  0.3187  0.2503
   23RES    C87 6291   2.535   1.401   5.250 -0.4760  0.6049 -0.0484
   23RES    C88 6292   2.620   1.371   5.378 -0.2295  0.6544  0.1935
   23RES    C89 6293   2.763   1.350   5.344  0.6299  0.2714  0.1200
   23RES    O90 6294   2.831   1.281   5.446 -0.0578 -0.2178  0.1978
   23RES    C91 6295   2.972   1.287   5.432  0.1990 -0.2372 -0.3570
   23RES    H92 6296   2.573   1.330   5.176  1.3411  2.1059 -0.6026
   23RES    H93 6297   2.554   1.502   5.215 -1.1738  1.1431  1.0815
   23RES    H94 6298   2.585   1.272   5.408  0.5720  0.0345 -0.8689
   23RES    H95 6299   2.770   1.280   5.260 -0.1862  0.8009 -0.3912
   23RES    H96 6300   2.808   1.447   5.324  1.3435 -0.4308 -1.8214
   23RES    H97 6301   3.016   1.235   5.518  2.7741  0.8420 -0.9931
   23RES    H98 6302   3.005   1.234   5.343  0.8385  0.4243 -0.5185
   23RES    H99 6303   3.016   1.387   5.433  1.7714 -0.8990 -1.2793
   23RES   O100 6304   2.607   1.472   5.474  0.5511  0.9844 -0.1109
   23RES   C101 6305   2.493   1.492   5.553  0.1361  0.0870 -0.5584
   23RES   C102 6306   2.513   1.404   5.669  0.3741  0.5352 -0.5352
   23RES   C103 6307   2.379   1.359   5.743  0.2009  1.0302 -0.5197
   23RES   O104 6308   2.406   1.284   5.854  0.3756  0.0796 -0.5644
   23RES   C105 6309   2.293   1.209   5.899  0.6839 -0.6001  0.3300
   23RES   H106 6310   2.399   1.478   5.501  0.2903 -1.3738 -0.4462
   23RES   H107 6311   2.495   1.590   5.600  0.2606  0.2565 -0.9120
   23RES   H108 6312   2.551   1.306   5.639 -0.2033  0.4863 -1.1093
   23RES   H109 6313   2.308   1.308   5.678  1.1339 -2.6026  1.1698
   23RES   H110 6314   2.341   1.458   5.767 -0.1341  0.8507 -0.2951
   23RES   H111 6315   2.270   1.129   5.828 -1.7243  0.3392  0.0065
   23RES   H112 6316   2.201   1.266   5.911  1.0404  0.7091 -2.5200
   23RES   H113 6317   2.321   1.159   5.991  2.5260  0.7791  0.5549
   23RES   O114 6318   2.594   1.475   5.760 -0.0494  0.0046 -0.1220
   23RES   C115 6319   2.737   1.471   5.732  0.6494  0.2360 -0.0850
   23RES   C116 6320   2.818   1.529   5.856 -0.3227  0.2344 -0.1900
   23RES   C117 6321   2.973   1.491   5.834  0.6420  0.0271  0.8318
   23RES   O118 6322   3.064   1.564   5.919 -0.0137  0.4673  0.1135
   23RES   C119 6323   3.199   1.570   5.877  0.4372  0.5083 -0.0851
   23RES   H120 6324   2.772   1.369   5.718  1.2497  0.3299  0.6892
   23RES   H121 6325   2.756   1.542   5.652  2.1402 -1.4374 -1.2567
   23RES   H122 6326   2.784   1.490   5.952 -1.2216  1.1205 -0.1392
   23RES   H123 6327   2.987   1.384   5.849 -0.0932 -0.3250 -0.8699
   23RES   H124 6328   2.997   1.510   5.730  0.2383 -1.1580  0.5068
   23RES   H125 6329   3.240   1.653   5.934 -0.7086  2.2019 -1.6793
   23RES   H126 6330   3.197   1.608   5.775 -1.0485 -0.8087 -0.5615
   23RES   H127 6331   3.250   1.474   5.884  0.6363  0.6675  0.7687
   23RES   O128 6332   2.816   1.670   5.840 -0.5026  0.0710  0.1207
   23RES   C129 6333   2.688   1.728   5.875 -0.4664  0.2400  0.1667
   23RES   C130 6334   2.709   1.877   5.913 -0.0899 -0.2605  0.2303
   23RES   C131 6335   2.568   1.932   5.959 -0.0889 -0.2468  0.6289
   23RES   O132 6336   2.550   2.072   5.980  0.2348  0.3785  0.6090
   23RES   C133 6337   2.422   2.112   5.998 -0.5329  0.0945 -0.6111
   23RES   H134 6338   2.618   1.730   5.791  0.0653  2.5764 -0.2602
   23RES   H135 6339   2.646   1.681   5.964  1.4770  0.9401  1.4851
   23RES   H136 6340   2.786   1.879   5.989  1.2263  1.6490 -1.1125
   23RES   H137 6341   2.542   1.884   6.053  0.2278  0.0805  0.8836
   23RES   H138 6342   2.501   1.898   5.880 -0.1863  1.2724  0.0295
   23RES   H139 6343   2.378   2.030   6.055 -0.1069  0.2709 -0.0296
   23RES   H140 6344   2.424   2.200   6.062  0.8344 -1.0680  0.9615
   23RES   H141 6345   2.359   2.121   5.909 -0.5609 -1.8583 -0.8029
   23RES   O142 6346   2.736   1.959   5.806  0.4952  0.5061 -0.0275
   23RES   C143 6347   2.875   1.976   5.774 -0.0480  0.1907  0.4028
   23RES   C144 6348   2.896   2.091   5.676  0.1119 -0.7131  0.7207
   23RES   C145 6349   3.043   2.105   5.629 -0.2708  1.2781  0.0236
   23RES   O146 6350   3.047   2.218   5.536  0.3538  0.5743  0.0743
   23RES   C147 6351   3.180   2.273   5.523 -0.2568  0.0665 -0.5577
   23RES   H148 6352   2.935   2.004   5.861  1.8133  1.2388 -1.1559
   23RES   H149 6353   2.917   1.885   5.731  1.1367 -0.3011  2.5726
   23RES   H150 6354   2.832   2.063   5.592  1.1461 -1.4953  0.1842
   23RES   H151 6355   3.074   2.011   5.584 -0.3717  1.0268  0.4747
   23RES   H152 6356   3.108   2.111   5.715 -0.1353 -4.0930  0.4303
   23RES   H153 6357   3.218   2.310   5.618  0.0910 -0.7425 -0.3784
   23RES   H154 6358   3.174   2.358   5.454  2.6421 -0.0019 -0.9572
   23RES   H155 6359   3.252   2.204   5.480  1.3206  0.0479  2.0119
   23RES   O156 6360   2.864   2.209   5.751 -0.3300  0.1905  0.2727
   23RES   C157 6361   2.730   2.244   5.740  0.3641  0.2281 -0.2962
   23RES   C158 6362   2.690   2.386   5.776 -0.1032  0.1728 -0.0384
   23RES   C159 6363   2.556   2.389   5.843  0.2489 -0.2776  0.0534
   23RES   O160 6364   2.536   2.523   5.896  0.0779  0.7922 -0.4062
   23RES   C161 6365   2.562   2.544   6.033  0.0899 -0.0980 -0.0783
   23RES   H162 6366   2.684   2.212   5.647 -0.7163  0.1069  0.2715
   23RES   H163 6367   2.689   2.174   5.813 -0.2178 -0.3591 -1.1748
   23RES   H164 6368   2.771   2.432   5.833  0.0622  1.9198 -1.6385
   23RES   H165 6369   2.479   2.364   5.771  0.1005 -0.5497  0.3069
   23RES   H166 6370   2.547   2.315   5.922  1.4623 -1.0501 -0.5133
   23RES   H167 6371   2.531   2.462   6.099  1.9335 -2.5016 -2.1023
   23RES   H168 6372   2.528   2.643   6.062 -0.0529  0.1956 -1.2211
   23RES   H169 6373   2.670   2.543   6.042  0.0277 -3.2981  0.9449
   23RES   O170 6374   2.687   2.470   5.660 -0.0475 -0.9806  0.3865
   23RES   C171 6375   2.808   2.521   5.611 -0.0681  0.9663  0.2673
   23RES   C172 6376   2.804   2.646   5.527  0.0965  0.3912 -0.1045
   23RES   C173 6377   2.916   2.665   5.411 -0.5824 -0.7658  0.5647
   23RES   O174 6378   3.054   2.648   5.454  0.2039  0.3546  0.0749
   23RES   C175 6379   3.147   2.714   5.368 -0.1655  0.2651 -0.4658
   23RES   H176 6380   2.865   2.440   5.563 -0.7063 -0.4627  1.8748
   23RES   H177 6381   2.886   2.535   5.686  0.1881  0.8747  0.0247
   23RES   H178 6382   2.708   2.643   5.475 -0.5809 -1.5217  1.1986
   23RES   H179 6383   2.888   2.589   5.337 -1.6266  0.1224  0.0305
   23RES   H180 6384   2.898   2.758   5.358  1.0317  0.8866  2.8606
   23RES   H181 6385   3.112   2.810   5.328 -1.9274 -1.2690 -2.7421
   23RES   H182 6386   3.143   2.653   5.278  0.3572 -0.8215  0.2417
   23RES   H183 6387   3.249   2.712   5.407 -0.0997 -0.3529 -0.6708
   23RES   O184 6388   2.801   2.767   5.602 -0.1377 -0.1310 -0.3100
   23RES   C185 6389   2.686   2.798   5.685 -0.2103  0.2030  0.0035
   23RES   C186 6390   2.665   2.955   5.689 -0.1044  0.0004  0.3023
   23RES   C187 6391   2.627   3.014   5.558 -0.3613 -0.3101 -0.5856
   23RES   O188 6392   2.603   3.151   5.588  0.3319  0.5152  1.0187
   23RES   C189 6393   2.603   3.242   5.476  0.4101  0.7275  0.4208
   23RES   H190 6394   2.712   2.760   5.784 -2.2810 -0.3868  0.3432
   23RES   H191 6395   2.598   2.739   5.658  1.4896 -0.2569 -4.9735
   23RES   H192 6396   2.583   2.972   5.759 -0.6953 -3.8864  0.7024
   23RES   H193 6397   2.538   2.961   5.523  0.5632 -0.6740 -2.4575
   23RES   H194 6398   2.711   3.010   5.488  2.7962 -0.5659  3.0768
   23RES   H195 6399   2.610   3.339   5.524  0.2840 -0.2847  2.5272
   23RES   H196 6400   2.694   3.234   5.417 -0.9921  0.6254 -1.8022
   23RES   H197 6401   2.530   3.230   5.396  0.7432  0.6835  0.1233
   23RES   O198 6402   2.779   3.024   5.737  0.1612  0.3290 -0.8624
   23RES   C199 6403   2.850   2.985   5.856  0.5761 -0.1224 -0.3773
   23RES   C200 6404   2.942   3.098   5.891 -0.0471 -0.0900  0.1425
   23RES   C201 6405   3.058   3.045   5.983  0.8540  1.1439  0.0071
   23RES   O202 6406   3.157   3.146   6.004 -0.1099 -0.0283 -0.4602
   23RES   C203 6407   3.247   3.126   6.105  0.3555 -1.1542  0.0830
   23RES   H204 6408   2.894   2.886   5.844 -0.0653 -0.5275  0.5215
   23RES   H205 6409   2.781   2.960   5.937  0.6170 -0.9976 -0.6022
   23RES   H206 6410   2.992   3.134   5.800  0.0979 -2.3657 -0.7231
   23RES   H207 6411   3.018   3.012   6.080 -0.8515  1.0569 -0.7073
   23RES   H208 6412   3.100   2.956   5.937 -0.3697  0.4606  0.2021
   23RES   H209 6413   3.311   3.213   6.125 -3.0763  1.5863 -0.3262
   23RES   H210 6414   3.312   3.044   6.074 -0.5912 -1.2513 -1.6996
   23RES   H211 6415   3.201   3.114   6.203  0.9174  1.3016  0.6865
   23RES   O212 6416   2.868   3.205   5.953 -0.9688  0.6710  0.3845
   23RES   C213 6417   2.847   3.315   5.864 -0.5331  0.4960 -0.4313
   23RES   C214 6418   2.741   3.401   5.924 -0.4443 -0.0104  0.2362
   23RES   C215 6419   2.724   3.526   5.824  0.2827 -0.1003  0.4778
   23RES   O216 6420   2.606   3.607   5.860 -0.7638 -0.3876 -0.0575
   23RES   C217 6421   2.656   3.721   5.940 -0.2853 -0.1537  0.7055
   23RES   H218 6422   2.804   3.279   5.770  1.1489 -1.8681 -0.3284
   23RES   H219 6423   2.942   3.367   5.850  0.5379 -1.2835  0.1621
   23RES   H220 6424   2.645   3.353   5.939 -0.4061  0.3392  1.7227
   23RES   H221 6425   2.819   3.580   5.821  0.5840 -0.6447  0.0810
   23RES   H222 6426   2.710   3.493   5.722 -0.0821 -0.1093  0.5295
   23RES   H223 6427   2.757   3.754   5.918 -0.8114  0.2421 -1.2834
   23RES   H224 6428   2.664   3.694   6.045  2.4292  0.7303  0.7666
   23RES   H225 6429   2.593   3.811   5.938 -0.2921 -0.1610  0.5757
   23RES   O226 6430   2.783   3.447   6.052  0.6321 -0.1530  0.1296
   23RES   C227 6431   2.737   3.375   6.163  0.1015 -0.7650  0.5750
   23RES   C228 6432   2.844   3.388   6.273 -0.1826 -0.1027 -0.1981
   23RES   C229 6433   2.975   3.318   6.232  0.0471 -0.1516  0.2259
   23RES   O230 6434   3.074   3.324   6.336 -0.1265  0.0215 -0.1023
   23RES   C231 6435   3.167   3.427   6.308 -0.0615  0.3736 -0.1790
   23RES   H232 6436   2.728   3.269   6.140 -1.6872 -0.9663  2.0518
   23RES   H233 6437   2.638   3.402   6.201 -0.4611  1.3859 -2.2944
   23RES   H234 6438   2.805   3.342   6.364 -0.5842  0.3442 -0.1424
   23RES   H235 6439   3.004   3.358   6.135 -0.7648 -4.0133 -1.7166
   23RES   H236 6440   2.959   3.211   6.223  0.8984 -0.2407 -0.2286
   23RES   H237 6441   3.233   3.405   6.225 -1.3426 -0.6634 -0.9385
   23RES   H238 6442   3.233   3.437   6.395  2.1750 -2.4056 -1.4917
   23RES   H239 6443   3.125   3.526   6.285 -0.5188 -0.2567 -2.1080
   23RES   O240 6444   2.870   3.525   6.311 -0.4563 -0.6448  0.3193
   23RES   C241 6445   2.761   3.582   6.387  0.2522  0.0999  0.1153
   23RES   C242 6446   2.801   3.724   6.439  0.4685  0.6252 -0.1223
   23RES   C243 6447   2.694   3.790   6.532 -0.3174  0.2369  0.5149
   23RES   O244 6448   2.716   3.928   6.538  0.0054  0.6404  0.2994
   23RES   C245 6449   2.622   3.999   6.612  0.4466  0.2099 -0.4431
   23RES   H246 6450   2.749   3.516   6.472 -0.5153 -0.0975 -0.1430
   23RES   H247 6451   2.669   3.584   6.329  0.2019 -2.5271  0.0538
   23RES   H248 6452   2.821   3.788   6.353  2.3073 -0.5654 -0.6272
   23RES   H249 6453   2.596   3.767   6.490  0.3125 -0.3907 -0.6529
   23RES   H250 6454   2.695   3.730   6.624 -1.4652  0.7762  0.8882
   23RES   H251 6455   2.605   3.957   6.711  0.7510 -2.3671 -1.4585
   23RES   H252 6456   2.526   4.009   6.562  0.4129 -0.6629 -0.5439
   23RES   H253 6457   2.661   4.100   6.627  0.9601  0.0488 -0.6910
   23RES   O254 6458   2.915   3.688   6.514 -0.4013  0.1126  0.0683
   23RES   C255 6459   3.013   3.787   6.502 -0.0424 -0.4550 -0.3717
   23RES   C256 6460   3.118   3.742   6.598  0.0452 -0.1261 -0.7171
   23RES   C257 6461   3.254   3.783   6.554  0.1081  0.5988 -0.2648
   23RES   O258 6462   3.269   3.925   6.549 -0.3508 -0.0584  0.1103
   23RES   C259 6463   3.405   3.957   6.561 -0.4565 -0.2671  0.3334
   23RES   H260 6464   3.054   3.797   6.401  0.6678  2.1308  0.1426
   23RES   H261 6465   2.989   3.888   6.535 -0.9350 -0.4671 -0.9761
   23RES   H262 6466   3.102   3.636   6.615  0.5264 -0.2803 -1.2409
   23RES   H263 6467   3.307   3.734   6.637 -3.1414 -1.9243  0.4579
   23RES   H264 6468   3.280   3.740   6.457 -0.5360 -1.9818  0.6482
   23RES   H265 6469   3.464   3.887   6.503  0.9995  2.1669 -1.2269
   23RES   H266 6470   3.435   3.943   6.665  0.5291  2.7730  0.5129
   23RES   H267 6471   3.427   4.062   6.540 -0.6272  0.3236  2.9096
   23RES   O268 6472   3.099   3.797   6.726 -0.8020 -0.1486 -0.0818
   23RES   C269 6473   2.978   3.779   6.797 -0.0087  0.1937 -0.0038
   23RES   C270 6474   2.986   3.846   6.936 -1.0479  0.4166 -0.5268
   23RES   C271 6475   2.853   3.857   7.009  1.0630  0.0150  0.4695
   23RES   O272 6476   2.847   3.976   7.081 -0.0224 -0.4250  0.1638
   23RES   C273 6477   2.741   3.971   7.179 -0.0429  0.4699 -0.1551
   23RES   H274 6478   2.961   3.672   6.810  1.5671  0.2437  2.7535
   23RES   H275 6479   2.896   3.824   6.741  1.5187 -0.3766 -2.8082
   23RES   H276 6480   3.058   3.792   6.998 -0.5630 -0.4392 -1.8009
   23RES   H277 6481   2.835   3.776   7.080  0.6790  0.5637  1.0042
   23RES   H278 6482   2.768   3.858   6.941  0.2569 -0.2301  1.4742
   23RES   H279 6483   2.763   3.886   7.243  0.9138 -0.5494 -1.8121
   23RES   H280 6484   2.640   3.979   7.139  0.1163 -1.0156 -0.8904
   23RES   H281 6485   2.758   4.059   7.241  2.2462 -0.9154  1.2390
   23RES   H282 6486   3.030   3.943   6.915  0.5300 -0.2891 -0.5891
   24RES     O1 6487   7.681   0.285   1.740  0.1848 -0.7870 -0.3950
   24RES     C2 6488   7.555   0.222   1.762 -0.5588  1.0122 -0.5599
   24RES     C3 6489   7.556   0.166   1.904 -0.1277  0.6292 -0.0392
   24RES     C4 6490   7.414   0.127   1.960  0.5691  0.2209  0.1934
   24RES     O5 6491   7.411   0.125   2.102  0.6415  0.2024  0.1686
   24RES     C6 6492   7.291   0.065   2.142  0.2880  0.0013  1.2382
   24RES     H7 6493   7.479   0.299   1.752 -1.4206  0.3706  0.9768
   24RES     H8 6494   7.543   0.145   1.685  0.7388 -0.3457  0.5702
   24RES     H9 6495   7.600   0.240   1.971  0.5995  0.7506 -0.6459
   24RES    H10 6496   7.377   0.034   1.917 -0.2262 -0.4062  2.1810
   24RES    H11 6497   7.346   0.202   1.920 -0.9577 -0.8030  0.8612
   24RES    H12 6498   7.258   0.093   2.242 -4.3938 -1.9472  0.3651
   24RES    H13 6499   7.203   0.086   2.081  1.7078 -0.8909 -1.1665
   24RES    H14 6500   7.291   7.773   2.133  0.5297 -0.0003  1.2432
   24RES    H15 6501   7.744   0.216   1.731 -0.3726 -1.1639 -1.4972
   24RES    O16 6502   7.628   0.038   1.911  0.4670  0.0452 -0.4035
   24RES    C17 6503   7.685   0.014   2.042  0.4022 -0.5016 -0.3230
   24RES    C18 6504   7.739   7.695   2.048  0.0247  0.2902  0.2732
   24RES    C19 6505   7.638   7.592   2.014  0.2591 -0.0762  0.6245
   24RES    O20 6506   7.649   7.472   2.088 -0.4846  0.4072 -0.2651
   24RES    C21 6507   7.572   7.380   2.023  0.2892  0.0686  0.6074
   24RES    H22 6508   7.615   0.007   2.126 -0.1269  1.0562 -0.6201
   24RES    H23 6509   7.754   0.094   2.068  0.5426 -0.4724 -0.7827
   24RES    H24 6510   7.764   7.690   2.154  1.6012  0.8519 -0.0549
   24RES    H25 6511   7.542   7.633   2.044 -0.3936 -2.1067  1.3947
   24RES    H26 6512   7.642   7.579   1.906  0.4149  0.3660  0.5779
   24RES    H27 6513   7.607   7.283   2.056 -0.1836 -1.1672 -2.2979
   24RES    H28 6514   7.579   7.380   1.914 -3.3305  0.0697  0.3071
   24RES    H29 6515   7.465   7.393   2.042  0.2363  0.8317 -0.1469
   24RES    O30 6516   0.035   7.690   1.962  0.0020  0.8677  0.3140
   24RES    C31 6517   0.129   7.587   1.980 -0.2287  0.2026  0.2761
   24RES    C32 6518   0.250   7.611   1.883  0.1983  0.2468 -0.6046
   24RES    C33 6519   0.221   7.562   1.739 -0.3250 -0.1100  0.8389
   24RES    O34 6520   0.297   7.646   1.652  0.1662 -0.0633  0.6685
   24RES    C35 6521   0.301   7.595   1.519  0.1745 -0.0055 -0.6870
   24RES    H36 6522   0.166   7.595   2.082  1.7740 -0.8511 -0.3389
   24RES    H37 6523   0.067   7.498   1.972 -0.8145  0.7268 -1.1807
   24RES    H38 6524   0.285   7.713   1.894 -1.2595  0.6161  0.8587
   24RES    H39 6525   0.122   7.534   1.701  0.6506 -0.3785 -1.5489
   24RES    H40 6526   0.269   7.464   1.734 -0.8859 -0.3150 -0.9163
   24RES    H41 6527   0.336   7.671   1.449 -1.2585  1.7491  0.4739
   24RES    H42 6528   0.205   7.556   1.485  0.4144 -0.0251 -1.3583
   24RES    H43 6529   0.364   7.507   1.528 -1.3115 -0.8546  1.7699
   24RES    O44 6530   0.359   7.539   1.931  0.0186 -0.3226 -0.3588
   24RES    C45 6531   0.484   7.569   1.874  0.2711  0.5629  0.1031
   24RES    C46 6532   0.591   7.480   1.952  0.0360 -0.2198  0.0901
   24RES    C47 6533   0.732   7.507   1.891  0.1630 -0.3695  0.2183
   24RES    O48 6534   0.818   7.412   1.939  0.0607  0.1207  0.3499
   24RES    C49 6535   0.951   7.425   1.904 -0.1644 -0.1511 -0.0840
   24RES    H50 6536   0.514   7.673   1.887  1.4474  0.4495 -1.5037
   24RES    H51 6537   0.489   7.543   1.768 -1.6896  3.7958 -0.8279
   24RES    H52 6538   0.575   7.372   1.947 -1.5285  0.0740 -1.9117
   24RES    H53 6539   0.719   7.490   1.784 -1.4007  0.1784  0.2961
   24RES    H54 6540   0.769   7.607   1.914  0.6439 -0.5157  0.0712
   24RES    H55 6541   0.982   7.526   1.933  0.7828 -0.2234 -0.8333
   24RES    H56 6542   0.958   7.436   1.796 -2.7421  2.1342 -0.0762
   24RES    H57 6543   1.008   7.342   1.945  0.6568 -0.1923 -1.2849
   24RES    O58 6544   0.588   7.530   2.083  0.1655  0.0007 -0.2411
   24RES    C59 6545   0.574   7.416   2.167 -0.0749 -0.7949  0.2995
   24RES    C60 6546   0.589   7.468   2.313 -0.1803  0.2917  0.3035
   24RES    C61 6547   0.618   7.358   2.423 -0.5169  0.1989  0.5048
   24RES    O62 6548   0.742   7.299   2.396  0.0936  0.3879 -0.9625
   24RES    C63 6549   0.767   7.183   2.479  0.6582  0.0987  0.4558
   24RES    H64 6550   0.654   7.344   2.149  0.0495 -1.3792  3.0165
   24RES    H65 6551   0.477   7.370   2.145 -0.7108 -0.3193  2.0565
   24RES    H66 6552   0.674   7.535   2.308  0.1635 -0.1585  0.0271
   24RES    H67 6553   0.626   7.402   2.522  2.7125 -0.9323  0.8146
   24RES    H68 6554   0.537   7.285   2.423 -0.5949  0.2777 -0.4203
   24RES    H69 6555   0.691   7.105   2.478 -1.2005  1.8495  1.5876
   24RES    H70 6556   0.781   7.214   2.582  2.8786  1.0801 -0.1169
   24RES    H71 6557   0.872   7.157   2.463  0.9401 -1.1000  3.7731
   24RES    O72 6558   0.469   7.533   2.351 -0.3614 -0.0578 -0.7186
   24RES    C73 6559   0.438   7.656   2.291 -0.4991 -0.3810 -0.2539
   24RES    C74 6560   0.305   7.710   2.336  0.3676  0.8449  0.3490
   24RES    C75 6561   0.270   0.034   2.275  0.3808  0.2588 -0.4145
   24RES    O76 6562   0.130   0.066   2.295 -0.6600  0.2789  0.5342
   24RES    C77 6563   0.109   0.201   2.269 -0.0854 -0.6376  0.4644
   24RES    H78 6564   0.525   7.718   2.310  0.2162 -0.9261 -1.6533
   24RES    H79 6565   0.425   7.642   2.184  0.1571  1.9080 -0.6417
   24RES    H80 6566   0.233   7.638   2.296  1.7805  0.0533 -0.8408
   24RES    H81 6567   0.290   0.038   2.168  2.7774  1.0730  0.0290
   24RES    H82 6568   0.337   0.105   2.324  0.7308 -1.0389  1.0269
   24RES    H83 6569   0.139   0.244   2.174 -0.8227  0.5219  0.7436
   24RES    H84 6570   0.144   0.271   2.345  0.7197 -0.5289 -0.0093
   24RES    H85 6571   0.000   0.212   2.275 -0.1478 -1.6114  1.4253
   24RES    O86 6572   0.315   7.734   2.475  0.8462 -0.4566 -0.1050
   24RES    C87 6573   0.275   7.624   2.553  0.3754 -0.0902  0.0884
   24RES    C88 6574   0.316   7.648   2.696 -0.1519 -0.5188 -0.5048
   24RES    C89 6575   0.232   7.566   2.797  0.2650  0.1243  0.3121
   24RES    O90 6576   0.271   7.605   2.927 -0.1398  0.0278 -0.2588
   24RES    C91 6577   0.211   7.529   3.032 -0.0980  0.2295  0.1807
   24RES    H92 6578   0.169   7.622   2.528  0.5434 -0.1513 -0.6261
   24RES    H93 6579   0.313   7.523   2.536  1.3189 -0.0738  1.9796
   24RES    H94 6580   0.316   7.751   2.733 -1.2468 -0.1403 -1.5243
   24RES    H95 6581   0.125   7.581   2.782 -0.2950  0.6094  4.2980
   24RES    H96 6582   0.250   7.462   2.769 -2.5975 -0.9274  2.1569
   24RES    H97 6583   0.224   7.577   3.129  3.2979  0.6878 -0.4448
   24RES    H98 6584   0.103   7.527   3.018  0.2156 -4.0998 -2.6561
   24RES    H99 6585   0.254   7.429   3.039  1.9935  1.2523  2.6100
   24RES   O100 6586   0.452   7.607   2.717 -0.2093  0.4110  0.6490
   24RES   C101 6587   0.559   7.696   2.685  0.5347 -0.0897  0.2610
   24RES   C102 6588   0.658   7.754   2.799 -0.5108 -0.3424  0.8846
   24RES   C103 6589   0.599   0.058   2.875  0.0462 -0.2551 -0.3875
   24RES   O104 6590   0.695   0.115   2.967 -0.3586 -0.1245  1.0744
   24RES   C105 6591   0.653   0.225   3.043  0.5253  0.3345 -0.0570
   24RES   H106 6592   0.513   7.781   2.635  0.3455 -1.3136 -1.6964
   24RES   H107 6593   0.611   7.640   2.607  0.4675  1.7598 -1.1549
   24RES   H108 6594   0.688   7.672   2.865  0.2131  0.0610  1.0559
   24RES   H109 6595   0.515   0.023   2.936  1.5486 -1.4671  1.0435
   24RES   H110 6596   0.565   0.139   2.811  0.0220 -1.1072 -1.4617
   24RES   H111 6597   0.700   0.212   3.140 -2.0612  0.2353  1.2234
   24RES   H112 6598   0.546   0.230   3.061  0.9494 -1.1941  3.1188
   24RES   H113 6599   0.689   0.319   3.002  0.6756  0.8123  1.1737
   24RES   O114 6600   0.780   7.789   2.740  0.0621 -0.1816  0.0272
   24RES   C115 6601   0.899   7.804   2.814 -0.6026  0.5871 -0.4249
   24RES   C116 6602   1.011   7.764   2.721  0.6517  1.3219 -0.4513
   24RES   C117 6603   1.139   0.005   2.758  0.3585 -0.6417 -0.4022
   24RES   O118 6604   1.230   7.815   2.644 -0.1835  0.5247 -0.1297
   24RES   C119 6605   1.356   0.047   2.683 -0.3348 -0.0398  0.0113
   24RES   H120 6606   0.908   0.095   2.830 -1.1525  0.6695 -0.6472
   24RES   H121 6607   0.909   7.742   2.904  1.1793 -1.1630 -1.7996
   24RES   H122 6608   0.984   7.803   2.623 -0.6264 -1.8490 -1.4278
   24RES   H123 6609   1.131   0.103   2.806  2.9610 -1.4302  1.7713
   24RES   H124 6610   1.181   7.766   2.842 -1.0590  1.8541  2.0866
   24RES   H125 6611   1.436   0.031   2.611  0.7133  1.0650  0.8990
   24RES   H126 6612   1.385   7.811   2.774 -0.9820  1.3292  1.0475
   24RES   H127 6613   1.350   0.154   2.704  0.2675 -0.3634  1.8817
   24RES   O128 6614   1.033   7.623   2.722 -0.5605  0.7610 -0.1365
   24RES   C129 6615   1.050   7.574   2.591  0.1905  0.2726 -0.0039
   24RES   C130 6616   1.141   7.446   2.577  0.0093 -0.1338  0.1486
   24RES   C131 6617   1.203   7.438   2.442  0.1011 -0.2012  0.0203
   24RES   O132 6618   1.107   7.421   2.340 -0.3535  0.3982  0.2046
   24RES   C133 6619   1.163   7.373   2.219  0.0799 -0.0650 -0.6320
   24RES   H134 6620   0.954   7.556   2.542  1.1515 -3.2806 -0.6947
   24RES   H135 6621   1.100   7.652   2.535  0.0402 -0.2992 -0.9428
   24RES   H136 6622   1.211   7.476   2.654 -0.4470  1.3208  0.0158
   24RES   H137 6623   1.271   7.353   2.448 -1.4686 -1.3828  1.5227
   24RES   H138 6624   1.256   7.532   2.429 -2.3284  1.2634  0.2710
   24RES   H139 6625   1.086   7.323   2.160 -1.3569  0.7950  0.4845
   24RES   H140 6626   1.215   7.448   2.159  1.1836 -1.3453 -1.3238
   24RES   H141 6627   1.245   7.304   2.237 -0.4090 -1.0500 -2.1089
   24RES   O142 6628   1.070   7.328   2.617  0.7586 -0.3069  0.7364
   24RES   C143 6629   1.136   7.201   2.622  0.2914 -0.1208 -0.0973
   24RES   C144 6630   1.254   7.195   2.719  0.8023 -1.0095 -0.2705
   24RES   C145 6631   1.368   7.110   2.668  0.7769 -0.5134 -0.0027
   24RES   O146 6632   1.328   6.994   2.597  0.0949 -0.5780 -0.2696
   24RES   C147 6633   1.327   6.874   2.671  0.0295  0.6986  0.4992
   24RES   H148 6634   1.066   7.118   2.633  0.6424 -0.3595  0.3386
   24RES   H149 6635   1.172   7.183   2.521 -0.1848  2.2692 -0.7191
   24RES   H150 6636   1.285   7.294   2.752  0.1832 -0.4237 -1.4080
   24RES   H151 6637   1.456   7.088   2.728  0.8712  0.6677  0.3066
   24RES   H152 6638   1.416   7.163   2.586  1.6937 -0.5289  0.5157
   24RES   H153 6639   1.226   6.849   2.705 -0.0987  1.6832  0.8530
   24RES   H154 6640   1.382   6.882   2.765  2.3661 -0.9470 -0.6691
   24RES   H155 6641   1.378   6.791   2.624 -0.4174  0.5936  0.1955
   24RES   O156 6642   1.215   7.132   2.837  0.2280 -0.5789 -0.3776
   24RES   C157 6643   1.293   7.157   2.952 -0.1654  0.1926  0.2221
   24RES   C158 6644   1.255   7.061   3.057 -0.2803 -0.1073 -0.1297
   24RES   C159 6645   1.330   7.094   3.182  0.2563 -0.3198 -0.0051
   24RES   O160 6646   1.275   7.028   3.297  0.3533  0.5656 -0.4243
   24RES   C161 6647   1.356   7.030   3.411 -0.2149  0.1943  0.5134
   24RES   H162 6648   1.401   7.147   2.936  0.1086  0.7591  1.6310
   24RES   H163 6649   1.269   7.259   2.980 -1.0430  0.4004 -1.2520
   24RES   H164 6650   1.146   7.058   3.067 -0.3897  0.2163 -1.1742
   24RES   H165 6651   1.438   7.085   3.166  0.0529 -0.7518 -1.2064
   24RES   H166 6652   1.305   7.200   3.193  0.3540 -0.0905 -1.8136
   24RES   H167 6653   1.323   6.950   3.477 -1.1984  0.5029  0.4143
   24RES   H168 6654   1.354   7.131   3.451  2.3115  1.8466 -3.2111
   24RES   H169 6655   1.459   7.006   3.385 -1.4300 -1.4542 -3.1595
   24RES   O170 6656   1.301   6.937   3.002  0.2422  0.9742 -0.0620
   24RES   C171 6657   1.239   6.828   3.066  0.1147 -0.4338 -0.6752
   24RES   C172 6658   1.295   6.692   3.014 -0.8672  0.2042 -0.2375
   24RES   C173 6659   1.200   6.570   3.032  0.0721  0.3187 -0.3685
   24RES   O174 6660   1.238   6.450   2.966 -0.3278  0.4405 -0.1160
   24RES   C175 6661   1.138   6.356   2.957 -0.8956  0.5467  0.0169
   24RES   H176 6662   1.134   6.832   3.037 -0.4986  0.3853  1.5361
   24RES   H177 6663   1.235   6.842   3.174 -1.1624  2.5702 -1.0494
   24RES   H178 6664   1.297   6.710   2.907 -2.2533  1.2682 -0.1072
   24RES   H179 6665   1.192   6.540   3.137 -4.1467  1.0469 -0.3799
   24RES   H180 6666   1.101   6.597   2.994  1.1151  0.5000 -3.0989
   24RES   H181 6667   1.054   6.395   2.901 -0.5059 -0.4772 -1.3070
   24RES   H182 6668   1.124   6.311   3.056  0.6711 -1.3980 -0.6085
   24RES   H183 6669   1.183   6.278   2.896 -1.3801 -0.2945  0.7220
   24RES   O184 6670   1.427   6.685   3.075 -0.6404  0.3810  0.8116
   24RES   C185 6671   1.521   6.612   2.995  1.0413  0.4136  0.5249
   24RES   C186 6672   1.656   6.608   3.076 -0.7090  0.5640  0.0249
   24RES   C187 6673   1.689   6.743   3.135 -0.3618 -0.3446 -0.1408
   24RES   O188 6674   1.810   6.733   3.213 -0.3760  0.2598  0.0038
   24RES   C189 6675   1.837   6.850   3.276  0.5137  0.1800  0.2792
   24RES   H190 6676   1.535   6.667   2.903 -0.4607 -0.1116 -0.0320
   24RES   H191 6677   1.490   6.510   2.971 -4.2625  1.7226  1.2059
   24RES   H192 6678   1.645   6.537   3.158 -3.0720  2.3916  1.3672
   24RES   H193 6679   1.618   6.784   3.206 -0.2435 -1.9972  0.9667
   24RES   H194 6680   1.705   6.815   3.054  0.5472 -2.6736 -2.0928
   24RES   H195 6681   1.939   6.840   3.311 -0.1787 -3.7270  1.3658
   24RES   H196 6682   1.830   6.941   3.215  1.0576 -1.2284 -1.9167
   24RES   H197 6683   1.770   6.866   3.360 -3.8356 -0.2667 -2.8928
   24RES   O198 6684   1.773   6.578   2.995 -0.2736  0.4157  0.5009
   24RES   C199 6685   1.763   6.454   2.929 -0.4198  0.2011  0.2872
   24RES   C200 6686   1.910   6.416   2.913 -0.0066 -0.5341 -0.4626
   24RES   C201 6687   1.922   6.317   2.800 -0.4047  0.8262 -0.6636
   24RES   O202 6688   2.058   6.301   2.762  0.4021 -0.3420  0.2292
   24RES   C203 6689   2.080   6.228   2.641 -0.4188 -0.1390  0.5944
   24RES   H204 6690   1.702   6.477   2.842 -1.3027 -0.6234  0.6902
   24RES   H205 6691   1.716   6.375   2.987  1.0354  0.3141  1.6554
   24RES   H206 6692   1.968   6.506   2.891  0.0766 -0.0448  1.6354
   24RES   H207 6693   1.884   6.216   2.812  0.6644  0.2516 -1.9537
   24RES   H208 6694   1.867   6.369   2.722 -0.9290  0.4064 -0.5747
   24RES   H209 6695   2.186   6.205   2.652 -0.4651 -0.8145 -0.3349
   24RES   H210 6696   2.052   6.287   2.554  1.5770  0.7282  0.5113
   24RES   H211 6697   2.019   6.137   2.644  0.2955 -0.6133  0.8697
   24RES   O212 6698   1.951   6.358   3.035 -0.1479 -0.5109  0.3768
   24RES   C213 6699   1.981   6.443   3.151 -0.2794  0.4136  0.2872
   24RES   C214 6700   2.136   6.413   3.171  0.2242  0.6779 -0.1889
   24RES   C215 6701   2.169   6.444   3.318  0.1551 -0.2648 -0.7388
   24RES   O216 6702   2.307   6.421   3.349 -0.5662 -0.9557 -0.4724
   24RES   C217 6703   2.339   6.291   3.398 -0.5031  0.5819 -0.8274
   24RES   H218 6704   1.920   6.406   3.233 -0.8268 -0.9213 -0.7161
   24RES   H219 6705   1.963   6.548   3.127 -1.7527  0.7503  2.6319
   24RES   H220 6706   2.168   6.311   3.152 -0.1466  0.3583  0.9196
   24RES   H221 6707   2.141   6.549   3.330 -0.9678 -0.5024 -1.1153
   24RES   H222 6708   2.096   6.393   3.381 -0.0966  0.3164 -0.5550
   24RES   H223 6709   2.268   6.239   3.463  1.7876 -0.6469  0.7583
   24RES   H224 6710   2.429   6.290   3.460 -0.2545 -0.5578 -1.1979
   24RES   H225 6711   2.359   6.227   3.313 -2.9352  0.3643 -1.2628
   24RES   O226 6712   2.208   6.509   3.092  0.8819 -0.1346 -0.0399
   24RES   C227 6713   2.262   6.462   2.969  0.0817 -0.8772 -0.2609
   24RES   C228 6714   2.288   6.587   2.888 -0.3321  0.3519  0.6713
   24RES   C229 6715   2.332   6.565   2.742 -0.3461 -1.3693  0.4172
   24RES   O230 6716   2.465   6.498   2.728 -0.5067  0.4961  0.3539
   24RES   C231 6717   2.505   6.467   2.587  0.1424  0.0864 -0.0172
   24RES   H232 6718   2.193   6.396   2.918  0.0237 -0.2497 -1.0087
   24RES   H233 6719   2.355   6.407   2.986  1.3143  0.9051 -1.0047
   24RES   H234 6720   2.367   6.649   2.931 -0.0765  0.6157 -0.1761
   24RES   H235 6721   2.347   6.666   2.703 -3.5438 -1.4951 -1.2567
   24RES   H236 6722   2.249   6.514   2.694  0.7721 -2.9359  0.1132
   24RES   H237 6723   2.435   6.405   2.532 -0.0912 -0.0475  0.4291
   24RES   H238 6724   2.595   6.407   2.602 -0.1107 -0.4600 -0.7185
   24RES   H239 6725   2.532   6.557   2.531  0.2115 -0.1768 -0.4066
   24RES   O240 6726   2.162   6.651   2.880  0.1208 -1.1955 -0.0175
   24RES   C241 6727   2.167   6.766   2.958  0.1102  0.1642  0.0093
   24RES   C242 6728   2.038   6.846   2.951 -0.3157 -0.3719  0.3136
   24RES   C243 6729   2.069   6.983   3.021 -0.4097  0.6571  0.8696
   24RES   O244 6730   1.951   7.053   3.062  0.2965  0.1143  0.0151
   24RES   C245 6731   1.995   7.173   3.122 -0.2778  0.0284 -0.3793
   24RES   H246 6732   2.258   6.816   2.925  1.0267 -1.1128  0.5529
   24RES   H247 6733   2.202   6.740   3.059  0.1188 -0.4275 -0.1439
   24RES   H248 6734   1.961   6.781   2.993 -0.9757 -0.8635 -1.6384
   24RES   H249 6735   2.123   6.972   3.115  1.0448  1.2284  0.1211
   24RES   H250 6736   2.129   7.043   2.953  0.2384 -0.8342  0.1010
   24RES   H251 6737   1.907   7.230   3.153  0.5308  1.8601 -1.3817
   24RES   H252 6738   2.047   7.232   3.047 -1.6833  0.2964 -1.1795
   24RES   H253 6739   2.054   7.157   3.212 -0.2879 -0.0123 -0.3802
   24RES   O254 6740   2.023   6.878   2.815  0.4729  0.5350 -0.2069
   24RES   C255 6741   1.888   6.902   2.772 -0.6029 -0.2823 -0.3716
   24RES   C256 6742   1.868   6.939   2.621 -0.7005  0.6260  0.4922
   24RES   C257 6743   1.720   6.922   2.570 -0.3038  0.1039  0.3013
   24RES   O258 6744   1.695   6.800   2.504 -0.4564  0.1335  0.1516
   24RES   C259 6745   1.677   6.690   2.589 -0.1027  0.0797 -0.0564
   24RES   H260 6746   1.829   6.812   2.790 -1.8506  0.9852  2.3139
   24RES   H261 6747   1.847   6.989   2.825  1.7566  2.7369 -3.3186
   24RES   H262 6748   1.914   6.872   2.549 -0.9100 -0.0118  0.9475
   24RES   H263 6749   1.654   6.947   2.653 -0.9247  1.1516 -0.4903
   24RES   H264 6750   1.691   6.996   2.495 -0.1491  1.0223  1.1259
   24RES   H265 6751   1.594   6.714   2.655 -0.0730  1.6536 -0.5887
   24RES   H266 6752   1.760   6.666   2.655 -0.6365  2.1307  1.3783
   24RES   H267 6753   1.632   6.604   2.538 -2.0572  1.3179 -0.4825
   24RES   O268 6754   1.894   7.069   2.587 -0.3318 -0.5344 -0.0697
   24RES   C269 6755   2.028   7.088   2.566  0.3628  0.1827 -0.1366
   24RES   C270 6756   2.072   7.234   2.535  0.4705  0.6385 -0.7696
   24RES   C271 6757   2.050   7.327   2.649 -0.7200 -0.5483  0.4898
   24RES   O272 6758   2.090   7.459   2.610  0.0339  0.1853  0.4314
   24RES   C273 6759   2.055   7.547   2.717 -0.3069  0.0394  0.2888
   24RES   H274 6760   2.057   7.027   2.480 -0.0412  0.1056 -0.2156
   24RES   H275 6761   2.080   7.058   2.657  1.3794 -0.6299 -0.9641
   24RES   H276 6762   2.175   7.233   2.498  1.2499 -0.4818  1.3081
   24RES   H277 6763   2.103   7.292   2.738 -0.5724  1.1702  1.1056
   24RES   H278 6764   1.943   7.334   2.665 -0.8659  3.1892 -1.5175
   24RES   H279 6765   2.102   7.523   2.812 -0.9101 -0.0050  0.5807
   24RES   H280 6766   1.949   7.573   2.718 -0.3241 -0.0103  2.3177
   24RES   H281 6767   2.095   7.643   2.683 -3.2772  0.7522 -1.3523
   24RES   H282 6768   2.018   7.257   2.443  0.0546 -1.0585 -0.9699
   25RES     O1 6769   0.900   4.477   1.084 -0.2146  0.6660 -0.1836
   25RES     C2 6770   0.913   4.489   0.943  0.1915  0.1864  0.0677
   25RES     C3 6771   0.785   4.451   0.878  0.0912 -0.8179  0.4548
   25RES     C4 6772   0.776   4.491   0.733 -0.5516  0.3558 -0.4233
   25RES     O5 6773   0.660   4.439   0.666  0.7579 -0.4904  0.1203
   25RES     C6 6774   0.655   4.478   0.529 -0.4499 -0.0307 -0.0925
   25RES     H7 6775   0.929   4.596   0.929  0.2320  0.2281  0.4193
   25RES     H8 6776   1.004   4.444   0.904 -0.3011 -2.1495  1.5231
   25RES     H9 6777   0.708   4.499   0.940 -1.1004 -0.8103 -1.0090
   25RES    H10 6778   0.870   4.464   0.685 -0.0003 -0.8452  1.2443
   25RES    H11 6779   0.769   4.599   0.738  0.2117  0.3469  1.3544
   25RES    H12 6780   0.649   4.584   0.505 -2.9905 -0.0480  0.3219
   25RES    H13 6781   0.731   4.430   0.468 -0.9641  0.8667 -1.4428
   25RES    H14 6782   0.565   4.452   0.474 -0.5389  0.5246 -0.2149
   25RES    H15 6783   0.891   4.385   1.101 -1.0748  0.8381  0.3307
   25RES    O16 6784   0.791   4.313   0.895  0.6517 -0.0830 -0.1704
   25RES    C17 6785   0.661   4.259   0.918  0.0079 -0.4177  0.2542
   25RES    C18 6786   0.649   4.107   0.910  0.0357  0.7904 -0.2268
   25RES    C19 6787   0.545   4.050   1.010  0.4873  0.4808 -0.3541
   25RES    O20 6788   0.414   4.106   0.978 -0.4218  0.1004 -0.0976
   25RES    C21 6789   0.319   4.062   1.073 -0.6202 -0.1047  0.4211
   25RES    H22 6790   0.579   4.311   0.869 -0.2308  0.6721  1.7791
   25RES    H23 6791   0.641   4.281   1.023  0.0344  0.5129  0.0688
   25RES    H24 6792   0.747   4.068   0.937 -0.1422  0.1451 -0.5100
   25RES    H25 6793   0.547   3.941   1.011  1.6361  0.4825  1.5097
   25RES    H26 6794   0.573   4.085   1.110 -0.5265  1.8246 -0.5278
   25RES    H27 6795   0.224   4.070   1.020 -1.0993 -0.2924  1.2327
   25RES    H28 6796   0.320   4.107   1.172 -1.9180  0.5692  0.1346
   25RES    H29 6797   0.339   3.955   1.085  1.4848  0.1485 -0.5887
   25RES    O30 6798   0.627   4.058   0.784  0.6083 -0.1485  0.2655
   25RES    C31 6799   0.531   4.126   0.694  0.1646 -0.7399  0.0149
   25RES    C32 6800   0.504   4.042   0.572 -0.1774  0.5014 -0.0350
   25RES    C33 6801   0.490   4.118   0.441 -0.6754 -0.3492  0.0433
   25RES    O34 6802   0.490   4.056   0.307 -0.0730 -0.1069  0.4450
   25RES    C35 6803   0.611   3.997   0.269 -0.4388  0.1997 -0.2826
   25RES    H36 6804   0.436   4.147   0.745  0.2192 -1.3976  0.3899
   25RES    H37 6805   0.573   4.218   0.654 -2.7767  0.7783  0.2705
   25RES    H38 6806   0.597   3.987   0.559 -0.3182  0.4327 -0.7535
   25RES    H39 6807   0.573   4.189   0.439  0.2861 -1.4659  0.2755
   25RES    H40 6808   0.407   4.186   0.460 -0.5717 -0.1199 -0.3055
   25RES    H41 6809   0.643   3.917   0.335 -1.0911 -0.1834 -0.4262
   25RES    H42 6810   0.687   4.075   0.260  0.1060 -0.2523  0.3584
   25RES    H43 6811   0.605   3.953   0.170 -0.9942  0.6833 -0.4694
   25RES    O44 6812   0.398   3.948   0.569  0.0367  0.0632 -0.4741
   25RES    C45 6813   0.401   3.855   0.685  0.0311  0.3370 -0.3434
   25RES    C46 6814   0.257   3.800   0.704  0.1660 -0.6743 -0.6190
   25RES    C47 6815   0.253   3.669   0.795  0.4083  0.0303 -0.5205
   25RES    O48 6816   0.133   3.592   0.770 -0.4618  0.1688  0.1083
   25RES    C49 6817   0.100   3.523   0.882  0.5298  0.3477  0.0688
   25RES    H50 6818   0.430   3.906   0.777 -1.0302  0.5705 -0.1274
   25RES    H51 6819   0.469   3.772   0.666 -0.7029  0.0826 -1.9775
   25RES    H52 6820   0.240   3.757   0.605  0.5815  3.2654 -2.4622
   25RES    H53 6821   0.337   3.602   0.777  0.6492  0.0931  0.3615
   25RES    H54 6822   0.264   3.700   0.898  1.9148 -0.8629 -0.4046
   25RES    H55 6823   0.059   3.593   0.955 -0.2724 -0.3063  0.2568
   25RES    H56 6824   0.173   3.451   0.918 -0.1759  0.6368  2.1144
   25RES    H57 6825   0.012   3.463   0.859 -0.7507  2.1077  0.2152
   25RES    O58 6826   0.165   3.907   0.736  0.2967  0.3823  0.0605
   25RES    C59 6827   0.028   3.879   0.743 -0.4993 -0.0161 -0.9473
   25RES    C60 6828   7.768   3.988   0.821  1.4775  0.4607 -0.8884
   25RES    C61 6829   7.619   3.960   0.858 -0.5977  0.4110 -0.3035
   25RES    O62 6830   7.590   4.042   0.973  0.6032 -0.1702 -0.2684
   25RES    C63 6831   7.538   4.167   0.937  0.4556 -0.0439  0.7375
   25RES    H64 6832   0.005   3.783   0.791 -1.2215 -0.2310 -1.6995
   25RES    H65 6833   7.800   3.873   0.644 -0.7794  0.4843 -0.8505
   25RES    H66 6834   0.010   4.005   0.911  0.7400 -0.1491 -0.2827
   25RES    H67 6835   7.550   3.973   0.774 -0.0865 -0.3074 -0.8371
   25RES    H68 6836   7.613   3.855   0.884  0.4043  0.2714 -0.6423
   25RES    H69 6837   7.528   4.226   1.028  1.6661  0.0487  0.8144
   25RES    H70 6838   7.439   4.152   0.893  1.4511 -2.3807 -0.7832
   25RES    H71 6839   7.597   4.226   0.868  1.1497  0.3440  1.6580
   25RES    O72 6840   7.756   4.095   0.728 -0.8333 -0.4306  0.5639
   25RES    C73 6841   0.054   4.170   0.711  0.1297  0.2463  0.3700
   25RES    C74 6842   0.023   4.313   0.666 -0.5522  0.0363 -0.5850
   25RES    C75 6843   0.150   4.368   0.597 -0.1640  0.3342 -0.3212
   25RES    O76 6844   0.116   4.476   0.513  0.0174 -0.1284 -0.2612
   25RES    C77 6845   0.214   4.485   0.412  0.2500  0.5385  0.4241
   25RES    H78 6846   0.107   4.174   0.806  1.5653 -1.6734 -0.3090
   25RES    H79 6847   0.118   4.120   0.638  1.7164 -1.2360  2.6975
   25RES    H80 6848   7.758   4.304   0.594  0.8772 -0.6663 -2.1594
   25RES    H81 6849   0.195   4.295   0.529  1.0593  0.2725  0.5380
   25RES    H82 6850   0.228   4.387   0.670 -0.6314  0.7597  0.0672
   25RES    H83 6851   0.226   4.394   0.353  0.0835 -0.2481  1.6020
   25RES    H84 6852   0.311   4.515   0.452  0.4849 -1.2635  1.2340
   25RES    H85 6853   0.195   4.563   0.338  0.8801  0.3850  0.0883
   25RES    O86 6854   7.810   4.382   0.786 -0.5001  0.1468  0.9358
   25RES    C87 6855   7.769   4.520   0.766  0.0056 -0.3828  0.1669
   25RES    C88 6856   7.710   4.585   0.883  0.3261 -0.7912 -0.6650
   25RES    C89 6857   7.617   4.493   0.960  0.3056 -0.1874 -0.4642
   25RES    O90 6858   7.559   4.559   1.071 -0.0966  0.1043 -0.1611
   25RES    C91 6859   7.457   4.478   1.125  0.7144  0.9039 -0.0487
   25RES    H92 6860   0.043   4.574   0.742  0.8269 -1.9250 -0.2807
   25RES    H93 6861   7.704   4.530   0.679  0.6853  0.4861 -0.2488
   25RES    H94 6862   7.656   4.675   0.853  0.0246 -1.0712 -0.9695
   25RES    H95 6863   7.538   4.472   0.888  0.5002  1.1296 -1.0817
   25RES    H96 6864   7.665   4.399   0.986  1.0236  0.2616 -0.1400
   25RES    H97 6865   7.404   4.415   1.054  0.1878  0.1790  0.9681
   25RES    H98 6866   7.503   4.401   1.187 -1.3210  0.4487  0.9533
   25RES    H99 6867   7.384   4.528   1.189  0.4864  1.2860 -0.6071
   25RES   O100 6868   0.001   4.621   0.965 -0.3743 -0.1511 -0.2776
   25RES   C101 6869   7.813   4.745   1.033  0.1348  0.5831  0.4268
   25RES   C102 6870   0.064   4.844   0.937  0.6233 -0.3407  0.7236
   25RES   C103 6871   0.129   4.965   1.016  0.5163  0.8446  0.0562
   25RES   O104 6872   0.190   5.046   0.920 -0.0116 -0.0604 -0.8508
   25RES   C105 6873   0.247   5.152   1.000 -0.0297  0.0668  0.0736
   25RES   H106 6874   0.056   4.737   1.123  0.8462 -2.4062 -0.2635
   25RES   H107 6875   7.713   4.764   1.073  0.2351  0.0668  0.9218
   25RES   H108 6876   0.144   4.796   0.881  0.0151  1.0588 -1.3840
   25RES   H109 6877   0.196   4.927   1.093  0.5548 -0.1513 -0.4516
   25RES   H110 6878   0.048   5.023   1.059 -1.7774 -0.8138 -1.8956
   25RES   H111 6879   0.169   5.201   1.060 -0.0840 -0.1935  0.2168
   25RES   H112 6880   0.291   5.226   0.933 -1.1566 -0.1367 -0.9092
   25RES   H113 6881   0.323   5.111   1.066 -1.8571 -0.5834  1.8470
   25RES   O114 6882   7.790   4.885   0.843  0.1372 -0.4791 -0.0973
   25RES   C115 6883   0.022   4.916   0.715 -0.0336 -0.2965 -0.5764
   25RES   C116 6884   7.720   4.949   0.618 -0.2302  0.2883  0.4248
   25RES   C117 6885   7.767   4.990   0.481  0.1270  0.1693  0.5593
   25RES   O118 6886   0.040   5.100   0.474 -0.1151  0.2259  0.2704
   25RES   C119 6887   0.083   5.162   0.349 -0.2336  0.7744  0.2760
   25RES   H120 6888   0.091   5.000   0.725 -1.9534  1.1977  0.6688
   25RES   H121 6889   0.084   4.832   0.685  0.9139 -0.6144  2.0551
   25RES   H122 6890   7.667   5.038   0.653 -0.5287 -0.3755  1.6934
   25RES   H123 6891   7.812   4.908   0.426  2.4042  0.1895  2.3083
   25RES   H124 6892   7.681   5.040   0.436  0.8975 -0.2059 -1.3703
   25RES   H125 6893   0.009   5.176   0.271  0.2878  1.0822 -0.1622
   25RES   H126 6894   0.154   5.094   0.303 -1.6590 -0.3743 -0.2709
   25RES   H127 6895   0.126   5.262   0.350  0.0228  0.6966 -2.0477
   25RES   O128 6896   7.639   4.836   0.612 -0.1269 -0.1590 -0.4672
   25RES   C129 6897   7.509   4.864   0.563 -0.2946  0.2655  0.4190
   25RES   C130 6898   7.418   4.813   0.677  0.1971 -0.4269  0.5600
   25RES   C131 6899   7.274   4.828   0.627 -0.6965 -0.2710  0.4860
   25RES   O132 6900   7.200   4.706   0.645 -0.5859  0.1607 -0.6341
   25RES   C133 6901   7.059   4.718   0.632 -0.0834  0.2888  1.1287
   25RES   H134 6902   7.495   4.971   0.546  1.5328  0.2993 -1.0527
   25RES   H135 6903   7.482   4.812   0.471  1.4932 -1.7884  1.0045
   25RES   H136 6904   7.452   4.710   0.695  1.6227  0.0896  0.8992
   25RES   H137 6905   7.261   4.853   0.521 -2.0291 -2.9196 -0.0097
   25RES   H138 6906   7.227   4.910   0.683  0.9740  0.2584  1.1436
   25RES   H139 6907   7.029   4.822   0.647  2.2976  1.2210 -0.2425
   25RES   H140 6908   7.045   4.693   0.527  1.7161  0.1469  0.9088
   25RES   H141 6909   7.011   4.637   0.687 -0.1138  0.0612  0.7684
   25RES   O142 6910   7.431   4.876   0.802 -0.4952 -0.4318 -0.3057
   25RES   C143 6911   7.362   4.819   0.911 -0.5680  0.1718  0.2302
   25RES   C144 6912   7.335   4.935   1.010  0.3082 -0.1483 -0.0303
   25RES   C145 6913   7.292   4.879   1.144 -0.0741  0.5065  0.4121
   25RES   O146 6914   7.308   4.970   1.244 -0.0170  0.1230 -0.0596
   25RES   C147 6915   7.265   4.924   1.373 -0.6594  0.2718 -0.2208
   25RES   H148 6916   7.277   4.756   0.886  1.3615 -2.5611  0.3301
   25RES   H149 6917   7.435   4.747   0.949 -1.7661 -1.5216 -0.5995
   25RES   H150 6918   7.424   4.996   1.028 -0.6253  1.4579 -0.7440
   25RES   H151 6919   7.351   4.790   1.165  0.5673  0.3828 -1.7677
   25RES   H152 6920   7.185   4.860   1.137 -0.0620  0.9385 -1.1147
   25RES   H153 6921   7.302   4.985   1.456 -0.0165  0.4588 -0.6396
   25RES   H154 6922   7.293   4.820   1.389  1.9383  0.5612 -2.5421
   25RES   H155 6923   7.157   4.937   1.370 -0.9039 -1.8493 -0.9282
   25RES   O156 6924   7.231   5.013   0.948 -0.2808 -0.0730  0.5317
   25RES   C157 6925   7.216   5.158   0.985  0.0252  0.0996  0.0720
   25RES   C158 6926   7.321   5.245   0.915  0.5512 -0.3411  0.7930
   25RES   C159 6927   7.371   5.353   1.015 -0.3241 -0.0181  0.1623
   25RES   O160 6928   7.467   5.437   0.961  0.1768  0.2744  0.5003
   25RES   C161 6929   7.476   5.557   1.043  0.1748 -0.1673  0.2704
   25RES   H162 6930   7.117   5.190   0.950  0.0082  0.7351  0.6953
   25RES   H163 6931   7.207   5.162   1.093 -0.3488 -0.4914  0.0711
   25RES   H164 6932   7.405   5.187   0.876 -1.3079 -2.1141 -0.7209
   25RES   H165 6933   7.290   5.407   1.064  1.0077  0.2245  2.1211
   25RES   H166 6934   7.414   5.295   1.097 -2.0304 -0.3173  0.8670
   25RES   H167 6935   7.377   5.603   1.054 -0.2981 -1.0407 -0.2620
   25RES   H168 6936   7.536   5.642   1.011 -3.4356  1.1680 -3.3542
   25RES   H169 6937   7.500   5.534   1.147 -0.7259 -3.0909 -0.1111
   25RES   O170 6938   7.269   5.309   0.798  0.2129 -0.4739  0.0698
   25RES   C171 6939   7.248   5.222   0.687 -0.4285 -0.3695 -0.7469
   25RES   C172 6940   7.226   5.304   0.565  0.3154 -0.6639  0.1733
   25RES   C173 6941   7.155   5.222   0.454 -0.0189  0.3163  0.6088
   25RES   O174 6942   7.230   5.102   0.422 -0.0439 -0.0017  0.2046
   25RES   C175 6943   7.313   5.102   0.302  0.0979  0.4358  0.0537
   25RES   H176 6944   7.169   5.155   0.723  0.1958  0.3580  2.1505
   25RES   H177 6945   7.338   5.162   0.681 -0.4988 -1.0800  3.6596
   25RES   H178 6946   7.151   5.380   0.590  1.7757  0.4467  1.2514
   25RES   H179 6947   7.057   5.202   0.498 -0.7039  1.1909 -0.4993
   25RES   H180 6948   7.131   5.274   0.361 -0.6686  0.4810  0.8620
   25RES   H181 6949   7.288   5.180   0.231 -0.5218 -0.1207 -0.3427
   25RES   H182 6950   7.306   5.005   0.253  0.7843  0.9243 -1.0109
   25RES   H183 6951   7.416   5.097   0.337  0.5071 -1.5418 -1.3480
   25RES   O184 6952   7.350   5.345   0.511  0.0589  0.0391  0.0749
   25RES   C185 6953   7.374   5.481   0.542  0.5387  0.5602 -0.0465
   25RES   C186 6954   7.508   5.510   0.490  0.1620 -0.7679 -0.3299
   25RES   C187 6955   7.568   5.645   0.542  0.0775 -0.5916 -0.3321
   25RES   O188 6956   7.702   5.650   0.502  0.2549  0.2494  0.1185
   25RES   C189 6957   7.750   5.784   0.515 -0.0384 -0.6901  0.0236
   25RES   H190 6958   7.369   5.504   0.649  1.1818 -2.4016  0.6481
   25RES   H191 6959   7.299   5.537   0.485  2.4419  0.0781 -3.1290
   25RES   H192 6960   7.574   5.432   0.528  1.1441  0.3523  0.3009
   25RES   H193 6961   7.552   5.647   0.650  0.2173  0.2541 -0.3212
   25RES   H194 6962   7.514   5.731   0.504  2.3189  0.2226 -1.7432
   25RES   H195 6963   7.766   5.815   0.618 -0.0239 -1.0678  0.1359
   25RES   H196 6964   0.026   5.787   0.459  0.4875 -0.5417  0.9036
   25RES   H197 6965   7.687   5.859   0.468  2.4533  1.5601  0.2070
   25RES   O198 6966   7.500   5.510   0.347  0.0186  0.1268  0.2871
   25RES   C199 6967   7.571   5.400   0.279  0.7092 -0.7860 -0.5005
   25RES   C200 6968   7.572   5.434   0.129 -0.4026  0.0206  0.1664
   25RES   C201 6969   7.588   5.307   0.047 -0.2241  0.9946 -0.2692
   25RES   O202 6970   7.566   5.309   7.721  0.4349 -0.2832  0.0036
   25RES   C203 6971   7.692   5.348   7.656  0.3241  0.1330  0.2681
   25RES   H204 6972   7.531   5.305   0.312 -1.8274 -0.6258 -2.9567
   25RES   H205 6973   7.673   5.392   0.318  0.9622  0.9350 -0.7537
   25RES   H206 6974   7.475   5.479   0.107 -0.1839  0.5427  0.2637
   25RES   H207 6975   7.682   5.253   0.060 -1.4613 -1.1055  0.1946
   25RES   H208 6976   7.512   5.239   0.085  1.1440  0.6889  1.9734
   25RES   H209 6977   7.675   5.373   7.551  3.0105  1.8084  0.1816
   25RES   H210 6978   7.750   5.256   7.658 -1.0447 -0.7373  1.7501
   25RES   H211 6979   7.744   5.435   7.695 -1.2967  2.4303 -2.4608
   25RES   O212 6980   7.670   5.522   0.081 -0.3661 -0.2078  0.1578
   25RES   C213 6981   7.714   5.633   0.166 -0.7770 -0.9904  0.0531
   25RES   C214 6982   7.788   5.721   0.067  1.0026  0.0259 -0.2474
   25RES   C215 6983   0.083   5.803   0.135  0.5995  0.0072  0.2435
   25RES   O216 6984   0.148   5.882   0.041 -0.3549  0.2567  0.2731
   25RES   C217 6985   0.243   5.822   7.770  0.0121 -0.4192  0.3411
   25RES   H218 6986   7.778   5.590   0.243  0.3844 -1.2930 -1.0665
   25RES   H219 6987   7.640   5.697   0.212 -0.5888 -0.2989 -0.5873
   25RES   H220 6988   0.010   5.655   7.807 -0.2898  0.4182 -1.2591
   25RES   H221 6989   0.035   5.872   0.205  0.3788  0.6123 -0.5080
   25RES   H222 6990   0.159   5.746   0.188  1.7096 -0.9749 -2.3582
   25RES   H223 6991   0.281   5.899   7.703  0.1008 -1.2503 -0.5840
   25RES   H224 6992   0.196   5.736   7.720  2.3461 -0.1752 -2.4471
   25RES   H225 6993   0.330   5.796   0.013  1.4268  0.8899 -1.0936
   25RES   O226 6994   7.680   5.800   0.000  0.4180  0.1299 -0.3776
   25RES   C227 6995   7.715   5.842   7.685  0.1519  0.4855 -0.4602
   25RES   C228 6996   7.591   5.911   7.618  0.2618  0.1386  0.3284
   25RES   C229 6997   7.639   6.002   7.505 -0.6160 -0.6486  0.2674
   25RES   O230 6998   7.533   6.075   7.447 -0.0105  0.3101  0.0374
   25RES   C231 6999   7.499   6.184   7.525  0.2442 -0.4376 -0.1537
   25RES   H232 7000   7.759   5.765   7.623  3.7474  0.7298  1.6293
   25RES   H233 7001   7.794   5.916   7.697  1.9575 -1.5005  0.1138
   25RES   H234 7002   7.542   5.979   7.688  0.4261  2.2601 -1.5387
   25RES   H235 7003   7.661   5.931   7.425  2.2717  1.2906 -0.7159
   25RES   H236 7004   7.733   6.054   7.519 -1.5511  1.0277  0.5391
   25RES   H237 7005   7.415   6.161   7.591 -1.7858  0.3089 -2.3975
   25RES   H238 7006   7.466   6.266   7.461  2.6889  0.8667  0.2190
   25RES   H239 7007   7.572   6.236   7.587 -0.6642  2.6597 -1.6068
   25RES   O240 7008   7.507   5.810   7.568 -0.2168 -0.2434  0.0379
   25RES   C241 7009   7.436   5.732   7.667  0.0191 -0.2279 -0.1534
   25RES   C242 7010   7.323   5.655   7.596  0.0246  0.4539 -0.0544
   25RES   C243 7011   7.293   5.526   7.681 -0.1221 -0.6221 -0.3075
   25RES   O244 7012   7.199   5.450   7.606 -0.1435 -0.2398 -0.5731
   25RES   C245 7013   7.260   5.363   7.513 -0.1918  0.1878  0.2752
   25RES   H246 7014   7.389   5.787   7.748  0.1416  0.6546 -0.6814
   25RES   H247 7015   7.508   5.656   7.697 -0.9268 -1.0959 -0.0369
   25RES   H248 7016   7.350   5.621   7.496  0.0896  0.1616  0.0627
   25RES   H249 7017   7.376   5.457   7.700 -0.0810 -0.6088 -0.4301
   25RES   H250 7018   7.253   5.554   7.778  0.4720 -0.1011 -0.2080
   25RES   H251 7019   7.337   5.303   7.561 -1.2328 -1.0837  0.3987
   25RES   H252 7020   7.300   5.427   7.435 -1.5896 -1.7428 -2.0986
   25RES   H253 7021   7.193   5.291   7.465 -0.6416 -0.2523  1.5254
   25RES   O254 7022   7.205   5.734   7.581  0.1714  0.4243  0.4239
   25RES   C255 7023   7.205   5.838   7.486 -0.1811 -0.3310 -0.1537
   25RES   C256 7024   7.065   5.865   7.435 -0.2754  0.5368 -0.8570
   25RES   C257 7025   7.007   5.733   7.377  0.2147  0.3535  0.7590
   25RES   O258 7026   7.008   5.751   7.233  0.4385  0.3203  0.3306
   25RES   C259 7027   6.976   5.636   7.159  0.4357  0.3351 -0.2227
   25RES   H260 7028   7.250   5.934   7.512 -0.2873 -0.5662  0.9193
   25RES   H261 7029   7.264   5.812   7.398 -0.0742  1.6597 -0.6986
   25RES   H262 7030   7.082   5.942   7.360  2.5293  2.8928  2.0147
   25RES   H263 7031   7.060   5.645   7.413 -0.9249 -0.6922 -0.0714
   25RES   H264 7032   6.906   5.717   7.415 -0.7525  0.8796 -1.4812
   25RES   H265 7033   6.980   5.659   7.053  0.2834  1.3914 -0.0068
   25RES   H266 7034   6.878   5.591   7.178  0.5628  0.6222  1.1976
   25RES   H267 7035   7.051   5.557   7.166  1.3087  1.4060  3.5692
   25RES   O268 7036   6.980   5.905   7.537 -0.1033  0.6070  0.3929
   25RES   C269 7037   6.990   6.046   7.570 -0.5104  0.3531 -0.1893
   25RES   C270 7038   6.864   6.077   7.642 -0.2677  0.3999  0.0774
   25RES   C271 7039   6.834   5.980   7.763  0.0261 -0.2957 -0.0992
   25RES   O272 7040   6.704   6.008   7.815  0.8230 -0.4725 -0.3296
   25RES   C273 7041   6.685   5.947   0.121 -0.0218  0.2182  0.1054
   25RES   H274 7042   7.005   6.108   7.481 -0.4757 -0.9776 -1.1316
   25RES   H275 7043   7.080   6.060   7.631 -0.5508  0.6512 -0.1968
   25RES   H276 7044   6.850   6.184   7.657  3.0856  1.0950 -1.4096
   25RES   H277 7045   6.907   5.983   0.026  1.8931 -1.4968 -1.7192
   25RES   H278 7046   6.829   5.877   7.726 -0.2740 -0.8199  1.3752
   25RES   H279 7047   6.710   5.841   0.118 -0.8260  0.0682 -3.3525
   25RES   H280 7048   6.598   5.966   0.185  0.8403 -3.9998  2.7316
   25RES   H281 7049   6.748   5.997   0.195  0.0434  1.3006 -0.6730
   25RES   H282 7050   6.787   6.062   7.567  0.0067 -0.0517 -0.1164
   26RES     O1 7051   3.392   1.324   3.217 -0.4011 -0.3747 -0.1326
   26RES     C2 7052   3.255   1.302   3.185 -0.1860  0.1133 -0.3239
   26RES     C3 7053   3.148   1.405   3.241 -0.1146 -0.2063 -0.1342
   26RES     C4 7054   3.009   1.357   3.199 -0.1914  0.6888 -0.2261
   26RES     O5 7055   2.933   1.469   3.240  0.1507  0.2125 -0.4077
   26RES     C6 7056   2.793   1.449   3.232 -0.3540  0.2976 -0.6850
   26RES     H7 7057   3.234   1.289   3.078 -0.9093 -2.8719  0.1293
   26RES     H8 7058   3.238   1.209   3.238  1.1819 -0.2292 -0.4671
   26RES     H9 7059   3.175   1.503   3.203  1.0502  0.1826  1.6195
   26RES    H10 7060   2.975   1.264   3.245 -1.7022  1.2312 -0.2229
   26RES    H11 7061   2.996   1.351   3.091 -1.4655  3.1939 -0.2406
   26RES    H12 7062   2.753   1.444   3.131  1.1702  1.5059 -1.3732
   26RES    H13 7063   2.763   1.360   3.286 -0.9783 -0.1961 -1.8308
   26RES    H14 7064   2.749   1.538   3.277 -3.6149 -2.0334  0.9633
   26RES    H15 7065   3.414   1.415   3.208 -0.4215 -0.3793 -0.2326
   26RES    O16 7066   3.159   1.409   3.385 -0.0195  0.6032 -0.5672
   26RES    C17 7067   3.242   1.511   3.431  0.3136 -0.1499  0.8038
   26RES    C18 7068   3.235   1.519   3.584  0.0205  0.0733  0.5492
   26RES    C19 7069   3.370   1.591   3.640  0.8281  0.1772  0.2333
   26RES    O20 7070   3.351   1.639   3.774 -0.4830  0.2815  0.9190
   26RES    C21 7071   3.467   1.709   3.829  0.5141  0.4681  0.2220
   26RES    H22 7072   3.203   1.606   3.394  2.2754 -0.0961 -1.1820
   26RES    H23 7073   3.340   1.490   3.388  0.9999  1.9538  1.2816
   26RES    H24 7074   3.238   1.418   3.625 -2.1251  0.4415  1.7142
   26RES    H25 7075   3.451   1.518   3.638 -0.4337 -1.2431  0.3965
   26RES    H26 7076   3.391   1.670   3.568  1.2208  1.0342  1.2758
   26RES    H27 7077   3.545   1.636   3.849 -0.8687 -0.8197  1.0276
   26RES    H28 7078   3.450   1.748   3.930  0.1400 -0.3483  0.4788
   26RES    H29 7079   3.503   1.793   3.769  1.3161  0.1545  0.2545
   26RES    O30 7080   3.122   1.598   3.619 -0.7894  0.0437  0.0276
   26RES    C31 7081   3.000   1.531   3.627 -0.2245 -0.1044  0.0644
   26RES    C32 7082   2.895   1.629   3.693 -0.2516  0.3128  0.1257
   26RES    C33 7083   2.880   1.763   3.612 -0.5536 -0.6949 -0.0908
   26RES    O34 7084   2.760   1.742   3.532  0.6885  0.1407  0.2313
   26RES    C35 7085   2.709   1.857   3.467 -0.0686  0.0234  0.1201
   26RES    H36 7086   2.974   1.495   3.527 -0.4622 -0.7002  0.3331
   26RES    H37 7087   3.016   1.438   3.682  2.3933 -1.7756 -3.3689
   26RES    H38 7088   2.802   1.573   3.684  0.1299 -0.3740  0.4553
   26RES    H39 7089   2.967   1.781   3.550 -0.7530  2.1760  0.4021
   26RES    H40 7090   2.857   1.844   3.681  3.2013 -0.2916  0.7870
   26RES    H41 7091   2.783   1.904   3.403 -0.1881  2.5933  1.8041
   26RES    H42 7092   2.681   1.935   3.538 -0.7990 -0.0185 -0.1219
   26RES    H43 7093   2.629   1.833   3.397 -1.0398  2.5075  0.3472
   26RES    O44 7094   2.908   1.650   3.833 -0.0241  0.0651  0.0648
   26RES    C45 7095   3.027   1.715   3.869 -0.5527 -0.6105  0.7600
   26RES    C46 7096   3.023   1.746   4.014 -0.0105  0.1874 -0.5593
   26RES    C47 7097   3.169   1.776   4.068 -0.7309 -0.2775 -0.5037
   26RES    O48 7098   3.149   1.833   4.195 -0.1119 -0.1957 -0.1409
   26RES    C49 7099   3.265   1.868   4.269 -0.0041  0.7105  0.1038
   26RES    H50 7100   3.047   1.805   3.810 -0.0486 -0.1032  1.6841
   26RES    H51 7101   3.113   1.651   3.848  0.7710  0.9233  1.3591
   26RES    H52 7102   2.987   1.654   4.060 -0.6815  0.6477 -0.1585
   26RES    H53 7103   3.241   1.694   4.070  0.4846  0.8095  1.1970
   26RES    H54 7104   3.221   1.846   4.002 -0.4429  0.6403  0.6714
   26RES    H55 7105   3.244   1.909   4.368  1.3544  0.1291  0.6534
   26RES    H56 7106   3.325   1.944   4.218 -0.5654  0.9761 -0.1577
   26RES    H57 7107   3.325   1.777   4.279  1.9520  2.0431  0.7306
   26RES    O58 7108   2.950   1.867   4.044 -0.5242 -0.2345  0.5000
   26RES    C59 7109   2.817   1.840   4.077  1.1100  0.1919  0.1247
   26RES    C60 7110   2.765   1.951   4.167  0.0323  0.5616  0.7799
   26RES    C61 7111   2.635   1.924   4.247  0.5364  0.4208  0.1279
   26RES    O62 7112   2.613   2.001   4.362 -0.6749  0.1992 -0.0563
   26RES    C63 7113   2.495   1.959   4.426  0.0514 -0.0357  0.1785
   26RES    H64 7114   2.807   1.739   4.117  2.6745  0.6374  1.6934
   26RES    H65 7115   2.765   1.843   3.981 -0.8291 -0.2393  1.1301
   26RES    H66 7116   2.844   1.965   4.241 -2.1703  0.5731  3.2241
   26RES    H67 7117   2.558   1.939   4.172  1.8689  2.8713 -0.7960
   26RES    H68 7118   2.633   1.822   4.284 -1.9245  0.5013  0.3279
   26RES    H69 7119   2.413   1.934   4.358 -0.6380  1.4367  0.4405
   26RES    H70 7120   2.450   2.037   4.488  0.1479  0.2997 -0.1695
   26RES    H71 7121   2.494   1.862   4.475 -0.2308 -2.0359 -3.6076
   26RES    O72 7122   2.747   2.072   4.089  0.6001  0.1670 -0.4633
   26RES    C73 7123   2.786   2.187   4.165 -0.3568  0.5317  0.3614
   26RES    C74 7124   2.766   2.307   4.079  0.8805 -0.0953 -0.3116
   26RES    C75 7125   2.835   2.426   4.152 -0.0895 -0.0064 -0.2542
   26RES    O76 7126   2.840   2.535   4.062 -0.5541  0.0589  0.0790
   26RES    C77 7127   2.943   2.533   3.956 -0.1994 -0.3109 -0.1937
   26RES    H78 7128   2.730   2.192   4.259  0.7073  1.9463  0.9217
   26RES    H79 7129   2.893   2.183   4.184 -0.2642  1.3837  0.0022
   26RES    H80 7130   2.816   2.287   3.984 -1.0331  0.8348 -1.5382
   26RES    H81 7131   2.937   2.401   4.183 -0.0499 -5.8347 -4.2462
   26RES    H82 7132   2.776   2.466   4.234  2.0579 -0.0946  1.4089
   26RES    H83 7133   2.931   2.453   3.884  1.8574 -1.8400  1.0972
   26RES    H84 7134   3.038   2.536   4.010 -0.5846 -4.5106  0.8088
   26RES    H85 7135   2.937   2.626   3.898  1.9735  1.0222  1.6347
   26RES    O86 7136   2.629   2.333   4.082 -0.2337  0.6061 -0.0214
   26RES    C87 7137   2.591   2.376   3.957 -0.1646  0.3158 -0.4274
   26RES    C88 7138   2.573   2.268   3.844 -0.1155 -0.7366  0.2588
   26RES    C89 7139   2.472   2.153   3.875 -0.6939 -0.4260 -0.0901
   26RES    O90 7140   2.454   2.069   3.763 -0.1699 -0.3180 -0.2090
   26RES    C91 7141   2.516   1.944   3.771  0.3471 -0.8332 -0.1832
   26RES    H92 7142   2.493   2.406   3.992  0.9088  2.1786  1.1046
   26RES    H93 7143   2.645   2.461   3.916  1.0426  0.5516  1.5712
   26RES    H94 7144   2.671   2.223   3.836  0.6048  0.6541  1.0451
   26RES    H95 7145   2.510   2.092   3.957 -1.2688 -1.7467 -0.7862
   26RES    H96 7146   2.374   2.187   3.908 -0.3277  0.2719  0.2901
   26RES    H97 7147   2.477   1.891   3.858 -0.3721  0.6325  0.4110
   26RES    H98 7148   2.483   1.889   3.683 -1.5281 -0.5956  0.3540
   26RES    H99 7149   2.623   1.944   3.788  0.2170 -3.0289  0.7463
   26RES   O100 7150   2.526   2.339   3.729 -0.1714 -0.8119 -0.1898
   26RES   C101 7151   2.574   2.309   3.611 -0.2830  0.1541 -0.2608
   26RES   C102 7152   2.501   2.387   3.495  0.2536  0.0548  0.4941
   26RES   C103 7153   2.534   2.325   3.359  0.0242  0.0956 -0.3424
   26RES   O104 7154   2.421   2.348   3.269 -0.4036 -0.1456 -0.0520
   26RES   C105 7155   2.436   2.281   3.142  0.3529  0.6008  0.5507
   26RES   H106 7156   2.554   2.203   3.596 -0.7690  0.0420  1.1065
   26RES   H107 7157   2.679   2.335   3.616 -1.0766  3.6631 -0.8609
   26RES   H108 7158   2.393   2.380   3.510  0.2526 -0.1743  0.3657
   26RES   H109 7159   2.549   2.217   3.358  0.0623  0.1046 -0.9730
   26RES   H110 7160   2.625   2.368   3.316 -0.0728 -1.2714 -1.9391
   26RES   H111 7161   2.427   2.174   3.159  0.4784  0.5636  0.3950
   26RES   H112 7162   2.533   2.294   3.093  1.4910 -1.1493  2.2940
   26RES   H113 7163   2.361   2.289   3.063  1.3013 -6.5559 -1.4743
   26RES   O114 7164   2.555   2.516   3.493 -0.2206  0.2558 -0.1733
   26RES   C115 7165   2.473   2.615   3.436  0.5435 -0.3101 -0.6816
   26RES   C116 7166   2.472   2.752   3.501 -0.2520  0.3530  0.2689
   26RES   C117 7167   2.428   2.871   3.407  0.1136 -0.8625 -0.2837
   26RES   O118 7168   2.509   2.983   3.429  0.0843  0.0166  0.0971
   26RES   C119 7169   2.487   3.044   3.554  0.0027  0.1886 -0.4121
   26RES   H120 7170   2.490   2.611   3.328 -0.6237  1.1901 -0.9359
   26RES   H121 7171   2.370   2.581   3.444 -0.0813  1.9240  1.1549
   26RES   H122 7172   2.575   2.769   3.534  0.4157 -0.8647 -1.1367
   26RES   H123 7173   2.444   2.847   3.302  0.5538 -2.1839  0.0732
   26RES   H124 7174   2.322   2.893   3.419  0.4229  0.0322  0.9655
   26RES   H125 7175   2.492   2.978   3.640 -1.1717  0.0980 -0.3975
   26RES   H126 7176   2.382   3.074   3.562  0.3868  1.4366  0.1673
   26RES   H127 7177   2.546   3.133   3.576 -1.7216  0.7527  2.2550
   26RES   O128 7178   2.379   2.751   3.612  0.3562  0.1001 -0.0574
   26RES   C129 7179   2.426   2.687   3.728 -0.3605 -0.4716 -0.3329
   26RES   C130 7180   2.363   2.746   3.854 -0.2856  0.3780  0.1610
   26RES   C131 7181   2.418   2.674   3.981  0.6104 -1.0047 -0.1120
   26RES   O132 7182   2.383   2.736   4.099  0.7859 -0.4492 -0.1688
   26RES   C133 7183   2.448   2.681   4.212  0.0835 -0.0437 -0.9193
   26RES   H134 7184   2.415   2.579   3.718  2.7159 -0.7689 -0.8007
   26RES   H135 7185   2.532   2.707   3.743 -0.6944  1.7341 -0.8460
   26RES   H136 7186   2.390   2.851   3.846 -0.6958  0.3339 -2.1687
   26RES   H137 7187   2.526   2.684   3.968  0.5191  1.0912  0.6256
   26RES   H138 7188   2.389   2.570   3.973 -2.0381 -0.2899 -0.3116
   26RES   H139 7189   2.429   2.739   4.303  1.7930 -0.5778 -0.2105
   26RES   H140 7190   2.403   2.586   4.243  1.1738  0.1340  1.3407
   26RES   H141 7191   2.556   2.677   4.200  0.1742 -0.8284  0.0542
   26RES   O142 7192   2.226   2.732   3.853  0.5381 -0.5581  0.0001
   26RES   C143 7193   2.145   2.847   3.897  0.2933  0.1166  0.2160
   26RES   C144 7194   1.998   2.801   3.935  0.3289  0.1204  0.2677
   26RES   C145 7195   1.885   2.906   3.921  0.1382  0.5775 -0.0145
   26RES   O146 7196   1.915   3.014   4.001  0.2773  0.5913  0.4365
   26RES   C147 7197   1.793   3.081   4.046 -0.2566 -0.3612 -0.1125
   26RES   H148 7198   2.199   2.901   3.975  0.9773  0.1246 -0.2545
   26RES   H149 7199   2.126   2.918   3.816 -0.0467  0.1201  0.2998
   26RES   H150 7200   1.958   2.732   3.861 -1.3447  0.2666  1.0234
   26RES   H151 7201   1.796   2.854   3.956  0.8008 -1.0548 -0.7199
   26RES   H152 7202   1.879   2.934   3.816 -2.3924 -1.1328 -0.3568
   26RES   H153 7203   1.810   3.180   4.089  0.3490 -0.4367 -0.1742
   26RES   H154 7204   1.741   3.028   4.125 -0.2759  1.3948  1.0711
   26RES   H155 7205   1.717   3.109   3.973  0.8611  2.6979 -0.1974
   26RES   O156 7206   1.978   2.731   4.058 -0.1385  0.2831  0.6017
   26RES   C157 7207   2.058   2.768   4.166 -0.2432 -0.3145  0.5991
   26RES   C158 7208   1.985   2.731   4.296 -0.4598 -0.1074 -0.6395
   26RES   C159 7209   1.867   2.815   4.316  0.3840 -0.1553 -0.7992
   26RES   O160 7210   1.794   2.788   4.439  0.8251  0.5133 -0.2493
   26RES   C161 7211   1.718   2.898   4.494  0.3633 -0.0684  0.1165
   26RES   H162 7212   2.147   2.710   4.142  1.6236  2.0032  1.7330
   26RES   H163 7213   2.080   2.875   4.171 -1.0692  0.0077 -1.8100
   26RES   H164 7214   1.970   2.624   4.306  2.6311 -0.7940 -2.4261
   26RES   H165 7215   1.891   2.921   4.313 -1.8837  0.3558 -1.1890
   26RES   H166 7216   1.789   2.805   4.241 -2.1220 -0.6644  1.7668
   26RES   H167 7217   1.649   2.935   4.418  0.2759  1.4149  0.8921
   26RES   H168 7218   1.779   2.983   4.523  0.2160  0.3449 -0.7636
   26RES   H169 7219   1.666   2.860   4.582 -0.8231 -0.4274 -0.7162
   26RES   O170 7220   2.087   2.768   4.392  0.3081  0.2233 -0.1841
   26RES   C171 7221   2.078   2.709   4.521 -0.3482 -0.5691 -0.0873
   26RES   C172 7222   2.191   2.764   4.611  0.2319  0.0068 -0.1331
   26RES   C173 7223   2.200   2.658   4.718  0.2265  0.4159  0.5639
   26RES   O174 7224   2.311   2.688   4.803 -0.2858  0.4806 -0.0549
   26RES   C175 7225   2.331   2.589   4.908 -0.4134  0.6062 -1.0883
   26RES   H176 7226   2.095   2.603   4.503 -0.4324 -0.2870 -1.8837
   26RES   H177 7227   1.981   2.709   4.570  0.6919 -0.6433  2.0433
   26RES   H178 7228   2.291   2.761   4.566 -0.2282 -2.5662 -1.0839
   26RES   H179 7229   2.110   2.654   4.779  1.3074 -1.5061  2.1168
   26RES   H180 7230   2.227   2.562   4.674  1.7909  1.3066 -0.4903
   26RES   H181 7231   2.258   2.616   4.984  1.7957  1.2629  0.8740
   26RES   H182 7232   2.434   2.601   4.942  0.0048 -0.9946 -1.7462
   26RES   H183 7233   2.325   2.485   4.877 -0.2358 -0.3427  1.9723
   26RES   O184 7234   2.143   2.889   4.671 -0.3176 -0.6530 -0.1791
   26RES   C185 7235   2.136   3.006   4.587  0.3961 -0.2585  0.7654
   26RES   C186 7236   2.044   3.110   4.648  0.2990  0.0579  0.4579
   26RES   C187 7237   2.002   3.224   4.552 -0.7215  0.0367  0.1549
   26RES   O188 7238   1.891   3.314   4.585  0.0172  0.1063  0.6152
   26RES   C189 7239   1.857   3.405   4.477  0.2668  0.1187  0.0492
   26RES   H190 7240   2.098   2.986   4.487 -1.4235  0.4185  1.2952
   26RES   H191 7241   2.236   3.047   4.572  0.0746 -0.2227 -1.4580
   26RES   H192 7242   1.948   3.076   4.686  0.3572  0.0356  0.5857
   26RES   H193 7243   1.953   3.170   4.471 -2.5630  1.5752  0.2250
   26RES   H194 7244   2.094   3.264   4.508 -1.9353 -0.7334 -3.2283
   26RES   H195 7245   1.774   3.462   4.518 -0.2984 -0.5815 -0.1181
   26RES   H196 7246   1.946   3.466   4.461  0.0556  0.2788 -0.5170
   26RES   H197 7247   1.832   3.343   4.391 -0.3386  0.8366 -0.2975
   26RES   O198 7248   2.110   3.185   4.745  0.6801 -0.0093  0.3006
   26RES   C199 7249   2.112   3.135   4.877 -1.0976 -0.5413  0.1222
   26RES   C200 7250   2.202   3.223   4.964  0.2437  0.6311  1.0227
   26RES   C201 7251   2.353   3.206   4.934 -0.1117 -0.1273 -0.5933
   26RES   O202 7252   2.414   3.331   4.951 -0.1148 -0.4388 -0.0848
   26RES   C203 7253   2.557   3.305   4.968 -0.1026  0.2066 -0.3124
   26RES   H204 7254   2.136   3.028   4.881  0.0513 -0.2647  0.8572
   26RES   H205 7255   2.008   3.152   4.905 -0.4952  2.1093  0.8900
   26RES   H206 7256   2.171   3.326   4.946 -0.2038  0.2172 -0.6705
   26RES   H207 7257   2.391   3.118   4.985  2.1907  2.8493  3.0879
   26RES   H208 7258   2.367   3.182   4.828  0.1436  1.2228 -0.8800
   26RES   H209 7259   2.572   3.256   5.065  2.9546 -1.5666 -1.6276
   26RES   H210 7260   2.620   3.394   4.971  0.8753 -0.5268  1.5726
   26RES   H211 7261   2.589   3.233   4.894 -2.0284  0.7016 -1.6828
   26RES   O212 7262   2.162   3.200   5.099 -0.0296  0.2535  0.5403
   26RES   C213 7263   2.211   3.296   5.191 -0.2728 -0.0056 -0.1380
   26RES   C214 7264   2.188   3.244   5.333  0.5407 -0.1095 -0.3073
   26RES   C215 7265   2.215   3.346   5.447 -0.6989  0.0020  0.4078
   26RES   O216 7266   2.146   3.316   5.568  0.2834  0.1145 -0.0044
   26RES   C217 7267   2.217   3.360   5.680  0.3292 -0.2003 -0.4522
   26RES   H218 7268   2.166   3.394   5.177  0.0211  0.2211  0.5005
   26RES   H219 7269   2.319   3.306   5.178 -0.6138  2.1799 -1.6573
   26RES   H220 7270   2.083   3.216   5.325  1.0742 -1.8792 -1.3692
   26RES   H221 7271   2.322   3.357   5.466 -0.6634 -0.8234  0.7006
   26RES   H222 7272   2.191   3.450   5.425 -1.4755  0.0972  1.6909
   26RES   H223 7273   2.311   3.305   5.681 -0.3020 -1.3261 -2.2201
   26RES   H224 7274   2.162   3.355   5.774  1.4462 -1.2629  0.1712
   26RES   H225 7275   2.238   3.467   5.682  0.9051 -0.3155  0.2991
   26RES   O226 7276   2.271   3.129   5.348  0.2150  0.7763 -0.4377
   26RES   C227 7277   2.244   3.051   5.474 -0.5325  0.0363  0.5609
   26RES   C228 7278   2.256   2.894   5.455 -0.0236  0.4337 -0.5965
   26RES   C229 7279   2.269   2.822   5.583 -0.2679  0.1543 -0.3581
   26RES   O230 7280   2.277   2.685   5.554 -0.2335 -0.6833  0.1194
   26RES   C231 7281   2.263   2.596   5.659 -0.2062 -0.1858  0.4567
   26RES   H232 7282   2.143   3.075   5.508 -0.8705 -1.8600  0.9689
   26RES   H233 7283   2.317   3.086   5.547  0.1539 -0.4960  0.1338
   26RES   H234 7284   2.345   2.872   5.395  0.5057 -3.4698  1.4554
   26RES   H235 7285   2.181   2.841   5.644  0.1604  1.0517 -0.0249
   26RES   H236 7286   2.360   2.847   5.638 -0.4372 -0.7722  0.3687
   26RES   H237 7287   2.360   2.601   5.709 -0.3727 -1.6706  0.9426
   26RES   H238 7288   2.244   2.493   5.633  1.4700 -0.5976  0.7669
   26RES   H239 7289   2.181   2.625   5.724 -1.2371 -0.0001 -0.9177
   26RES   O240 7290   2.151   2.831   5.380 -0.4366 -0.7223  0.7678
   26RES   C241 7291   2.158   2.851   5.237  0.3456  0.4509 -0.1392
   26RES   C242 7292   2.030   2.786   5.180 -0.4208  0.4094  0.1594
   26RES   C243 7293   1.998   2.854   5.048  0.3276 -0.0621 -0.1345
   26RES   O244 7294   1.876   2.810   4.996 -0.3714 -0.7478  0.0779
   26RES   C245 7295   1.836   2.873   4.875 -0.6623 -0.3887 -0.2231
   26RES   H246 7296   2.247   2.800   5.200 -1.0720 -0.0445 -2.9758
   26RES   H247 7297   2.170   2.957   5.217  2.3735  0.2462 -0.0984
   26RES   H248 7298   1.945   2.798   5.246  0.5394  0.7260  1.3582
   26RES   H249 7299   1.985   2.959   5.076  0.6996 -0.2063  0.5926
   26RES   H250 7300   2.082   2.845   4.979 -0.3451 -1.8041 -0.7398
   26RES   H251 7301   1.906   2.865   4.792  0.0100 -0.5921  0.3627
   26RES   H252 7302   1.825   2.980   4.889  0.5255 -0.0968 -1.3809
   26RES   H253 7303   1.740   2.826   4.852 -0.9106 -1.6641  3.0839
   26RES   O254 7304   2.049   2.648   5.150 -0.1413 -0.6372  0.0856
   26RES   C255 7305   2.037   2.564   5.273  0.0416 -0.3096  0.5125
   26RES   C256 7306   2.061   2.418   5.241 -0.1684 -0.1814 -0.0891
   26RES   C257 7307   2.083   2.328   5.362 -0.4974  0.1246  0.0604
   26RES   O258 7308   2.136   2.194   5.326  0.2026  0.2475 -0.6346
   26RES   C259 7309   2.165   2.124   5.441  0.0272 -0.4815  0.1553
   26RES   H260 7310   2.116   2.606   5.336  0.5568  0.5117 -0.6573
   26RES   H261 7311   1.938   2.572   5.317 -0.3594 -2.3261  0.0220
   26RES   H262 7312   2.147   2.420   5.173  0.5800 -0.9838  0.8165
   26RES   H263 7313   2.137   2.381   5.440 -0.9827  0.8452 -0.0865
   26RES   H264 7314   1.984   2.310   5.403 -1.2165  0.4121 -1.5142
   26RES   H265 7315   2.084   2.104   5.511 -1.9885  2.4158 -1.2073
   26RES   H266 7316   2.243   2.171   5.501 -0.7055  0.4407  0.3975
   26RES   H267 7317   2.187   2.024   5.403  0.0942 -0.7065  0.7880
   26RES   O268 7318   1.950   2.373   5.166  0.1958  0.3720  0.0464
   26RES   C269 7319   1.975   2.282   5.068  0.2571  0.0845  0.0545
   26RES   C270 7320   1.846   2.274   4.988 -0.2047  0.0881 -0.5934
   26RES   C271 7321   1.823   2.402   4.905 -0.0462 -0.0905  0.2045
   26RES   O272 7322   1.705   2.393   4.832 -0.7908  0.4380  0.2195
   26RES   C273 7323   1.649   2.517   4.786  0.3063  0.3476 -0.2225
   26RES   H274 7324   2.006   2.185   5.105  0.7260 -0.0330 -0.6482
   26RES   H275 7325   2.053   2.296   4.994 -1.2482 -1.0333 -1.7882
   26RES   H276 7326   1.863   2.192   4.918 -0.1883 -0.9624  0.6204
   26RES   H277 7327   1.912   2.433   4.849  0.9592 -2.7933  0.2432
   26RES   H278 7328   1.791   2.479   4.975 -2.3296 -1.3719  0.6134
   26RES   H279 7329   1.630   2.592   4.863  0.7686 -1.9533  2.2198
   26RES   H280 7330   1.554   2.493   4.738 -0.0721 -0.2657  0.8081
   26RES   H281 7331   1.713   2.572   4.718  0.0252  0.7330 -0.1763
   26RES   H282 7332   1.766   2.260   5.062 -0.0962  1.0297 -0.2937
   27RES     O1 7333   4.934   7.564   1.674 -0.0960  0.1584  0.8002
   27RES     C2 7334   4.999   7.586   1.551  0.5095 -0.2806 -0.3163
   27RES     C3 7335   4.893   7.627   1.458  0.3665  0.7700  0.3951
   27RES     C4 7336   4.940   7.670   1.316 -0.4500 -0.1384 -0.1983
   27RES     O5 7337   4.837   7.743   1.252  0.0966  0.3436  0.1479
   27RES     C6 7338   4.842   7.734   1.110 -0.2678 -0.1630 -0.0970
   27RES     H7 7339   5.072   7.665   1.566 -1.0635  1.6076 -2.2635
   27RES     H8 7340   5.048   7.500   1.506  0.1869 -1.3266  1.2847
   27RES     H9 7341   4.831   7.705   1.501  1.3300  1.1023  1.1648
   27RES    H10 7342   4.974   7.586   1.256  0.9286  1.2128 -1.3550
   27RES    H11 7343   5.028   7.732   1.328  1.2096 -2.4507 -0.1421
   27RES    H12 7344   4.748   7.769   1.066 -2.0612 -2.8339  1.4550
   27RES    H13 7345   4.922   7.797   1.072 -0.0814  0.2118  0.8917
   27RES    H14 7346   4.873   7.632   1.088  2.4576  0.5493  0.2091
   27RES    H15 7347   4.854   7.522   1.648  1.2900 -0.1423 -3.2601
   27RES    O16 7348   4.822   7.506   1.448 -0.6465  0.3019  0.9341
   27RES    C17 7349   4.681   7.524   1.425  0.6334  0.4343  0.1527
   27RES    C18 7350   4.603   7.399   1.469  0.2380 -0.0149 -0.3687
   27RES    C19 7351   4.656   7.277   1.395  0.4796 -0.0604 -0.2607
   27RES    O20 7352   4.584   7.160   1.435 -0.0187  0.4814  0.0611
   27RES    C21 7353   4.446   7.165   1.389 -0.3792  0.6985  0.6494
   27RES    H22 7354   4.662   7.543   1.319 -1.6061  0.4400  0.5262
   27RES    H23 7355   4.632   7.605   1.479 -1.8497  0.0542 -1.4428
   27RES    H24 7356   4.500   7.421   1.442  0.3549 -0.0137 -0.8104
   27RES    H25 7357   4.654   7.288   1.287  3.1902  2.0132 -0.1705
   27RES    H26 7358   4.760   7.253   1.417  0.7381 -1.4318 -2.8430
   27RES    H27 7359   4.444   7.191   1.283 -0.9792 -0.0437  0.4699
   27RES    H28 7360   4.393   7.235   1.454 -0.3688  1.9677 -0.6935
   27RES    H29 7361   4.401   7.065   1.391 -0.6734  0.8051 -0.2784
   27RES    O30 7362   4.640   7.380   1.605 -0.1932 -0.0891 -0.1617
   27RES    C31 7363   4.530   7.377   1.688  0.0127  0.3080  0.6414
   27RES    C32 7364   4.476   7.519   1.710 -0.1679 -0.1058  0.1528
   27RES    C33 7365   4.419   7.537   1.848 -0.0745  0.1874  0.2817
   27RES    O34 7366   4.333   7.430   1.882  0.5052 -0.0145  0.0356
   27RES    C35 7367   4.299   7.430   2.025 -0.2688 -0.1249  0.7794
   27RES    H36 7368   4.461   7.298   1.658  0.6239  0.1060 -0.2894
   27RES    H37 7369   4.567   7.340   1.784  1.8219 -1.9698 -0.8796
   27RES    H38 7370   4.560   7.588   1.710 -0.2848  0.0345 -0.1831
   27RES    H39 7371   4.382   7.639   1.859  1.8622  0.7953  1.4008
   27RES    H40 7372   4.499   7.539   1.923  0.0434 -0.3662  0.1727
   27RES    H41 7373   4.253   7.524   2.054 -2.3763 -1.0633  0.5372
   27RES    H42 7374   4.393   7.408   2.076 -0.1905 -0.0975  0.6498
   27RES    H43 7375   4.224   7.354   2.043  0.5627 -0.7360  1.7135
   27RES    O44 7376   4.392   7.561   1.604 -0.2290  0.4463 -0.2208
   27RES    C45 7377   4.262   7.507   1.599 -0.5268 -0.2592  0.0995
   27RES    C46 7378   4.197   7.572   1.471  0.2786  0.5162 -0.2075
   27RES    C47 7379   4.065   7.492   1.440 -0.0925  0.6617  0.6449
   27RES    O48 7380   4.032   7.529   1.310  0.4841  0.0102 -0.1078
   27RES    C49 7381   3.924   7.620   1.298 -0.7396  0.0466 -0.4283
   27RES    H50 7382   4.209   7.533   1.690  2.8928  0.5107  1.9622
   27RES    H51 7383   4.273   7.399   1.588 -1.5336 -0.0220 -3.8461
   27RES    H52 7384   4.266   7.557   1.388  1.3593  2.6919  0.2710
   27RES    H53 7385   4.087   7.387   1.426 -0.0946  1.0461 -2.5068
   27RES    H54 7386   3.987   7.484   1.516 -1.1753  4.7336  0.0985
   27RES    H55 7387   3.831   7.574   1.333  0.6758 -0.0487  3.4665
   27RES    H56 7388   3.916   7.630   1.189  0.3617 -0.8700 -0.6048
   27RES    H57 7389   3.946   7.711   1.352  2.2947 -1.5042  1.0665
   27RES    O58 7390   4.163   7.701   1.509  0.0849  0.1650 -0.3393
   27RES    C59 7391   4.234   7.798   1.429  0.3175  0.1648 -0.3078
   27RES    C60 7392   4.174   0.113   1.470  0.0806  0.6081  0.1101
   27RES    C61 7393   4.221   0.222   1.372  0.1509 -0.8598  1.1298
   27RES    O62 7394   4.143   0.337   1.378  0.6192 -0.1967 -0.2069
   27RES    C63 7395   4.193   0.441   1.300 -0.0635 -0.3673  0.3773
   27RES    H64 7396   4.212   7.784   1.323 -1.2854 -0.6841  0.1087
   27RES    H65 7397   4.339   7.780   1.450  0.3457  1.2904  0.5376
   27RES    H66 7398   4.066   0.104   1.461 -0.1313  4.0896 -1.7670
   27RES    H67 7399   4.322   0.250   1.402  0.1986 -0.2867  0.4533
   27RES    H68 7400   4.214   0.182   1.271  0.0862 -0.7451  1.0886
   27RES    H69 7401   4.140   0.534   1.324 -1.4586 -1.6028  2.1720
   27RES    H70 7402   4.167   0.418   1.197  2.3794 -0.0003 -0.3428
   27RES    H71 7403   4.297   0.473   1.305 -0.1320  0.9150 -4.2236
   27RES    O72 7404   4.218   0.131   1.599 -0.0739 -0.2728  0.1240
   27RES    C73 7405   4.141   0.234   1.664 -0.1340 -0.7401 -0.4911
   27RES    C74 7406   4.160   0.226   1.818 -0.7840 -0.5446  0.4748
   27RES    C75 7407   4.305   0.201   1.871  0.8547  0.6968  0.7144
   27RES    O76 7408   4.301   0.211   2.012 -0.1240 -0.5603 -0.7204
   27RES    C77 7409   4.437   0.203   2.073  0.6362  0.2768 -0.3903
   27RES    H78 7410   4.186   0.330   1.637 -0.1581 -0.3741  0.7313
   27RES    H79 7411   4.037   0.240   1.633 -0.2777  0.6237  0.2000
   27RES    H80 7412   4.130   0.323   1.857  0.7964  0.8170 -1.5689
   27RES    H81 7413   4.380   0.264   1.823  1.0596  1.5369  2.0968
   27RES    H82 7414   4.331   0.099   1.841  0.6723  0.4517  1.3617
   27RES    H83 7415   4.495   0.112   2.057 -0.2598 -0.3925  0.0981
   27RES    H84 7416   4.421   0.196   2.181  0.6838 -1.2429 -0.4633
   27RES    H85 7417   4.498   0.284   2.034  0.9779  0.3105  0.2156
   27RES    O86 7418   4.077   0.134   1.883 -0.1577 -0.2723 -0.3498
   27RES    C87 7419   4.077   7.806   1.845 -0.4640 -0.7824 -0.0604
   27RES    C88 7420   3.993   7.726   1.946  0.1413 -1.4157 -0.1572
   27RES    C89 7421   3.966   7.576   1.903 -0.4657 -0.7807 -0.2040
   27RES    O90 7422   3.840   7.533   1.965  0.2183 -0.4595 -0.1363
   27RES    C91 7423   3.840   7.498   2.104 -0.1417  0.6457  0.1628
   27RES    H92 7424   4.047   7.806   1.740 -1.4495  0.9743  0.2046
   27RES    H93 7425   4.176   7.761   1.842 -0.4668 -0.7741 -0.2621
   27RES    H94 7426   3.898   7.779   1.953  0.9424  0.0470 -0.0916
   27RES    H95 7427   3.951   7.575   1.795  0.3707  1.0457 -0.3567
   27RES    H96 7428   4.053   7.515   1.926  1.7116  2.7407  1.3203
   27RES    H97 7429   3.928   7.447   2.143 -1.1147 -0.4293  0.9888
   27RES    H98 7430   3.824   7.584   2.170 -0.8342  0.8804 -0.3043
   27RES    H99 7431   3.753   7.434   2.115 -0.1014  0.3790 -1.0234
   27RES   O100 7432   4.048   7.710   2.073  0.4023 -0.4012 -0.5848
   27RES   C101 7433   4.013   7.809   2.174  0.0765  0.3989  0.4042
   27RES   C102 7434   4.073   7.778   2.314 -0.4304  0.1491  0.9400
   27RES   C103 7435   4.222   7.748   2.298 -1.0169 -0.0452  0.3381
   27RES   O104 7436   4.286   7.758   2.427 -0.4247 -0.3006  0.0886
   27RES   C105 7437   4.307   0.072   2.471 -0.0838 -0.2948 -0.0755
   27RES   H106 7438   3.906   7.817   2.192  0.5053  0.3606  3.2242
   27RES   H107 7439   4.056   0.083   2.132 -2.0408  2.1070  1.8250
   27RES   H108 7440   4.056   0.046   2.380  1.3853  2.2457 -1.1882
   27RES   H109 7441   4.274   7.804   2.219  0.5600 -1.1743  0.5507
   27RES   H110 7442   4.217   7.643   2.270  0.9149 -0.0127 -0.2691
   27RES   H111 7443   4.361   0.130   2.397  0.4294  0.0159  0.5340
   27RES   H112 7444   4.377   0.050   2.552 -0.0406  1.7521  0.4612
   27RES   H113 7445   4.220   0.120   2.515 -0.6634 -1.2339 -0.1704
   27RES   O114 7446   3.999   7.675   2.365  0.3415  0.0942 -0.2553
   27RES   C115 7447   4.024   7.641   2.502  0.2991 -0.5076  0.0987
   27RES   C116 7448   3.941   7.511   2.541 -0.6213  0.1471  0.0461
   27RES   C117 7449   4.026   7.430   2.644 -0.2777  0.7291  0.3083
   27RES   O118 7450   3.958   7.314   2.676  0.3460  0.1765  0.4370
   27RES   C119 7451   4.017   7.227   2.769 -0.9145  0.6076  0.0798
   27RES   H120 7452   4.128   7.627   2.528 -0.0332 -2.3459  0.4813
   27RES   H121 7453   3.989   7.724   2.564  0.7322 -0.7339  0.6471
   27RES   H122 7454   3.943   7.452   2.449 -0.6005  1.4634 -0.8227
   27RES   H123 7455   4.124   7.408   2.602 -0.9697  1.1869 -1.5769
   27RES   H124 7456   4.041   7.484   2.737 -0.9827 -1.8435  1.9835
   27RES   H125 7457   4.124   7.213   2.752 -0.9812 -0.5366  0.5836
   27RES   H126 7458   3.962   7.134   2.756  0.3882 -0.0346 -1.0057
   27RES   H127 7459   3.991   7.262   2.869  1.5331  0.9889  0.6242
   27RES   O128 7460   3.816   7.549   2.600  0.1804  0.3027 -0.2828
   27RES   C129 7461   3.715   7.577   2.505 -0.1028  0.6582 -0.0010
   27RES   C130 7462   3.580   7.563   2.576 -0.2068 -0.3687 -0.1469
   27RES   C131 7463   3.464   7.574   2.472  0.9112 -0.2605  0.9560
   27RES   O132 7464   3.342   7.591   2.539 -0.4741  0.2093  0.4932
   27RES   C133 7465   3.240   7.645   2.450  1.0697 -0.6265  0.9450
   27RES   H134 7466   3.730   7.675   2.460 -2.2207 -0.0868 -2.4427
   27RES   H135 7467   3.715   7.504   2.424 -0.0800  0.0956  0.5042
   27RES   H136 7468   3.557   7.466   2.620  1.5201 -0.3250  0.8845
   27RES   H137 7469   3.470   7.494   2.398  1.0860 -1.3231  2.0987
   27RES   H138 7470   3.483   7.666   2.417 -2.4603  0.1859  0.4506
   27RES   H139 7471   3.273   7.736   2.401 -1.4040  1.4646  3.0018
   27RES   H140 7472   3.211   7.576   2.370  2.1250 -2.2915  1.9636
   27RES   H141 7473   3.151   7.667   2.509  1.9711  1.9677  1.4024
   27RES   O142 7474   3.561   7.673   2.667 -0.9072 -0.5541 -0.2298
   27RES   C143 7475   3.597   7.630   2.797  0.1483 -0.5312 -0.1727
   27RES   C144 7476   3.554   7.738   2.904 -0.4530 -0.0319  0.5050
   27RES   C145 7477   3.402   7.750   2.890 -0.0609 -0.1858 -0.0334
   27RES   O146 7478   3.337   7.792   3.007 -0.2312 -0.3334 -0.4611
   27RES   C147 7479   3.353   0.113   3.030  0.0108  0.1665  0.2227
   27RES   H148 7480   3.554   7.534   2.825 -0.4110  0.0099  0.8546
   27RES   H149 7481   3.705   7.629   2.802  0.1106  0.1472  1.0792
   27RES   H150 7482   3.576   7.703   3.005  1.0942  1.9326  0.8900
   27RES   H151 7483   3.361   7.649   2.888 -0.4970 -0.0158  0.4028
   27RES   H152 7484   3.363   7.796   2.800  0.1739  2.4911  1.1673
   27RES   H153 7485   3.378   0.164   2.937 -0.5029  0.6877  0.3679
   27RES   H154 7486   3.423   0.133   3.111 -0.1858 -2.3879  1.0630
   27RES   H155 7487   3.261   0.153   3.074  0.1059  1.4578 -0.7276
   27RES   O156 7488   3.621   0.047   2.885 -0.3910 -0.0503 -0.6343
   27RES   C157 7489   3.753   0.052   2.942  0.4875 -0.3108  0.6621
   27RES   C158 7490   3.852   0.110   2.842  0.2625 -0.0375 -0.2398
   27RES   C159 7491   4.004   0.097   2.890  0.6321 -0.3398 -0.3675
   27RES   O160 7492   4.082   0.093   2.774  0.2806  0.2015  0.3180
   27RES   C161 7493   4.217   0.092   2.819  0.0919  0.1610 -0.0447
   27RES   H162 7494   3.744   0.116   3.030 -1.1164 -0.1306  0.3868
   27RES   H163 7495   3.791   7.768   2.958  1.3631 -0.3338 -1.4516
   27RES   H164 7496   3.849   0.050   2.751 -1.6879  2.6577 -2.0124
   27RES   H165 7497   4.024   0.186   2.949 -1.2250 -0.3349  0.3075
   27RES   H166 7498   4.018   0.011   2.955  2.8462 -0.5261 -1.0599
   27RES   H167 7499   4.237   0.044   2.914  0.8848 -1.4273 -0.9941
   27RES   H168 7500   4.246   0.197   2.825 -1.5556  0.5294  1.5592
   27RES   H169 7501   4.280   0.035   2.750 -1.9371 -0.8736 -1.0769
   27RES   O170 7502   3.811   0.248   2.815 -0.8727 -0.3097 -0.1300
   27RES   C171 7503   3.895   0.320   2.727 -0.5416 -0.0154  0.1750
   27RES   C172 7504   3.892   0.260   2.573  0.0795 -0.0234  0.0060
   27RES   C173 7505   3.986   0.340   2.482  0.0216 -0.4073 -0.2350
   27RES   O174 7506   4.014   0.289   2.356 -0.3548  0.4424 -0.0079
   27RES   C175 7507   4.100   0.363   2.265 -0.9065  0.4832 -0.1158
   27RES   H176 7508   3.990   0.322   2.780  0.2557  2.4673 -1.2951
   27RES   H177 7509   3.870   0.425   2.739 -2.1346 -0.1732 -1.4843
   27RES   H178 7510   3.927   0.157   2.560  1.0072  0.1920  0.7034
   27RES   H179 7511   3.951   0.443   2.482 -0.0675 -0.4140  1.9623
   27RES   H180 7512   4.081   0.350   2.536 -0.1327  0.0081 -0.0421
   27RES   H181 7513   4.204   0.388   2.284 -0.7776 -2.5913  3.7718
   27RES   H182 7514   4.059   0.462   2.241 -1.8904  0.5985  1.9140
   27RES   H183 7515   4.121   0.300   2.178  2.7730 -1.2059  1.8918
   27RES   O184 7516   3.761   0.279   2.521  0.3099  0.0746  0.2664
   27RES   C185 7517   3.669   0.174   2.551 -0.9987 -0.5591 -0.5886
   27RES   C186 7518   3.537   0.189   2.488 -0.5159 -0.2892 -0.4638
   27RES   C187 7519   3.420   0.147   2.581  0.3453 -1.1869  0.9977
   27RES   O188 7520   3.293   0.183   2.536  0.1721  0.1131  0.1161
   27RES   C189 7521   3.199   0.210   2.639  0.4757 -0.6220  0.2735
   27RES   H190 7522   3.664   0.182   2.659 -4.2261  1.6558 -0.8194
   27RES   H191 7523   3.710   0.079   2.517  3.7495  0.7268  1.2683
   27RES   H192 7524   3.517   0.294   2.466 -2.4012 -0.7068 -0.8856
   27RES   H193 7525   3.429   0.203   2.674 -1.2399  0.7994 -0.0006
   27RES   H194 7526   3.427   0.040   2.597 -0.5189 -1.5926 -1.1418
   27RES   H195 7527   3.118   0.265   2.592  2.8145  2.0423 -0.7499
   27RES   H196 7528   3.164   0.118   2.687 -1.2929 -0.5706 -0.8783
   27RES   H197 7529   3.235   0.276   2.718 -1.3905  2.2999 -1.2192
   27RES   O198 7530   3.540   0.108   2.367  0.4003 -0.2822  0.0078
   27RES   C199 7531   3.444   0.140   2.263 -0.2005  0.0717  0.3603
   27RES   C200 7532   3.508   0.097   2.136 -0.9813  0.1877  0.4305
   27RES   C201 7533   3.505   7.765   2.124  0.7871  0.4095 -0.0542
   27RES   O202 7534   3.379   7.719   2.101  0.4514  0.2121 -0.2124
   27RES   C203 7535   3.374   7.580   2.083  0.5219  0.0181  0.1178
   27RES   H204 7536   3.418   0.244   2.245 -0.1639 -0.4870 -3.2351
   27RES   H205 7537   3.349   0.095   2.291 -1.1157  1.5846 -0.2071
   27RES   H206 7538   3.439   0.135   2.061  0.8118  2.8107  0.0249
   27RES   H207 7539   3.568   7.736   2.040 -2.5270 -2.5711 -1.6715
   27RES   H208 7540   3.551   7.722   2.212  1.2593 -0.9655 -0.9519
   27RES   H209 7541   3.421   7.528   2.166 -0.4923  0.2295  0.8428
   27RES   H210 7542   3.412   7.539   1.990  0.4275 -0.0438  0.1061
   27RES   H211 7543   3.267   7.556   2.085  0.0017  2.1795 -0.5990
   27RES   O212 7544   3.631   0.155   2.096  0.4308 -0.2352 -0.2504
   27RES   C213 7545   3.623   0.295   2.107 -0.4554 -0.6187  0.2444
   27RES   C214 7546   3.746   0.352   2.036 -0.6627 -0.4148  0.0703
   27RES   C215 7547   3.804   0.470   2.125  0.2152 -0.5152  0.0441
   27RES   O216 7548   3.710   0.567   2.172  0.4573 -0.0940  0.0156
   27RES   C217 7549   3.768   0.659   2.259 -0.0909 -0.3367  0.6542
   27RES   H218 7550   3.625   0.322   2.212 -0.2861 -0.7897  0.2855
   27RES   H219 7551   3.532   0.330   2.058 -0.3758 -1.7202 -0.7307
   27RES   H220 7552   3.826   0.278   2.035  0.9405  1.2866 -1.2092
   27RES   H221 7553   3.842   0.427   2.218  0.6230 -0.3976 -0.0693
   27RES   H222 7554   3.885   0.515   2.067 -0.0101  2.0104  1.6258
   27RES   H223 7555   3.748   0.620   2.359 -1.3508 -2.1527 -0.2612
   27RES   H224 7556   3.717   0.755   2.253  1.2500  0.3753  0.6891
   27RES   H225 7557   3.870   0.679   2.226 -0.7107  1.5614 -0.1607
   27RES   O226 7558   3.705   0.379   1.903 -0.4937 -0.2421  0.1440
   27RES   C227 7559   3.814   0.398   1.813 -0.3937  0.5250  0.2676
   27RES   C228 7560   3.754   0.383   1.671 -0.0125 -0.1002 -0.0214
   27RES   C229 7561   3.838   0.453   1.561  0.0736  0.5223  0.0443
   27RES   O230 7562   3.750   0.474   1.451  0.2079 -0.0141  0.0753
   27RES   C231 7563   3.818   0.537   1.350  0.3652 -0.3663 -0.3209
   27RES   H232 7564   3.892   0.324   1.829 -2.7814 -1.9388  0.7973
   27RES   H233 7565   3.847   0.501   1.823  0.2814  0.2651  0.7152
   27RES   H234 7566   3.650   0.416   1.664  0.5062  1.8057  0.7530
   27RES   H235 7567   3.921   0.388   1.532  0.9146  2.0068 -0.9211
   27RES   H236 7568   3.884   0.548   1.589  2.0852 -0.9726  2.0263
   27RES   H237 7569   3.754   0.577   1.272 -1.5896 -1.1317  0.8553
   27RES   H238 7570   3.899   0.481   1.303  0.7350 -1.0561  1.0948
   27RES   H239 7571   3.857   0.630   1.391  1.0078 -1.2965  1.2333
   27RES   O240 7572   3.761   0.242   1.629 -0.1050 -0.5552 -0.0696
   27RES   C241 7573   3.682   0.161   1.715 -0.7184 -0.6214  0.1533
   27RES   C242 7574   3.693   0.015   1.655 -0.0956 -0.2299  0.1610
   27RES   C243 7575   3.647   7.723   1.752 -0.7112  1.3593 -0.1833
   27RES   O244 7576   3.655   7.603   1.678  0.6789  0.1129 -0.4432
   27RES   C245 7577   3.583   7.496   1.739 -0.2004 -0.2708 -0.0807
   27RES   H246 7578   3.577   0.188   1.725 -0.8836 -1.7463  1.5562
   27RES   H247 7579   3.723   0.151   1.816  1.3082 -2.2847 -0.7977
   27RES   H248 7580   3.798   0.008   1.626  0.1424 -0.6655  1.1147
   27RES   H249 7581   3.711   7.714   1.840  0.4707  1.4753 -1.0150
   27RES   H250 7582   3.552   7.737   1.803 -0.5507  2.5711 -0.2038
   27RES   H251 7583   3.479   7.528   1.729 -0.0687  0.9097  1.9803
   27RES   H252 7584   3.605   7.490   1.845  1.3312 -0.2030 -0.3939
   27RES   H253 7585   3.611   7.406   1.685 -2.3383 -2.1838  1.8706
   27RES   O254 7586   3.592   0.010   1.551  0.2297  0.2996  0.1332
   27RES   C255 7587   3.650   7.781   1.433 -0.1956 -0.3358  0.1549
   27RES   C256 7588   3.539   7.793   1.320 -0.1414 -0.4564 -0.0368
   27RES   C257 7589   3.401   7.738   1.366 -0.3630 -0.5566 -0.0248
   27RES   O258 7590   3.405   7.595   1.356 -0.2661 -0.4431  0.2119
   27RES   C259 7591   3.277   7.545   1.346  0.1370  0.0636 -0.9040
   27RES   H260 7592   3.735   0.025   1.403 -1.6121  0.7335 -1.8111
   27RES   H261 7593   3.679   7.677   1.453  1.6756 -0.1804 -1.5118
   27RES   H262 7594   3.577   7.727   1.242  0.3937 -0.3207  0.1088
   27RES   H263 7595   3.369   7.755   1.469  1.2393  3.3730 -0.0931
   27RES   H264 7596   3.329   7.783   1.298 -0.9038 -3.6662 -1.5787
   27RES   H265 7597   3.238   7.579   1.251 -1.2718 -1.2294 -0.8128
   27RES   H266 7598   3.211   7.570   1.430  0.8338 -0.5727 -0.1577
   27RES   H267 7599   3.283   7.436   1.352 -0.6199  0.1688  3.1442
   27RES   O268 7600   3.542   0.105   1.264 -0.0922  0.1568  0.0721
   27RES   C269 7601   3.486   0.215   1.342 -0.0724  0.1169  0.2335
   27RES   C270 7602   3.487   0.338   1.247 -0.3180  0.3611 -0.0591
   27RES   C271 7603   3.434   0.465   1.318 -0.2226  0.7065  0.9584
   27RES   O272 7604   3.396   0.565   1.225  0.4357 -0.1021  0.3446
   27RES   C273 7605   3.414   0.694   1.278 -0.5128 -0.4264 -0.2441
   27RES   H274 7606   3.546   0.238   1.430  1.1354 -2.3290  0.0799
   27RES   H275 7607   3.382   0.197   1.369  0.4538 -2.7549  0.4857
   27RES   H276 7608   3.588   0.355   1.211  0.1535  0.1588  1.1285
   27RES   H277 7609   3.508   0.506   1.386 -0.9397  1.7195  1.1378
   27RES   H278 7610   3.339   0.454   1.370  0.5794  0.1267  2.3159
   27RES   H279 7611   3.355   0.776   1.237 -0.5414 -0.6814 -0.7130
   27RES   H280 7612   3.520   0.716   1.284 -0.4859 -0.4985 -0.4595
   27RES   H281 7613   3.390   0.702   1.384 -0.1817  4.0545 -0.4120
   27RES   H282 7614   3.437   0.316   1.153 -1.1068 -0.8632  0.6195
   28RES     O1 7615   0.225   6.701   5.706  0.4242 -0.0485 -0.2957
   28RES     C2 7616   0.187   6.823   5.649  0.3574  0.0468  0.1526
   28RES     C3 7617   0.142   6.793   5.505  0.2030  0.0906 -0.0008
   28RES     C4 7618   0.089   6.917   5.442 -0.0498  0.2253 -0.0510
   28RES     O5 7619   7.797   6.874   5.363  0.3964  0.7775  0.4441
   28RES     C6 7620   7.709   6.975   5.330 -0.0704 -0.3122  0.8674
   28RES     H7 7621   0.115   6.880   5.707  0.3727  0.3717 -0.1489
   28RES     H8 7622   0.270   6.893   5.640  1.1580 -0.5886  2.2360
   28RES     H9 7623   0.060   6.722   5.512 -0.0029  0.2806 -0.4572
   28RES    H10 7624   0.154   6.974   5.375 -0.2096  1.4273  0.7975
   28RES    H11 7625   0.051   7.000   5.502  1.1074  1.1428 -0.5711
   28RES    H12 7626   7.775   7.043   5.276 -0.4391  0.2117  1.0795
   28RES    H13 7627   7.648   6.921   5.257  1.5061 -1.4335  0.3411
   28RES    H14 7628   7.654   7.030   5.406 -3.0370 -2.5047  0.4253
   28RES    H15 7629   0.285   6.654   5.650 -0.6887 -1.6618 -0.1741
   28RES    O16 7630   0.260   6.742   5.435  0.1550  0.1032  0.4513
   28RES    C17 7631   0.238   6.659   5.316 -0.0785  0.3350 -0.3019
   28RES    C18 7632   0.364   6.608   5.254 -0.0717 -0.0570 -0.4090
   28RES    C19 7633   0.344   6.502   5.144 -0.3925 -0.5604  0.2482
   28RES    O20 7634   0.476   6.460   5.101 -0.2456  0.0681 -0.2999
   28RES    C21 7635   0.476   6.379   4.984  0.7799  0.1045  0.5900
   28RES    H22 7636   0.187   6.724   5.243  0.1766  0.6890 -0.1666
   28RES    H23 7637   0.177   6.576   5.351  1.0088  0.8941  3.0357
   28RES    H24 7638   0.429   6.567   5.330  0.0464  2.2899  0.8172
   28RES    H25 7639   0.290   6.420   5.190 -0.3570 -0.4422  0.4995
   28RES    H26 7640   0.276   6.543   5.070 -0.2824  0.9150  0.9569
   28RES    H27 7641   0.398   6.413   4.917  1.8628 -0.2744 -0.8881
   28RES    H28 7642   0.469   6.273   5.005 -1.7671  0.1491  0.0978
   28RES    H29 7643   0.570   6.397   4.932  0.6434 -1.7192 -0.3178
   28RES    O30 7644   0.427   6.708   5.186  0.2054 -0.6481 -0.9199
   28RES    C31 7645   0.567   6.724   5.206  0.1429 -0.0270 -0.5029
   28RES    C32 7646   0.604   6.793   5.344  0.0415  0.0958 -0.0216
   28RES    C33 7647   0.737   6.862   5.342  0.8235  0.0641  0.0246
   28RES    O34 7648   0.839   6.774   5.314 -0.9299  0.3173  0.3107
   28RES    C35 7649   0.952   6.851   5.284 -0.6397  0.4957 -0.4483
   28RES    H36 7650   0.627   6.637   5.179  0.4752 -0.2630  0.9628
   28RES    H37 7651   0.615   6.794   5.137  0.7834 -1.2139 -1.2690
   28RES    H38 7652   0.522   6.863   5.364 -2.1382 -2.6213  0.8755
   28RES    H39 7653   0.756   6.919   5.433 -1.1207 -0.3045  0.6799
   28RES    H40 7654   0.730   6.934   5.261 -0.6020  0.8881  0.8696
   28RES    H41 7655   0.929   6.906   5.193 -1.5206  0.0419 -0.5121
   28RES    H42 7656   1.038   6.788   5.261 -1.0523 -0.2418 -0.0120
   28RES    H43 7657   0.977   6.924   5.360 -1.4337 -1.0565  1.3490
   28RES    O44 7658   0.598   6.698   5.450 -0.6211 -0.2542 -0.5429
   28RES    C45 7659   0.595   6.757   5.580  0.0962  0.1178  1.0989
   28RES    C46 7660   0.576   6.644   5.677  0.7283  0.1988 -0.6546
   28RES    C47 7661   0.558   6.697   5.826 -0.5241 -0.1555  0.6259
   28RES    O48 7662   0.553   6.588   5.917  0.3504  0.1272 -1.2664
   28RES    C49 7663   0.574   6.619   6.054  0.6319 -0.0870 -0.8536
   28RES    H50 7664   0.507   6.821   5.581  0.0380  0.2537 -2.7888
   28RES    H51 7665   0.692   6.800   5.605  1.1316 -1.4220 -0.1698
   28RES    H52 7666   0.658   6.573   5.680 -1.1735 -1.9556  1.3163
   28RES    H53 7667   0.653   6.744   5.851  0.3398 -0.3349 -2.1597
   28RES    H54 7668   0.481   6.775   5.832  0.4410  0.7924  0.8663
   28RES    H55 7669   0.665   6.680   6.063  0.3819 -0.2966  4.3739
   28RES    H56 7670   0.584   6.524   6.107  0.5812  1.4915  2.1124
   28RES    H57 7671   0.480   6.667   6.079  1.7749  1.6144  0.3314
   28RES    O58 7672   0.448   6.578   5.645  0.3504 -0.3918 -0.6095
   28RES    C59 7673   0.458   6.434   5.649 -0.3855 -0.4681  0.1069
   28RES    C60 7674   0.320   6.373   5.674  0.1023  0.2132 -0.1084
   28RES    C61 7675   0.279   6.382   5.821  0.3274  0.9422 -0.2047
   28RES    O62 7676   0.152   6.321   5.847 -0.0067  0.3219 -0.2602
   28RES    C63 7677   0.113   6.303   5.987  0.5262 -0.0931  0.1108
   28RES    H64 7678   0.531   6.391   5.718 -0.7058 -2.3949 -0.7382
   28RES    H65 7679   0.496   6.393   5.556  0.5516 -2.6580  1.4114
   28RES    H66 7680   0.239   6.421   5.620  0.0150  0.3017  0.1002
   28RES    H67 7681   0.349   6.325   5.882 -0.8087  1.4340  1.5887
   28RES    H68 7682   0.290   6.486   5.853  0.7660  1.0437 -0.6785
   28RES    H69 7683   0.011   6.267   5.979  0.7444 -1.0562  1.5226
   28RES    H70 7684   0.101   6.399   6.038  0.4141 -0.3804  0.6221
   28RES    H71 7685   0.176   6.241   6.051  1.0833  0.8862  0.5234
   28RES    O72 7686   0.331   6.235   5.645 -0.2899  0.1976  0.2353
   28RES    C73 7687   0.219   6.158   5.602  0.1055  0.2918  0.0477
   28RES    C74 7688   0.206   6.147   5.449 -0.2581 -0.1853  0.8794
   28RES    C75 7689   0.337   6.108   5.374 -0.3387  0.9622  0.1062
   28RES    O76 7690   0.308   6.092   5.234 -0.5764 -0.1915 -0.4678
   28RES    C77 7691   0.411   6.026   5.167  0.3461  0.3023 -0.1710
   28RES    H78 7692   0.224   6.056   5.641  0.4109  0.0673 -0.5760
   28RES    H79 7693   0.124   6.194   5.643 -0.6186 -2.9765  1.3746
   28RES    H80 7694   0.134   6.070   5.421 -0.4391  0.1644  0.3773
   28RES    H81 7695   0.393   6.021   5.407 -1.2204  0.2983 -0.1297
   28RES    H82 7696   0.407   6.189   5.394 -0.2119  0.9951 -0.4712
   28RES    H83 7697   0.424   5.924   5.202 -1.9826  0.5275  1.4580
   28RES    H84 7698   0.508   6.074   5.184  0.8495 -0.8474  0.2389
   28RES    H85 7699   0.394   6.029   5.060  2.7217  1.2915 -0.5561
   28RES    O86 7700   0.170   6.285   5.421 -0.1869  0.4614  0.3722
   28RES    C87 7701   0.076   6.303   5.325  0.3068  0.0547  0.9051
   28RES    C88 7702   7.757   6.294   5.381  0.5685  0.1436  0.5507
   28RES    C89 7703   7.722   6.422   5.457  0.1696  0.2015  0.0838
   28RES    O90 7704   7.620   6.396   5.557  0.1181  0.0544  0.1088
   28RES    C91 7705   7.641   6.448   5.684  0.5095 -0.5559 -0.4384
   28RES    H92 7706   0.085   6.392   5.263  2.4681 -0.7592  0.0090
   28RES    H93 7707   0.096   6.236   5.241  2.8792 -0.4343  1.8707
   28RES    H94 7708   7.738   6.211   5.448 -0.7342  0.8460  1.0817
   28RES    H95 7709   7.815   6.458   5.503  1.4359 -0.1470 -2.1556
   28RES    H96 7710   7.687   6.500   5.391 -1.5776  0.3071  1.1051
   28RES    H97 7711   7.565   6.413   5.754  0.6254  1.1604  0.5895
   28RES    H98 7712   7.733   6.407   5.727  1.0637  0.5984 -0.4926
   28RES    H99 7713   7.634   6.557   5.685  2.2368 -0.4208 -1.8373
   28RES   O100 7714   7.669   6.290   5.272 -0.2301 -0.4030  0.2055
   28RES   C101 7715   7.527   6.260   5.299 -0.1899 -0.3690  0.1439
   28RES   C102 7716   7.479   6.161   5.193  0.0882 -0.1006 -0.1497
   28RES   C103 7717   7.328   6.144   5.186 -0.0435 -0.3510  0.1762
   28RES   O104 7718   7.278   6.115   5.057  0.2369 -0.2740 -0.6539
   28RES   C105 7719   7.301   5.986   5.011  0.0854  0.3893 -0.2723
   28RES   H106 7720   7.478   6.354   5.274 -1.9915 -1.5025 -0.6753
   28RES   H107 7721   7.500   6.224   5.399 -2.0720  0.5034 -0.0376
   28RES   H108 7722   7.518   6.200   5.099 -0.6239  0.0020 -0.4051
   28RES   H109 7723   7.292   6.241   5.217 -0.7568 -0.1640 -1.1810
   28RES   H110 7724   7.295   6.070   5.259 -0.3021 -1.2803 -0.8521
   28RES   H111 7725   7.403   5.962   4.983  0.9038  3.1910  0.1656
   28RES   H112 7726   7.238   5.963   4.925  0.2062 -1.9881  0.2652
   28RES   H113 7727   7.289   5.909   5.087  2.3454  0.8997  0.6471
   28RES   O114 7728   7.535   6.039   5.218 -0.2711  0.5435  0.1300
   28RES   C115 7729   7.656   6.000   5.152 -0.2519 -0.2628  0.3568
   28RES   C116 7730   7.741   5.897   5.228 -0.1773  0.0811  0.2137
   28RES   C117 7731   0.054   5.865   5.151  0.5583 -0.2679  0.0263
   28RES   O118 7732   0.089   5.723   5.153  0.1043  0.3699 -0.2117
   28RES   C119 7733   0.048   5.660   5.031 -0.6311 -0.1897 -0.5322
   28RES   H120 7734   7.621   5.955   5.059  0.9955  0.1709 -0.3408
   28RES   H121 7735   7.724   6.078   5.118  0.8611 -0.9099  1.0246
   28RES   H122 7736   7.670   5.815   5.236  0.7191 -0.6017  1.3492
   28RES   H123 7737   0.037   5.893   5.047 -2.3021 -2.1795 -0.0836
   28RES   H124 7738   0.134   5.916   5.204 -0.3007  1.0226  0.1042
   28RES   H125 7739   0.073   5.554   5.025 -1.6580 -0.4000 -1.2402
   28RES   H126 7740   0.101   5.708   4.948 -0.9331  0.0808 -0.5676
   28RES   H127 7741   7.757   5.668   5.019 -0.4526  0.9951 -1.3973
   28RES   O128 7742   7.766   5.935   5.365 -0.2515 -0.2623  0.2792
   28RES   C129 7743   7.793   5.826   5.453 -0.1529 -0.1145  0.8094
   28RES   C130 7744   7.768   5.884   5.593  0.0863  0.3058  0.3188
   28RES   C131 7745   0.021   5.805   5.702 -0.2949  0.8406 -0.4453
   28RES   O132 7746   0.005   5.877   5.825  0.6087  0.3560 -0.1107
   28RES   C133 7747   0.095   5.836   5.929  0.0622 -0.1578  0.5758
   28RES   H134 7748   7.715   5.751   5.441 -0.1829  0.0933 -0.3646
   28RES   H135 7749   0.076   5.783   5.442  0.0876  0.7020 -0.3393
   28RES   H136 7750   7.794   5.990   5.598 -2.1383  0.9052 -0.3138
   28RES   H137 7751   0.127   5.787   5.682  0.1977  0.4574  2.3331
   28RES   H138 7752   7.796   5.708   5.726  1.1817  0.3717  0.3479
   28RES   H139 7753   0.070   5.890   6.021 -1.1114 -0.0898  0.2224
   28RES   H140 7754   0.067   5.733   5.952 -0.9681 -0.6551 -2.7220
   28RES   H141 7755   0.198   5.848   5.897 -0.3059  0.7932 -0.2864
   28RES   O142 7756   7.631   5.879   5.629  0.1228  0.3699  0.1573
   28RES   C143 7757   7.561   6.001   5.588  0.2518 -0.1209 -0.0663
   28RES   C144 7758   7.419   5.973   5.639  0.9470  1.4330  0.1281
   28RES   C145 7759   7.301   6.058   5.588 -0.2009  0.0072  0.3075
   28RES   O146 7760   7.174   6.042   5.640 -0.5156  0.7605  0.2985
   28RES   C147 7761   7.067   6.082   5.562 -0.3433 -0.2925  0.0560
   28RES   H148 7762   7.603   6.091   5.633 -0.1754  0.2119 -0.3355
   28RES   H149 7763   7.554   5.999   5.480 -0.3456 -3.2361 -0.0170
   28RES   H150 7764   7.395   5.867   5.625  0.2210  1.6777 -0.4851
   28RES   H151 7765   7.294   6.043   5.480 -0.2752 -3.5493  0.7551
   28RES   H152 7766   7.322   6.165   5.597 -1.2579  0.3885 -1.4197
   28RES   H153 7767   7.039   6.187   5.563 -0.0492 -0.2080 -0.7333
   28RES   H154 7768   6.978   6.024   5.590  1.1803 -3.0450 -0.6195
   28RES   H155 7769   7.087   6.053   5.459 -0.8790  0.2053 -0.1906
   28RES   O156 7770   7.424   6.008   5.779  0.0145 -0.3237  0.3529
   28RES   C157 7771   7.443   5.894   5.864 -0.3479 -0.1166 -0.0823
   28RES   C158 7772   7.436   5.952   6.005 -0.1107  1.0456 -0.3087
   28RES   C159 7773   7.572   5.979   6.057 -0.1641  0.2736  0.3691
   28RES   O160 7774   7.551   6.077   6.159  0.7999 -0.4156  0.4322
   28RES   C161 7775   7.670   6.116   6.232 -0.5579 -0.4930 -0.6269
   28RES   H162 7776   7.364   5.821   5.845 -0.9561  0.3848  0.5122
   28RES   H163 7777   7.533   5.838   5.839 -0.8484 -0.2892 -1.5490
   28RES   H164 7778   7.376   6.043   6.006  1.0800  1.8657 -1.7371
   28RES   H165 7779   7.620   5.887   6.092  0.9799  0.4597 -0.7177
   28RES   H166 7780   7.636   6.027   5.984 -0.1755  1.1327  0.9142
   28RES   H167 7781   7.736   6.168   6.162 -3.0735 -1.0785 -3.5356
   28RES   H168 7782   7.722   6.032   6.278  0.2723  0.2097 -0.2660
   28RES   H169 7783   7.628   6.172   6.315 -1.9274 -2.0605 -0.2309
   28RES   O170 7784   7.379   5.858   6.089  0.4580 -0.2140 -0.4697
   28RES   C171 7785   7.240   5.855   6.092 -0.6897 -0.0679  0.0249
   28RES   C172 7786   7.192   5.741   6.185 -0.2157 -0.0723  0.2047
   28RES   C173 7787   7.248   5.604   6.143  0.1482  0.3960  0.3009
   28RES   O174 7788   7.229   5.511   6.250 -0.0599  0.1254  0.1614
   28RES   C175 7789   7.298   5.390   6.227  0.8815 -0.2938 -0.3948
   28RES   H176 7790   7.197   5.843   5.993  1.4084 -1.3031 -0.7594
   28RES   H177 7791   7.196   5.946   6.133  0.6305  0.1605  0.9672
   28RES   H178 7792   7.230   5.776   6.281 -0.6024  0.9941 -0.0301
   28RES   H179 7793   7.193   5.578   6.052  1.6724  1.3359 -0.9009
   28RES   H180 7794   7.350   5.611   6.106  0.3949  2.1023  1.2389
   28RES   H181 7795   7.240   5.326   6.162  0.8967  1.0055 -1.7092
   28RES   H182 7796   7.318   5.333   6.318  1.2998  1.7768  0.8449
   28RES   H183 7797   7.397   5.413   6.187  1.4171  1.9193  2.0093
   28RES   O184 7798   7.048   5.751   6.182 -0.2824  0.2221 -0.6815
   28RES   C185 7799   6.988   5.707   6.304  0.8044  0.3416 -0.1175
   28RES   C186 7800   6.837   5.714   6.287 -1.2422 -0.0474  0.1760
   28RES   C187 7801   6.767   5.738   6.419  0.5887  0.1334  0.3703
   28RES   O188 7802   6.632   5.779   6.397  0.5969  0.6581 -0.3052
   28RES   C189 7803   6.537   5.772   6.501 -0.3501 -0.5884 -0.4647
   28RES   H190 7804   7.022   5.778   6.380 -0.4225  1.6115 -0.7170
   28RES   H191 7805   7.017   5.606   6.333 -0.3123  0.5907  2.0410
   28RES   H192 7806   6.823   5.804   6.227  0.9462 -0.2453 -0.6961
   28RES   H193 7807   6.812   5.817   6.479 -0.5843  1.6324 -0.7094
   28RES   H194 7808   6.763   5.643   6.473 -1.8769 -0.0808 -0.1427
   28RES   H195 7809   6.536   5.855   6.571  0.7519 -0.2755 -0.8181
   28RES   H196 7810   6.434   5.757   6.470 -0.5417  0.3577 -0.2852
   28RES   H197 7811   6.562   5.686   6.564 -1.7564 -0.6818 -0.0147
   28RES   O198 7812   6.771   5.600   6.229  0.1793 -0.3646 -0.5262
   28RES   C199 7813   6.794   5.579   6.094 -1.3811 -0.2438  0.0322
   28RES   C200 7814   6.656   5.534   6.039 -0.9136 -0.3814 -0.1580
   28RES   C201 7815   6.681   5.436   5.920  0.3194  0.8632 -0.0801
   28RES   O202 7816   6.563   5.372   5.879 -0.4315 -0.3481  0.0104
   28RES   C203 7817   6.511   5.278   5.964 -0.4099  0.6705 -0.2513
   28RES   H204 7818   6.867   5.498   6.088  0.1070  1.1453 -0.8370
   28RES   H205 7819   6.822   5.664   6.032 -0.0667 -0.8940 -0.2749
   28RES   H206 7820   6.603   5.486   6.122 -1.0108 -1.7622 -1.0117
   28RES   H207 7821   6.714   5.485   5.829 -1.7578 -0.9135 -1.8520
   28RES   H208 7822   6.746   5.359   5.960  0.6675  0.8523 -0.6641
   28RES   H209 7823   6.411   5.252   5.930 -0.5217  0.5713  0.1495
   28RES   H210 7824   6.500   5.327   6.061  1.0159 -0.5663  0.5587
   28RES   H211 7825   6.575   5.190   5.977 -0.2052  0.9119  0.3990
   28RES   O212 7826   6.571   5.636   5.982  0.9034 -0.5149  0.6373
   28RES   C213 7827   6.538   5.746   6.065  0.3015  0.1826  0.3029
   28RES   C214 7828   6.429   5.847   6.008 -0.5746 -0.0731  0.4464
   28RES   C215 7829   6.446   5.976   6.081 -0.0041  0.6013  0.4687
   28RES   O216 7830   6.365   6.082   6.037  0.4149  0.0553  0.7934
   28RES   C217 7831   6.395   6.192   6.120  0.0133 -0.0848 -0.7051
   28RES   H218 7832   6.631   5.797   6.088  0.0488  0.8653 -0.1673
   28RES   H219 7833   6.509   5.705   6.162  0.4173 -0.0795  0.2257
   28RES   H220 7834   6.460   5.858   5.904  0.1245 -1.0185  0.5495
   28RES   H221 7835   6.428   5.942   6.183 -1.5735  0.1065  0.0376
   28RES   H222 7836   6.553   5.998   6.074 -0.0763  0.6547 -0.5332
   28RES   H223 7837   6.410   6.179   6.228  0.9569  1.4826 -0.6196
   28RES   H224 7838   6.314   6.263   6.104 -0.2000 -0.5434 -1.6560
   28RES   H225 7839   6.477   6.249   6.076  1.5317  0.7178  2.9148
   28RES   O226 7840   6.294   5.797   6.037 -0.3230  0.0752  0.6576
   28RES   C227 7841   6.257   5.680   5.974 -0.0589  0.2087  0.3151
   28RES   C228 7842   6.188   5.709   5.843  0.4415  0.0573 -0.1610
   28RES   C229 7843   6.110   5.841   5.841  0.0746  0.5285 -0.1247
   28RES   O230 7844   6.010   5.851   5.748  0.2532 -0.3015  0.4582
   28RES   C231 7845   5.882   5.870   5.801  0.0735  0.9696 -0.7986
   28RES   H232 7846   6.197   5.635   6.054  2.9631 -2.1182  1.3670
   28RES   H233 7847   6.340   5.610   5.969  2.0790  2.7121 -0.0249
   28RES   H234 7848   6.111   5.636   5.819  0.4818 -1.2503  3.3516
   28RES   H235 7849   6.172   5.927   5.814  1.1515  0.4648  2.0353
   28RES   H236 7850   6.084   5.869   5.943  0.0148 -0.7683  0.2208
   28RES   H237 7851   5.848   5.973   5.796 -4.4630 -0.3471  0.7391
   28RES   H238 7852   5.864   5.826   5.899 -2.9346  0.6530 -1.4425
   28RES   H239 7853   5.815   5.811   5.738 -0.1932  0.6625 -0.2245
   28RES   O240 7854   6.284   5.723   5.748 -0.1810 -0.1871 -0.3723
   28RES   C241 7855   6.315   5.610   5.663 -0.1023 -0.3860 -0.0300
   28RES   C242 7856   6.404   5.639   5.541 -1.0055  0.0175  0.2214
   28RES   C243 7857   6.479   5.514   5.485 -0.2327 -0.2781  0.1104
   28RES   O244 7858   6.594   5.557   5.416 -0.1552 -0.1828 -0.6013
   28RES   C245 7859   6.672   5.456   5.349  0.1984 -0.2201  0.1847
   28RES   H246 7860   6.225   5.552   5.642 -0.0580  0.6487 -3.3964
   28RES   H247 7861   6.378   5.550   5.729  2.0582  0.6768 -1.0744
   28RES   H248 7862   6.476   5.706   5.588  1.0470 -1.8830 -0.1422
   28RES   H249 7863   6.513   5.444   5.561  6.4758  1.6098 -0.7902
   28RES   H250 7864   6.407   5.465   5.419 -0.3673 -0.2838  0.2609
   28RES   H251 7865   6.740   5.506   5.280 -1.4798  1.1580 -0.5283
   28RES   H252 7866   6.605   5.389   5.294 -0.0810  1.5339 -1.7053
   28RES   H253 7867   6.728   5.389   5.414 -1.2304 -1.4839  0.1543
   28RES   O254 7868   6.335   5.700   5.435  0.0181  0.2717  0.3331
   28RES   C255 7869   6.271   5.830   5.452  0.1486 -0.3930 -0.3125
   28RES   C256 7870   6.198   5.875   5.321 -0.2667 -0.6067  0.3544
   28RES   C257 7871   6.106   5.998   5.330  0.0283  0.1374  0.8636
   28RES   O258 7872   6.031   6.012   5.206 -0.2888 -0.4918  0.2213
   28RES   C259 7873   5.927   6.106   5.217 -0.0915 -0.3078  0.6006
   28RES   H260 7874   6.197   5.797   5.525  0.6102 -0.2617  0.2173
   28RES   H261 7875   6.338   5.905   5.494  0.4076  0.0037 -1.4077
   28RES   H262 7876   6.130   5.800   5.281  0.7519 -0.7386 -1.1998
   28RES   H263 7877   6.034   5.983   5.410  0.1967 -0.3711  0.9182
   28RES   H264 7878   6.156   6.095   5.336 -0.4990  0.7382 -2.9927
   28RES   H265 7879   5.890   6.133   5.117  1.3932 -2.8745 -0.6885
   28RES   H266 7880   5.952   6.200   5.267  0.5196  0.4051 -0.9990
   28RES   H267 7881   5.843   6.078   5.281  0.4841 -1.0363  1.0390
   28RES   O268 7882   6.300   5.908   5.230 -0.5330 -0.5239  0.0474
   28RES   C269 7883   6.313   5.816   5.123  0.3284 -0.1728 -0.5031
   28RES   C270 7884   6.388   5.888   5.013  0.2404  0.3820 -0.1346
   28RES   C271 7885   6.435   5.797   4.903  0.2559 -0.6036 -0.6384
   28RES   O272 7886   6.476   5.891   4.809 -0.3694  0.6103  0.0758
   28RES   C273 7887   6.515   5.843   4.686  0.0455 -0.2078 -0.0129
   28RES   H274 7888   6.213   5.786   5.091  0.5640 -1.3741 -0.1128
   28RES   H275 7889   6.365   5.727   5.157 -0.1389 -0.0789  0.4863
   28RES   H276 7890   6.327   5.971   4.976  1.4839 -0.2333 -3.7807
   28RES   H277 7891   6.344   5.749   4.866 -1.6119  0.5118  2.2619
   28RES   H278 7892   6.512   5.726   4.933  1.3275 -0.2438 -2.4849
   28RES   H279 7893   6.447   5.779   4.630 -2.0301  1.3347  0.7014
   28RES   H280 7894   6.598   5.773   4.701 -1.3004 -1.9671 -0.6522
   28RES   H281 7895   6.544   5.927   4.622 -4.3322  1.2600 -0.2124
   28RES   H282 7896   6.465   5.946   5.062  0.0570 -0.6942  1.4527
   29RES     O1 7897   6.135   2.621   6.714  0.3147 -0.0209 -0.3807
   29RES     C2 7898   6.094   2.688   6.833 -0.7137  0.0793 -0.1989
   29RES     C3 7899   6.208   2.786   6.870  0.7765  1.1078 -0.1941
   29RES     C4 7900   6.165   2.857   6.993  0.3026  0.3989 -0.5712
   29RES     O5 7901   6.231   2.984   7.008 -0.0776  0.0860  0.0437
   29RES     C6 7902   6.200   3.058   7.121  0.9234 -0.1274 -0.8119
   29RES     H7 7903   6.000   2.740   6.816 -0.6155 -0.3591 -2.2043
   29RES     H8 7904   6.079   2.617   6.915 -0.8118  1.8429  1.3535
   29RES     H9 7905   6.216   2.856   6.787 -0.2566 -0.3172 -1.5130
   29RES    H10 7906   6.177   2.797   7.084 -1.8692  1.3095  0.3472
   29RES    H11 7907   6.059   2.876   6.982  0.5576  1.3770 -1.3656
   29RES    H12 7908   6.100   3.098   7.109  0.6724  0.3627  2.2955
   29RES    H13 7909   6.196   3.000   7.214 -2.0743 -0.0982 -0.8866
   29RES    H14 7910   6.268   3.142   7.138  0.3535  0.4063 -1.1559
   29RES    H15 7911   6.228   2.608   6.721  0.1570 -1.4909 -0.8558
   29RES    O16 7912   6.320   2.705   6.882  0.4101  0.3428  0.0734
   29RES    C17 7913   6.441   2.773   6.853  0.3063 -0.3132 -0.0008
   29RES    C18 7914   6.553   2.664   6.858 -0.1764  0.0212  0.4621
   29RES    C19 7915   6.684   2.707   6.803 -0.0706  0.5422 -0.0548
   29RES    O20 7916   6.764   2.595   6.779 -0.0801  0.2097  0.1376
   29RES    C21 7917   6.892   2.635   6.729  0.1533 -0.3683 -0.2458
   29RES    H22 7918   6.462   2.858   6.917  0.1611 -1.7347  1.9844
   29RES    H23 7919   6.443   2.814   6.752  1.9657  1.6485  0.8184
   29RES    H24 7920   6.517   2.580   6.799  1.7929  0.7678 -1.8909
   29RES    H25 7921   6.665   2.751   6.706 -0.4654 -2.9065 -1.6358
   29RES    H26 7922   6.716   2.787   6.870 -2.4840 -0.5200  2.4926
   29RES    H27 7923   6.944   2.548   6.691 -0.2203 -0.9184  0.4778
   29RES    H28 7924   6.966   2.677   6.797  1.4232 -4.0019  0.6996
   29RES    H29 7925   6.885   2.716   6.656  0.3436  0.1839  0.3375
   29RES    O30 7926   6.574   2.634   6.993 -0.2713  0.0053  0.1544
   29RES    C31 7927   6.560   2.496   7.025 -0.0785 -0.0939  0.1588
   29RES    C32 7928   6.564   2.470   7.176 -0.3715 -0.1090  0.2603
   29RES    C33 7929   6.578   2.320   7.197 -0.3218 -0.2094 -0.8101
   29RES    O34 7930   6.604   2.291   7.333 -0.3074  0.1233  0.1159
   29RES    C35 7931   6.633   2.150   7.344 -0.2008 -0.2216 -0.0834
   29RES    H36 7932   6.459   2.467   6.994 -0.4928  1.4892 -0.0295
   29RES    H37 7933   6.638   2.450   6.964 -0.3266 -0.9484  0.4706
   29RES    H38 7934   6.647   2.520   7.225 -0.6786  0.3997  0.2593
   29RES    H39 7935   6.664   2.279   7.144  0.4619 -0.6457  0.7480
   29RES    H40 7936   6.491   2.263   7.165 -0.1827 -0.5075 -0.6581
   29RES    H41 7937   6.636   2.111   7.446 -0.4422  1.2418  0.5026
   29RES    H42 7938   6.726   2.117   7.299 -0.8336 -2.8407  0.4573
   29RES    H43 7939   6.555   2.100   7.286  0.4436  0.0797 -1.2240
   29RES    O44 7940   6.439   2.495   7.238  0.0348  0.0626  0.2969
   29RES    C45 7941   6.409   2.629   7.244 -0.5714 -0.5389  0.0480
   29RES    C46 7942   6.298   2.636   7.347 -0.3089 -0.0109 -0.6455
   29RES    C47 7943   6.290   2.771   7.424 -0.3671  0.7530  0.3761
   29RES    O48 7944   6.194   2.773   7.528 -0.6322  0.1117 -0.1312
   29RES    C49 7945   6.172   2.905   7.575  0.9879 -0.1110 -0.0200
   29RES    H50 7946   6.380   2.682   7.153 -1.3186 -0.5741  0.2661
   29RES    H51 7947   6.494   2.685   7.282 -1.3489  1.1588 -0.6436
   29RES    H52 7948   6.302   2.558   7.422  0.9347  0.6312 -0.0252
   29RES    H53 7949   6.383   2.819   7.453  0.0433 -0.1314  0.5357
   29RES    H54 7950   6.256   2.845   7.352 -2.6824  0.5841  1.2329
   29RES    H55 7951   6.267   2.952   7.600  1.8188 -1.9742  0.3961
   29RES    H56 7952   6.105   2.907   7.661 -0.3287 -0.6185 -1.0097
   29RES    H57 7953   6.116   2.963   7.501 -1.1618 -2.5958 -0.4015
   29RES    O58 7954   6.171   2.632   7.275  0.2643 -0.5228  0.5160
   29RES    C59 7955   6.136   2.522   7.189  0.1082 -0.1613  0.3340
   29RES    C60 7956   6.110   2.395   7.263  0.1483  0.0447  0.0610
   29RES    C61 7957   6.074   2.282   7.162  0.6018  0.1631 -0.2516
   29RES    O62 7958   6.075   2.150   7.209 -0.2422  0.0373  0.0070
   29RES    C63 7959   5.949   2.082   7.234 -0.5063 -0.4977 -0.8544
   29RES    H64 7960   6.210   2.499   7.111  0.1053 -0.5097  0.4363
   29RES    H65 7961   6.047   2.560   7.139 -0.0838 -2.0280 -0.8196
   29RES    H66 7962   6.199   2.360   7.316  0.3740  1.3668  0.5958
   29RES    H67 7963   5.984   2.311   7.109  1.6370  2.6066 -0.7785
   29RES    H68 7964   6.154   2.289   7.088  2.7968 -0.2914  2.0161
   29RES    H69 7965   5.865   2.143   7.200 -1.3250 -0.9142  0.3860
   29RES    H70 7966   5.936   2.069   7.341 -2.6585  1.1717 -0.8654
   29RES    H71 7967   5.947   1.981   7.192 -1.1497 -0.0001 -2.0538
   29RES    O72 7968   6.002   2.410   7.344  0.2997 -0.0782 -0.2158
   29RES    C73 7969   6.020   2.375   7.483 -0.3991 -0.1816  0.2778
   29RES    C74 7970   5.893   2.414   7.561  0.3238 -0.2361  0.3387
   29RES    C75 7971   5.900   2.395   7.707 -0.2245 -0.3671 -0.2796
   29RES    O76 7972   5.838   2.505   7.776 -0.4828  0.5092 -0.2186
   29RES    C77 7973   5.845   2.483   0.102 -0.3373 -0.6695 -0.7714
   29RES    H78 7974   6.028   2.267   7.491  1.2742 -0.0822  0.0966
   29RES    H79 7975   6.108   2.422   7.528  0.1150  0.4248 -1.3056
   29RES    H80 7976   5.872   2.517   7.533  0.4975 -0.6683 -1.4112
   29RES    H81 7977   6.004   2.384   7.738  0.1568 -0.7989 -1.6497
   29RES    H82 7978   5.837   2.310   7.735 -0.1054  0.0884  1.3847
   29RES    H83 7979   5.944   2.453   0.136 -0.3152 -1.0178 -1.1303
   29RES    H84 7980   5.778   2.400   0.125  0.2488 -0.7389  0.7282
   29RES    H85 7981   5.808   2.569   0.158 -0.9415 -1.1505 -0.4310
   29RES    O86 7982   5.776   2.338   7.511 -0.8340 -0.0085 -0.3078
   29RES    C87 7983   5.649   2.398   7.546 -0.1774 -0.0282 -0.1411
   29RES    C88 7984   5.550   2.283   7.516  0.2847 -0.0290  0.3695
   29RES    C89 7985   5.444   2.271   7.619 -0.0740  0.2545 -0.3312
   29RES    O90 7986   5.363   2.156   7.606  0.0900  0.4481  0.2379
   29RES    C91 7987   5.242   2.158   7.679 -0.2240  0.3583 -0.4025
   29RES    H92 7988   5.638   2.432   7.649 -2.7639 -0.9459 -0.0779
   29RES    H93 7989   5.640   2.480   7.474 -0.8146  1.0124  1.0901
   29RES    H94 7990   5.602   2.188   7.501 -1.4776 -0.9539 -0.0347
   29RES    H95 7991   5.488   2.275   7.718 -1.3580  0.1188  0.2509
   29RES    H96 7992   5.380   2.359   7.611  1.6776  1.4339 -2.1702
   29RES    H97 7993   5.179   2.071   7.658 -0.1716  0.0914  0.5089
   29RES    H98 7994   5.258   2.180   7.785 -0.0783 -1.6905  0.0303
   29RES    H99 7995   5.188   2.242   7.636  2.5790  2.4929  0.1295
   29RES   O100 7996   5.484   2.310   7.389 -0.0503 -0.2251  0.1025
   29RES   C101 7997   5.540   2.246   7.276 -0.3186  0.3981  0.2735
   29RES   C102 7998   5.489   2.315   7.148 -0.1639  0.4773  0.1475
   29RES   C103 7999   5.548   2.245   7.024  0.3018  0.0994  0.3167
   29RES   O104 8000   5.693   2.226   7.017  0.8908  0.1643 -0.1829
   29RES   C105 8001   5.736   2.098   6.973  0.1093  0.7222 -0.6760
   29RES   H106 8002   5.523   2.139   7.279 -0.7683  0.3929 -2.1395
   29RES   H107 8003   5.646   2.261   7.298 -0.0917 -2.1751  1.1601
   29RES   H108 8004   5.385   2.288   7.164 -0.2406 -0.9482 -2.4420
   29RES   H109 8005   5.514   2.297   6.935  3.2035 -0.0889 -0.9620
   29RES   H110 8006   5.504   2.145   7.025  0.7053 -0.0790  0.0447
   29RES   H111 8007   5.843   2.088   6.985 -0.3482 -2.2104  1.3022
   29RES   H112 8008   5.703   2.070   6.873 -1.0791 -1.2170  0.2283
   29RES   H113 8009   5.695   2.017   7.034  0.9186 -0.2324 -1.4058
   29RES   O114 8010   5.505   2.457   7.147  1.1362 -0.7775 -0.0094
   29RES   C115 8011   5.637   2.496   7.137 -0.1136 -0.0032  0.3369
   29RES   C116 8012   5.636   2.649   7.178  0.6294 -0.4621  0.6279
   29RES   C117 8013   5.778   2.703   7.187 -0.1518 -0.2636  0.3264
   29RES   O118 8014   5.803   2.823   7.263 -0.3536  0.3527  0.2394
   29RES   C119 8015   5.931   2.838   7.307  0.5665 -0.0233 -1.0402
   29RES   H120 8016   5.707   2.450   7.207 -0.5905 -0.9789  0.1734
   29RES   H121 8017   5.680   2.474   7.040 -1.1874 -0.6760 -0.0011
   29RES   H122 8018   5.584   2.653   7.274  0.6600 -0.5849  0.6500
   29RES   H123 8019   5.834   2.622   7.233 -1.2326 -3.1396 -3.1891
   29RES   H124 8020   5.816   2.714   7.085  2.0212  2.0483  1.3343
   29RES   H125 8021   5.938   2.935   7.356  1.0487 -0.7205  0.2986
   29RES   H126 8022   6.002   2.828   7.225  0.7482 -2.1318 -0.6523
   29RES   H127 8023   5.955   2.760   7.379  0.1964 -0.3800 -1.3031
   29RES   O128 8024   5.576   2.728   7.083  0.5302 -0.4355  0.3097
   29RES   C129 8025   5.503   2.832   7.138  0.5633 -0.5594  0.2940
   29RES   C130 8026   5.373   2.854   7.050 -0.0869 -0.2281  0.2307
   29RES   C131 8027   5.297   2.720   7.066 -0.2497  0.0026 -0.3682
   29RES   O132 8028   5.155   2.745   7.042 -0.4213 -0.0059 -0.4741
   29RES   C133 8029   5.074   2.639   7.044 -0.7770  1.1277 -0.3866
   29RES   H134 8030   5.469   2.810   7.239 -1.7271 -0.0642 -0.3419
   29RES   H135 8031   5.554   2.927   7.125 -3.0328  1.2896 -0.7876
   29RES   H136 8032   5.316   2.942   7.078  2.2145  1.4074 -0.0898
   29RES   H137 8033   5.306   2.694   7.172  0.7920  1.2222 -0.1459
   29RES   H138 8034   5.345   2.641   7.008 -0.1552  0.1559 -0.4962
   29RES   H139 8035   5.054   2.607   7.147  1.9789 -1.5078 -0.5855
   29RES   H140 8036   4.980   2.666   6.996  0.0919  0.0447 -2.7560
   29RES   H141 8037   5.121   2.556   6.992 -1.4451  0.6184 -0.1882
   29RES   O142 8038   5.407   2.898   6.915 -0.8066 -0.1624  0.6026
   29RES   C143 8039   5.308   2.938   6.816 -1.0486  0.2935  0.7742
   29RES   C144 8040   5.361   2.947   6.673 -0.0389 -0.4792 -0.7694
   29RES   C145 8041   5.266   3.028   6.577  0.0408  0.0600 -0.0251
   29RES   O146 8042   5.319   3.049   6.445  0.6144 -0.1544  0.3662
   29RES   C147 8043   5.226   3.087   6.351  0.4685  0.3382  0.9839
   29RES   H148 8044   5.215   2.881   6.815 -1.3189  0.7202 -1.0958
   29RES   H149 8045   5.270   3.038   6.839 -0.8207  0.5787 -0.0557
   29RES   H150 8046   5.459   2.995   6.672  0.3448 -1.2441 -0.3106
   29RES   H151 8047   5.264   3.128   6.619  0.9890  0.4939 -1.0096
   29RES   H152 8048   5.169   2.980   6.594  0.8300 -1.6281 -0.1752
   29RES   H153 8049   5.204   3.191   6.374 -2.0738 -0.7804  3.8733
   29RES   H154 8050   5.134   3.032   6.373  1.8346 -2.1749  0.6326
   29RES   H155 8051   5.258   3.061   6.250 -0.9150  1.3977  0.2454
   29RES   O156 8052   5.374   2.823   6.612  0.0347  0.4804  0.1267
   29RES   C157 8053   5.444   2.719   6.681  0.5859  0.2981  0.3672
   29RES   C158 8054   5.532   2.646   6.573 -0.0236  0.4941 -0.3396
   29RES   C159 8055   5.595   2.519   6.643 -0.4016 -0.0695 -0.6082
   29RES   O160 8056   5.598   2.425   6.549  0.0846  0.2783 -0.7653
   29RES   C161 8057   5.643   2.297   6.590  0.3799 -0.5076 -0.6335
   29RES   H162 8058   5.503   2.748   6.768 -0.2658  1.1355  0.6689
   29RES   H163 8059   5.359   2.660   6.715  1.0138 -0.9841 -0.7534
   29RES   H164 8060   5.477   2.608   6.487  1.5263  0.2489 -1.2487
   29RES   H165 8061   5.688   2.538   6.696 -0.5605  0.6759 -0.6013
   29RES   H166 8062   5.521   2.480   6.713  1.1098  0.8069  1.5228
   29RES   H167 8063   5.580   2.275   6.676  0.1326  0.8568 -0.4601
   29RES   H168 8064   5.747   2.304   6.622  0.1745  0.7955 -0.2323
   29RES   H169 8065   5.623   2.231   6.505 -3.4697  0.2213 -0.3606
   29RES   O170 8066   5.646   2.719   6.533  0.1084 -0.3733  0.0058
   29RES   C171 8067   5.618   2.801   6.417  0.2550  0.4685 -0.1132
   29RES   C172 8068   5.752   2.884   6.396  0.0592 -0.1084 -0.4596
   29RES   C173 8069   5.727   2.991   6.287 -0.6324  0.1764 -0.4208
   29RES   O174 8070   5.829   3.091   6.273  0.2122 -0.3995  0.5629
   29RES   C175 8071   5.849   3.115   6.136 -0.3526  0.3712  0.0547
   29RES   H176 8072   5.539   2.874   6.437 -0.9513 -0.8236 -0.0634
   29RES   H177 8073   5.594   2.736   6.333  0.8613 -1.1466  0.9483
   29RES   H178 8074   5.760   2.935   6.492 -2.8485  1.6289 -1.0940
   29RES   H179 8075   5.716   2.930   6.197 -2.5646 -0.3060  0.1224
   29RES   H180 8076   5.631   3.038   6.305  0.0282  0.0875  3.9602
   29RES   H181 8077   5.753   3.109   6.085 -1.5577  1.1653  2.1736
   29RES   H182 8078   5.909   3.035   6.091 -2.0345 -0.4982 -0.6834
   29RES   H183 8079   5.887   3.215   6.118 -0.2018  0.2219 -0.4708
   29RES   O184 8080   5.868   2.811   6.362  0.2368 -0.6683 -0.1765
   29RES   C185 8081   5.991   2.868   6.411  0.9387 -0.5924 -0.2449
   29RES   C186 8082   6.116   2.793   6.360 -0.0900  0.0666 -0.3745
   29RES   C187 8083   6.238   2.849   6.441  0.5081 -0.4776 -0.1062
   29RES   O188 8084   6.338   2.754   6.439 -0.5476 -0.2315 -0.0801
   29RES   C189 8085   6.397   2.730   6.307 -0.0265  0.5471 -0.1504
   29RES   H190 8086   5.989   2.861   6.519 -0.4064  2.6612 -0.0219
   29RES   H191 8087   6.008   2.974   6.390  1.0951 -0.4614  0.5355
   29RES   H192 8088   6.106   2.685   6.366 -1.6473  0.2281  0.2044
   29RES   H193 8089   6.213   2.858   6.547 -0.8318 -0.5722 -0.4007
   29RES   H194 8090   6.268   2.948   6.407  0.5515 -0.9982 -1.6257
   29RES   H195 8091   6.352   2.651   6.247  1.7526 -0.5234 -0.1174
   29RES   H196 8092   6.408   2.823   6.250  0.7666 -0.3226 -1.4447
   29RES   H197 8093   6.498   2.695   6.328  0.8822  3.0600 -0.0436
   29RES   O198 8094   6.142   2.832   6.226  0.1168  0.5786 -0.7250
   29RES   C199 8095   6.064   2.763   6.135 -0.1035  0.2200 -0.1197
   29RES   C200 8096   6.114   2.788   5.992 -0.1720  0.0470 -0.3406
   29RES   C201 8097   6.031   2.721   5.884 -0.2175  0.1136  0.4484
   29RES   O202 8098   6.028   2.787   5.760 -0.3918 -0.0031  0.6172
   29RES   C203 8099   5.994   2.711   5.650  0.0795 -0.1750  0.5478
   29RES   H204 8100   5.959   2.791   6.145 -0.1941 -0.7115  1.6956
   29RES   H205 8101   6.072   2.656   6.154  1.3958  0.3319 -0.0429
   29RES   H206 8102   6.119   2.897   5.987  0.1637 -0.0674 -4.3394
   29RES   H207 8103   6.058   2.615   5.886 -2.1796 -0.4052  0.1912
   29RES   H208 8104   5.929   2.726   5.923  0.4210  0.7898  2.0537
   29RES   H209 8105   6.079   2.650   5.620 -0.4204 -0.4118 -0.4007
   29RES   H210 8106   5.977   2.784   5.571  2.0397 -0.2414  0.0370
   29RES   H211 8107   5.901   2.657   5.664  0.5411 -0.6779  1.7364
   29RES   O212 8108   6.243   2.732   5.983 -0.4640 -0.5646 -0.0184
   29RES   C213 8109   6.319   2.779   5.867 -0.2666  0.0928  0.4257
   29RES   C214 8110   6.425   2.870   5.909 -0.4804 -0.5057  0.0955
   29RES   C215 8111   6.369   2.985   5.991 -0.0043  0.3627  0.4549
   29RES   O216 8112   6.477   3.071   6.035  0.2821 -0.5311  0.2180
   29RES   C217 8113   6.431   3.184   6.102 -0.4766 -0.0696  1.0491
   29RES   H218 8114   6.261   2.837   5.795  1.1278  0.1698 -0.6592
   29RES   H219 8115   6.346   2.690   5.811 -3.1635 -1.1454  0.8849
   29RES   H220 8116   6.498   2.820   5.972  0.8693 -1.2695 -2.0006
   29RES   H221 8117   6.279   3.031   5.949 -0.8362 -1.2546  0.4056
   29RES   H222 8118   6.339   2.943   6.087 -0.5295 -0.3245 -0.0054
   29RES   H223 8119   6.515   3.241   6.140 -0.6061  1.3240 -0.6726
   29RES   H224 8120   6.361   3.151   6.179  1.1680 -0.9214  2.2133
   29RES   H225 8121   6.383   3.246   6.026  0.1764 -0.3558  0.4041
   29RES   O226 8122   6.493   2.914   5.795 -0.0129 -0.0030 -0.4285
   29RES   C227 8123   6.629   2.946   5.804  0.0851 -0.2954 -0.3027
   29RES   C228 8124   6.673   3.057   5.696 -0.4700 -0.0064  0.1880
   29RES   C229 8125   6.691   3.203   5.750  0.2988  0.0985 -0.3658
   29RES   O230 8126   6.714   3.287   5.637  0.1410 -0.3086  0.2575
   29RES   C231 8127   6.752   3.420   5.665 -0.7300  0.1874 -0.3512
   29RES   H232 8128   6.686   2.858   5.774  0.9525  0.4631 -0.9105
   29RES   H233 8129   6.665   2.986   5.899  2.2858  0.0762 -1.2564
   29RES   H234 8130   6.592   3.070   5.623 -1.1349  0.0227  0.9237
   29RES   H235 8131   6.779   3.206   5.815 -0.6054  2.3631  0.8347
   29RES   H236 8132   6.608   3.242   5.808  0.3630 -0.5761  0.1864
   29RES   H237 8133   6.796   3.468   5.578  2.2802 -0.0851  0.9500
   29RES   H238 8134   6.823   3.414   5.747 -0.6734  0.2026 -0.3992
   29RES   H239 8135   6.666   3.476   5.702 -1.6408  0.6222 -3.0200
   29RES   O240 8136   6.796   3.024   5.632  0.0225  0.1333  0.5656
   29RES   C241 8137   6.785   2.928   5.532  0.3024 -0.8314  0.0234
   29RES   C242 8138   6.902   2.938   5.433 -0.4249  0.2777 -0.2067
   29RES   C243 8139   6.958   2.804   5.377  0.4472 -0.3572  0.1807
   29RES   O244 8140   7.073   2.820   5.308  0.0523 -0.2791 -0.1865
   29RES   C245 8141   7.066   2.874   5.178 -0.5460 -0.8598  0.3737
   29RES   H246 8142   6.689   2.929   5.480 -1.0650  0.2617  2.4698
   29RES   H247 8143   6.795   2.833   5.583 -0.0915  0.0018  1.6855
   29RES   H248 8144   6.977   2.988   5.495 -0.4835 -0.7340  0.6829
   29RES   H249 8145   6.972   2.745   5.468 -1.5538  0.3173  0.9476
   29RES   H250 8146   6.875   2.760   5.321  0.7639 -0.8293  0.0746
   29RES   H251 8147   7.164   2.876   5.131 -0.0322 -0.2822  1.4358
   29RES   H252 8148   7.047   2.981   5.184 -1.2498 -0.9658  0.0797
   29RES   H253 8149   7.002   2.821   5.107  0.3609  0.0278 -1.1267
   29RES   O254 8150   6.843   3.014   5.327 -0.0550  0.3433  0.7968
   29RES   C255 8151   6.845   3.154   5.328  0.1960 -0.2634 -0.2214
   29RES   C256 8152   6.796   3.210   5.195  0.1383  0.0867  0.0465
   29RES   C257 8153   6.645   3.178   5.169  0.1367  0.6773  0.2246
   29RES   O258 8154   6.603   3.176   5.038  0.5743 -0.1089  0.1481
   29RES   C259 8155   6.465   3.140   5.022 -0.7866 -0.2082 -0.6621
   29RES   H260 8156   6.770   3.191   5.397  0.8936  2.0497 -0.6420
   29RES   H261 8157   6.946   3.184   5.354  0.3602 -1.0291  0.0478
   29RES   H262 8158   6.849   3.146   5.125  0.7384  0.8548 -0.2075
   29RES   H263 8159   6.637   3.076   5.204  0.4702  0.3955 -0.5018
   29RES   H264 8160   6.581   3.245   5.226 -1.3780 -1.8290  1.5556
   29RES   H265 8161   6.398   3.215   5.064 -0.0065 -0.3717  0.8743
   29RES   H266 8162   6.437   3.039   5.053  2.6719 -1.4786 -1.4266
   29RES   H267 8163   6.452   3.149   4.914  3.6278  0.8725 -1.2041
   29RES   O268 8164   6.842   3.346   5.180 -0.1889 -0.3665  0.4186
   29RES   C269 8165   6.828   3.390   5.043 -0.0628  0.6764 -0.2660
   29RES   C270 8166   6.894   3.531   5.023 -0.3712 -0.5521 -0.0692
   29RES   C271 8167   7.043   3.527   5.065  1.1055 -0.6474 -0.1601
   29RES   O272 8168   7.106   3.631   4.999  0.3441 -0.6162 -0.0875
   29RES   C273 8169   7.244   3.642   5.028 -0.1694  0.1737  0.2803
   29RES   H274 8170   6.724   3.368   5.022 -1.2731  2.4853  3.2956
   29RES   H275 8171   6.888   3.317   4.990 -0.6620  0.5017 -0.7042
   29RES   H276 8172   6.868   3.565   4.922  0.3070  3.7780  1.1340
   29RES   H277 8173   7.107   3.440   5.045 -2.0010 -2.6696 -1.6038
   29RES   H278 8174   7.052   3.538   5.173 -0.6257 -0.0983 -0.0705
   29RES   H279 8175   7.264   3.689   5.124 -0.6527 -0.3578  0.6415
   29RES   H280 8176   7.277   3.716   4.955  2.6192 -1.6323 -0.3837
   29RES   H281 8177   7.298   3.549   5.009 -1.0591 -0.2593 -0.1292
   29RES   H282 8178   6.841   3.602   5.087 -0.2661  0.2149 -0.8221
   30RES     O1 8179   1.160   5.179   0.208  0.2936 -0.1877  0.5453
   30RES     C2 8180   1.083   5.188   0.320  0.3379 -0.3309  0.0914
   30RES     C3 8181   0.934   5.222   0.283 -0.0187 -0.2095 -0.4686
   30RES     C4 8182   0.865   5.260   0.412  0.9096 -0.4954 -0.5942
   30RES     O5 8183   0.730   5.226   0.398  0.2005  0.1094 -0.0691
   30RES     C6 8184   0.648   5.272   0.504  0.4643  0.0765 -0.4591
   30RES     H7 8185   1.090   5.104   0.389 -0.9738  2.2204  3.4893
   30RES     H8 8186   1.128   5.271   0.375 -0.6636 -0.1775  0.6916
   30RES     H9 8187   0.886   5.133   0.243  1.4491 -1.4319  0.4361
   30RES    H10 8188   0.881   5.368   0.424  0.2046 -0.2837 -1.5579
   30RES    H11 8189   0.894   5.197   0.496  2.5901  4.0840  2.4437
   30RES    H12 8190   0.671   5.216   0.594  0.1314  0.3464 -0.2036
   30RES    H13 8191   0.652   5.381   0.515 -0.5755  0.2334 -1.4492
   30RES    H14 8192   0.542   5.249   0.490  0.1255  1.9655 -1.2569
   30RES    H15 8193   1.132   5.240   0.142  0.2487 -0.4676  0.3043
   30RES    O16 8194   0.940   5.329   0.186  0.2626  0.1056  0.2884
   30RES    C17 8195   0.826   5.355   0.109 -0.2369  0.1352 -0.2355
   30RES    C18 8196   0.841   5.463   7.816  0.1462  0.7171 -0.3465
   30RES    C19 8197   0.746   5.455   7.702 -0.2673  0.4738 -0.4778
   30RES    O20 8198   0.673   5.335   7.692 -0.2614  0.2769  0.3051
   30RES    C21 8199   0.575   5.322   7.590  0.3919 -0.1760 -0.3246
   30RES    H22 8200   0.735   5.371   0.167  0.7529  0.1680  1.3569
   30RES    H23 8201   0.811   5.256   0.065 -1.1403 -0.6330  1.7487
   30RES    H24 8202   0.943   5.451   7.779  1.1809  1.0103  2.2572
   30RES    H25 8203   0.671   5.534   7.710 -0.9475 -0.2601  0.5161
   30RES    H26 8204   0.788   5.480   7.604 -0.6829 -1.6819 -1.2322
   30RES    H27 8205   0.524   5.228   7.609  0.1935 -0.3741 -1.7864
   30RES    H28 8206   0.621   5.329   7.492 -1.6009  1.4846 -1.1943
   30RES    H29 8207   0.502   5.404   7.587  1.3357  0.6304 -1.1632
   30RES    O30 8208   0.823   5.587   0.064  0.4673 -0.4933 -0.1052
   30RES    C31 8209   0.875   5.613   0.196 -0.0386  0.5011  0.2822
   30RES    C32 8210   0.876   5.759   0.230  0.0544 -0.4821  0.0584
   30RES    C33 8211   0.905   5.780   0.383 -0.5805  0.3536  0.3599
   30RES    O34 8212   0.944   5.921   0.411  0.8374  0.2312 -0.4692
   30RES    C35 8213   1.077   5.952   0.398 -0.3498  0.0804  0.5746
   30RES    H36 8214   0.804   5.574   0.269  0.8690 -1.3997  0.1844
   30RES    H37 8215   0.973   5.567   0.209 -0.0701  0.7654  1.4860
   30RES    H38 8216   0.955   5.796   0.165  1.6222 -2.2279  0.9266
   30RES    H39 8217   0.987   5.714   0.410 -0.1267  0.6034 -0.3935
   30RES    H40 8218   0.821   5.748   0.444 -1.1853 -2.2186 -1.7593
   30RES    H41 8219   1.102   5.947   0.292  0.6610  0.3418  0.8036
   30RES    H42 8220   1.140   5.881   0.450  2.8223  1.8897 -0.6676
   30RES    H43 8221   1.096   6.053   0.433 -0.4257  0.5617 -0.7339
   30RES    O44 8222   0.745   5.814   0.204  0.0848  0.0662 -0.0033
   30RES    C45 8223   0.731   5.941   0.147  0.6130  0.6594  0.4700
   30RES    C46 8224   0.617   5.955   0.044  0.0863  0.2728 -0.5750
   30RES    C47 8225   0.618   5.848   7.750  0.7560  0.2496  0.4553
   30RES    O48 8226   0.535   5.892   7.643 -0.1829  0.9657  0.4200
   30RES    C49 8227   0.553   5.804   7.529 -0.0065 -0.7306  0.0817
   30RES    H50 8228   0.816   5.967   0.085  0.3003 -0.7216 -0.5625
   30RES    H51 8229   0.747   6.013   0.227  0.9796 -0.4946  1.4501
   30RES    H52 8230   0.619   6.056   0.005 -2.5821 -0.2448 -2.1594
   30RES    H53 8231   0.724   5.840   7.725  1.3137 -1.2227  3.0675
   30RES    H54 8232   0.585   5.755   7.795 -0.3438 -0.0430 -0.9007
   30RES    H55 8233   0.532   5.698   7.546 -0.7874 -1.1095 -2.8177
   30RES    H56 8234   0.651   5.815   7.483 -0.7922  1.2941 -1.1803
   30RES    H57 8235   0.478   5.834   7.455  1.0569  2.0705  0.0735
   30RES    O58 8236   0.499   5.938   0.124  0.3274  0.3361  0.4394
   30RES    C59 8237   0.460   6.052   0.198 -0.0230  0.1749 -0.2307
   30RES    C60 8238   0.374   6.004   0.320  0.5129 -0.0764 -0.2079
   30RES    C61 8239   0.283   6.121   0.374 -0.5859 -0.2531 -0.6011
   30RES    O62 8240   0.171   6.067   0.451  0.3653  0.1816 -0.3421
   30RES    C63 8241   0.089   6.169   0.497  0.1181 -0.0984  0.0740
   30RES    H64 8242   0.407   6.129   0.143 -0.5057  0.4219  0.5671
   30RES    H65 8243   0.552   6.095   0.238  2.6389 -2.7028 -2.9565
   30RES    H66 8244   0.306   5.927   0.285  0.7087 -0.8354  1.0377
   30RES    H67 8245   0.332   6.204   0.426  1.3312  0.1896 -3.0299
   30RES    H68 8246   0.230   6.168   0.292  0.2283 -1.1107 -1.6260
   30RES    H69 8247   7.811   6.128   0.530  0.3363 -0.4590  0.2604
   30RES    H70 8248   0.058   6.240   0.420  1.3814  0.8194  0.3749
   30RES    H71 8249   0.136   6.217   0.583 -0.3688 -1.7074  1.2506
   30RES    O72 8250   0.461   5.938   0.413 -0.0061  0.1538  0.1068
   30RES    C73 8251   0.385   5.871   0.512 -0.0517 -0.2582 -0.0137
   30RES    C74 8252   0.470   5.759   0.565  0.8798 -0.3676 -0.7016
   30RES    C75 8253   0.377   5.655   0.629 -0.6415 -0.0126 -0.0452
   30RES    O76 8254   0.434   5.525   0.625  0.3454  0.1138 -0.2137
   30RES    C77 8255   0.362   5.426   0.698 -0.6702 -0.2486  0.8751
   30RES    H78 8256   0.346   5.933   0.591  1.0281 -1.5317  1.5630
   30RES    H79 8257   0.295   5.826   0.470 -1.8557  0.2366  3.1953
   30RES    H80 8258   0.525   5.712   0.483 -1.4101 -1.4708 -1.6551
   30RES    H81 8259   0.280   5.643   0.580 -0.2404  2.4902 -1.5214
   30RES    H82 8260   0.353   5.696   0.727 -1.1325 -1.1166  0.3098
   30RES    H83 8261   0.420   5.334   0.687  0.0475  0.0961  1.7355
   30RES    H84 8262   0.260   5.404   0.666  0.2588 -0.8648 -1.8075
   30RES    H85 8263   0.349   5.455   0.802 -0.3635 -0.5696  1.0065
   30RES    O86 8264   0.549   5.809   0.673 -0.9435  0.1387 -0.2812
   30RES    C87 8265   0.617   5.934   0.647  0.2586 -0.2238 -0.6129
   30RES    C88 8266   0.698   5.969   0.771  0.3560 -0.3314  0.4150
   30RES    C89 8267   0.826   6.049   0.731  0.2603 -0.1522  0.0030
   30RES    O90 8268   0.912   6.036   0.839  0.0852 -0.0857  0.0192
   30RES    C91 8269   1.041   6.078   0.792 -0.7853 -0.0844 -0.4980
   30RES    H92 8270   0.682   5.926   0.560  1.3082  2.3813 -0.1088
   30RES    H93 8271   0.549   6.016   0.626 -0.8468 -1.2917 -1.2907
   30RES    H94 8272   0.738   5.877   0.814 -0.0607 -1.2152 -1.0227
   30RES    H95 8273   0.870   6.009   0.640 -2.3028 -0.6563 -1.0339
   30RES    H96 8274   0.796   6.149   0.699 -2.9034 -0.5424  1.5995
   30RES    H97 8275   1.089   6.020   0.713  0.6093 -0.0565  0.3143
   30RES    H98 8276   1.044   6.183   0.763  0.2699 -0.3554 -1.4518
   30RES    H99 8277   1.105   6.066   0.879 -0.4896  0.1603 -0.6778
   30RES   O100 8278   0.631   6.046   0.862 -0.3597 -0.4412  0.5250
   30RES   C101 8279   0.622   5.982   0.998 -0.1167  0.8191  0.0810
   30RES   C102 8280   0.521   6.055   1.086  0.0617  0.4510  0.2250
   30RES   C103 8281   0.537   6.037   1.238 -0.2439  0.1938  0.8498
   30RES   O104 8282   0.437   6.108   1.312  0.0480 -0.1308  0.3331
   30RES   C105 8283   0.478   6.237   1.347  0.2110  0.0658  0.2670
   30RES   H106 8284   0.714   5.975   1.057  0.3198 -1.4249 -0.7817
   30RES   H107 8285   0.611   5.873   0.996  1.5766  0.6224  0.3887
   30RES   H108 8286   0.512   6.162   1.067  1.0429  0.6554  0.8459
   30RES   H109 8287   0.637   6.059   1.275  0.2270  1.8925 -1.2482
   30RES   H110 8288   0.526   5.932   1.261  1.1908 -0.1768 -0.0949
   30RES   H111 8289   0.550   6.240   1.429  0.1348 -0.5225  0.3587
   30RES   H112 8290   0.390   6.290   1.382 -1.3345 -1.4215 -1.2596
   30RES   H113 8291   0.514   6.298   1.264  1.4220  0.9235  1.4075
   30RES   O114 8292   0.398   6.005   1.049 -0.1879 -0.0772  0.3043
   30RES   C115 8293   0.330   6.068   0.952  0.9968  0.7141 -0.4415
   30RES   C116 8294   0.194   5.999   0.942 -0.1591 -0.8461 -0.2920
   30RES   C117 8295   0.096   6.085   0.866  0.3217 -0.3006  0.2541
   30RES   O118 8296   7.793   6.105   0.933 -0.5712  0.3315 -0.8923
   30RES   C119 8297   7.692   6.179   0.868  0.4026 -0.1964 -0.4327
   30RES   H120 8298   0.298   6.166   0.989  0.6002  0.1864  0.6338
   30RES   H121 8299   0.370   6.081   0.852  2.4533 -1.9095 -0.2261
   30RES   H122 8300   0.154   5.997   1.043 -0.4501  2.1365 -0.3150
   30RES   H123 8301   0.137   6.183   0.841 -1.3707 -0.2584 -2.6283
   30RES   H124 8302   0.076   6.038   0.769 -0.2007 -1.4989  0.9327
   30RES   H125 8303   7.589   6.161   0.899  0.0940  1.7120 -0.3260
   30RES   H126 8304   7.686   6.151   0.762 -1.8757  1.1735 -0.6936
   30RES   H127 8305   7.712   6.285   0.881  0.0245  0.0646 -1.8370
   30RES   O128 8306   0.203   5.870   0.882  0.4566 -0.2781  0.3851
   30RES   C129 8307   0.096   5.785   0.925 -0.2018  0.1408 -0.1198
   30RES   C130 8308   0.140   5.635   0.933  0.1935 -0.8765  0.6074
   30RES   C131 8309   0.020   5.540   0.935 -1.0529  0.2362 -0.0389
   30RES   O132 8310   0.061   5.406   0.925  0.5954 -0.0230  0.0547
   30RES   C133 8311   7.778   5.329   0.857  0.0833  0.4158 -0.1873
   30RES   H134 8312   0.063   5.806   1.027  0.2641 -1.1413  0.3092
   30RES   H135 8313   0.016   5.793   0.851 -0.4767  0.7884  0.2399
   30RES   H136 8314   0.201   5.607   0.847 -0.9451 -1.6234  0.0304
   30RES   H137 8315   7.777   5.570   0.849 -0.6997 -0.8731 -0.6763
   30RES   H138 8316   7.778   5.555   1.025 -1.5632 -0.6062 -0.2299
   30RES   H139 8317   7.753   5.361   0.756  0.3831 -0.3394 -0.5101
   30RES   H140 8318   7.809   5.226   0.835 -0.3801  0.1187  0.5398
   30RES   H141 8319   7.688   5.327   0.918  0.8585 -0.0853  0.9681
   30RES   O142 8320   0.212   5.625   1.055 -0.0879  0.2405 -0.1822
   30RES   C143 8321   0.348   5.565   1.054 -0.0239 -0.0403  0.2377
   30RES   C144 8322   0.426   5.589   1.177  0.1427  0.0904  0.2078
   30RES   C145 8323   0.575   5.543   1.175  0.0890  0.4715 -0.1706
   30RES   O146 8324   0.605   5.407   1.131 -0.3347 -0.3474  0.1714
   30RES   C147 8325   0.570   5.308   1.225  0.2197 -0.3698  0.1732
   30RES   H148 8326   0.326   5.458   1.047  1.4151 -0.4598  1.9436
   30RES   H149 8327   0.399   5.601   0.965  1.0114  0.4401  1.0192
   30RES   H150 8328   0.426   5.698   1.179 -2.2787  0.1111  1.1455
   30RES   H151 8329   0.618   5.573   1.271  1.2071 -1.8774  0.0858
   30RES   H152 8330   0.632   5.601   1.102  0.4687 -0.6119 -0.7411
   30RES   H153 8331   0.605   5.207   1.205 -1.7725 -1.3118  1.3487
   30RES   H154 8332   0.461   5.306   1.218  0.3288 -3.3970 -1.7257
   30RES   H155 8333   0.613   5.313   1.325  3.3286 -1.4285 -1.0438
   30RES   O156 8334   0.350   5.549   1.287  0.0678  0.1217  0.1489
   30RES   C157 8335   0.362   5.614   1.411 -0.7098  0.1739 -1.1834
   30RES   C158 8336   0.244   5.717   1.437  0.0358 -0.0260 -0.0847
   30RES   C159 8337   0.284   5.835   1.519 -0.6413 -0.1185 -0.9339
   30RES   O160 8338   0.373   5.796   1.626 -0.0304  0.0158 -0.2596
   30RES   C161 8339   0.314   5.766   1.757 -0.0411  0.3247 -0.5084
   30RES   H162 8340   0.353   5.550   1.499  1.1844  1.6687  0.1505
   30RES   H163 8341   0.453   5.674   1.413 -0.6004  0.0305  2.1858
   30RES   H164 8342   0.215   5.752   1.338 -1.9917  0.2959  0.5933
   30RES   H165 8343   0.342   5.909   1.465  0.7204  0.4883  1.3253
   30RES   H166 8344   0.190   5.877   1.555  0.7202  0.8845  1.5658
   30RES   H167 8345   0.297   5.855   1.816  0.0917 -1.0101  1.5911
   30RES   H168 8346   0.394   5.725   1.819 -1.4149  1.1422  1.8467
   30RES   H169 8347   0.230   5.696   1.752  0.4466 -0.1693 -2.3806
   30RES   O170 8348   0.133   5.657   1.490 -0.2617  0.4392 -0.2647
   30RES   C171 8349   0.062   5.568   1.403 -0.4873 -0.5889  0.9213
   30RES   C172 8350   7.768   5.482   1.484  0.1705 -0.0683 -0.2611
   30RES   C173 8351   7.718   5.371   1.397  0.6852  0.4983 -0.0002
   30RES   O174 8352   7.654   5.267   1.471  0.3025  0.0066  0.6692
   30RES   C175 8353   7.569   5.180   1.388  0.8185 -0.2924  0.0553
   30RES   H176 8354   0.132   5.496   1.359 -0.3791  0.1729 -0.1840
   30RES   H177 8355   0.011   5.621   1.323  0.7336 -2.0469 -0.8742
   30RES   H178 8356   0.004   5.432   1.565  1.9366  0.3350 -1.1429
   30RES   H179 8357   7.639   5.412   1.334  1.4195  0.7260 -0.7828
   30RES   H180 8358   7.795   5.325   1.335 -1.8068 -0.9005 -2.1837
   30RES   H181 8359   7.553   5.216   1.287 -0.9018  1.0579  0.7814
   30RES   H182 8360   7.473   5.171   1.439  1.5107 -0.5476  1.3662
   30RES   H183 8361   7.594   5.074   1.394 -0.2608 -0.6663 -1.8138
   30RES   O184 8362   7.672   5.572   1.529 -0.3435 -0.9366  0.0741
   30RES   C185 8363   7.620   5.536   1.658 -0.1670 -0.0571  0.6382
   30RES   C186 8364   7.708   5.599   1.775  0.6490 -0.6192 -0.8863
   30RES   C187 8365   7.677   5.524   1.908 -0.4006  0.6025 -0.0593
   30RES   O188 8366   7.784   5.532   2.002  0.0669 -0.2375 -0.4902
   30RES   C189 8367   7.751   5.483   2.129 -0.2821 -0.2057  0.7836
   30RES   H190 8368   7.605   5.429   1.670  0.3247 -0.1100  0.7642
   30RES   H191 8369   7.518   5.575   1.668 -0.6164 -0.9590 -0.3017
   30RES   H192 8370   7.813   5.610   1.748  0.7609 -1.0123 -0.6238
   30RES   H193 8371   7.666   5.415   1.904  0.6439  0.5001 -0.2636
   30RES   H194 8372   7.582   5.553   1.954 -0.1870  2.1108 -0.5557
   30RES   H195 8373   0.018   5.510   2.193  1.1734 -2.0103 -0.3482
   30RES   H196 8374   7.662   5.532   2.171 -1.0460  0.2937 -1.3647
   30RES   H197 8375   7.734   5.376   2.121  0.3098 -0.2944  0.7366
   30RES   O198 8376   7.657   5.725   1.811 -1.1098 -0.3405 -0.4969
   30RES   C199 8377   7.679   5.835   1.732  0.3746 -0.5888  0.7126
   30RES   C200 8378   7.694   5.962   1.814  0.2175  0.0140 -0.3723
   30RES   C201 8379   7.695   6.091   1.731 -0.2382 -0.1733  0.2285
   30RES   O202 8380   7.676   6.201   1.814  0.3040 -0.0742  0.4398
   30RES   C203 8381   7.543   6.227   1.851 -0.3933  0.0126 -0.3569
   30RES   H204 8382   7.593   5.837   1.665 -0.6511  0.1969  2.0457
   30RES   H205 8383   7.766   5.810   1.671  0.7789  1.3142  0.4780
   30RES   H206 8384   7.621   5.969   1.894 -1.9184  0.1650 -2.2785
   30RES   H207 8385   7.783   6.089   1.667 -1.5721  1.4063 -1.7301
   30RES   H208 8386   7.608   6.076   1.666  0.3383 -1.1055 -0.3468
   30RES   H209 8387   7.542   6.309   1.922 -0.4121 -0.0073 -0.3341
   30RES   H210 8388   7.487   6.145   1.895  0.7039 -1.0996 -1.0058
   30RES   H211 8389   7.492   6.257   1.759  1.5836 -0.8407 -1.7614
   30RES   O212 8390   0.015   5.955   1.864 -0.7530 -0.2890  0.0172
   30RES   C213 8391   0.037   5.878   1.980  0.0807  0.6927  0.3699
   30RES   C214 8392   0.115   5.969   2.077 -0.6361  0.1315  0.1034
   30RES   C215 8393   0.046   6.100   2.115  0.4721  0.1177 -0.4124
   30RES   O216 8394   0.060   6.124   2.256  0.0034 -0.5474  0.0421
   30RES   C217 8395   7.801   6.241   2.286 -0.0907 -0.5781 -0.4195
   30RES   H218 8396   0.083   5.781   1.963 -0.2833  0.8921 -1.9164
   30RES   H219 8397   7.763   5.843   2.028  0.1212  0.4980  0.3022
   30RES   H220 8398   0.131   5.908   2.166 -0.3090 -1.0965 -0.7800
   30RES   H221 8399   0.101   6.179   2.064  0.3561  0.5125  0.0643
   30RES   H222 8400   7.756   6.098   2.094  0.4163 -0.5078 -0.0833
   30RES   H223 8401   7.695   6.219   2.284 -0.1920 -0.0567 -1.3601
   30RES   H224 8402   0.005   6.325   2.219 -1.6546  0.7420  0.7338
   30RES   H225 8403   0.003   6.276   2.387  0.8264  1.5940 -1.3163
   30RES   O226 8404   0.246   5.995   2.025 -1.1335  0.3934  0.1061
   30RES   C227 8405   0.336   6.052   2.117  0.0472 -0.4696  0.2319
   30RES   C228 8406   0.476   6.065   2.044  0.1374  0.2776  0.2620
   30RES   C229 8407   0.555   6.189   2.083  0.0479 -0.3626 -0.5402
   30RES   O230 8408   0.630   6.219   1.971  0.2444  0.5426 -0.0295
   30RES   C231 8409   0.679   6.352   1.972 -0.0562  0.4724 -0.4371
   30RES   H232 8410   0.346   6.003   2.214  2.0063 -0.7581 -0.0997
   30RES   H233 8411   0.307   6.157   2.124  0.2610 -0.5169  2.3283
   30RES   H234 8412   0.442   6.062   1.940  0.3256  1.7679  0.1399
   30RES   H235 8413   0.618   6.176   2.171 -1.1525  0.7338  0.4815
   30RES   H236 8414   0.487   6.272   2.097 -0.1309 -0.8547  1.6794
   30RES   H237 8415   0.596   6.415   2.004 -0.3061  0.0235 -0.2033
   30RES   H238 8416   0.709   6.377   1.870 -0.4567  1.1785 -0.3866
   30RES   H239 8417   0.764   6.364   2.039  0.0354 -0.7297 -0.3447
   30RES   O240 8418   0.556   5.954   2.088 -0.0578  0.2085  0.6562
   30RES   C241 8419   0.619   5.889   1.976  0.2870 -0.4244 -0.4338
   30RES   C242 8420   0.752   5.848   2.038 -0.1051 -0.0434  0.3795
   30RES   C243 8421   0.829   5.973   2.090 -0.3240  0.3062 -0.2609
   30RES   O244 8422   0.970   5.945   2.080 -0.4817  0.1744 -0.1774
   30RES   C245 8423   1.034   6.047   2.148  0.2069  0.6046  0.0215
   30RES   H246 8424   0.618   5.946   1.883  0.0070 -1.4040 -1.0457
   30RES   H247 8425   0.561   5.802   1.944 -0.0769 -0.0569 -0.7710
   30RES   H248 8426   0.810   5.801   1.958 -2.0949 -0.2904 -0.9364
   30RES   H249 8427   0.805   6.060   2.030 -2.6090  1.6019  2.4186
   30RES   H250 8428   0.796   5.988   2.193  0.5852  0.1335  0.0670
   30RES   H251 8429   1.008   6.044   2.254  1.4169 -0.2580  0.3009
   30RES   H252 8430   1.003   6.147   2.116  0.5353  0.9333  0.7055
   30RES   H253 8431   1.142   6.052   2.139  0.3868  2.2026  2.4764
   30RES   O254 8432   0.724   5.748   2.136  0.3116  0.3471 -0.2532
   30RES   C255 8433   0.828   5.703   2.224  0.7937 -0.0894 -0.8422
   30RES   C256 8434   0.769   5.616   2.331  0.3628  0.0823 -0.3468
   30RES   C257 8435   0.855   5.501   2.381  0.8779  0.2413  0.4746
   30RES   O258 8436   0.888   5.400   2.291 -0.3478  0.2974  0.0794
   30RES   C259 8437   0.955   5.292   2.361  0.2420  0.6360 -0.0199
   30RES   H260 8438   0.905   5.643   2.176  0.8208  1.0241 -2.2307
   30RES   H261 8439   0.889   5.781   2.269  1.2094 -0.3047 -1.0272
   30RES   H262 8440   0.673   5.574   2.300  0.5154 -0.0230 -0.6748
   30RES   H263 8441   0.946   5.544   2.422  0.7300  1.6503 -0.6533
   30RES   H264 8442   0.813   5.455   2.471  1.5992  0.3278  0.8539
   30RES   H265 8443   1.031   5.325   2.432  1.4473 -1.4709 -0.2821
   30RES   H266 8444   0.995   5.225   2.285 -0.0627  0.7942 -0.3239
   30RES   H267 8445   0.892   5.235   2.430  1.9475  0.6830  1.6286
   30RES   O268 8446   0.740   5.706   2.442  0.3149 -0.3641 -0.0302
   30RES   C269 8447   0.619   5.786   2.436  0.1258  0.6859  0.3072
   30RES   C270 8448   0.625   5.923   2.497  0.2030 -0.2119 -0.5744
   30RES   C271 8449   0.488   5.989   2.525 -1.1763  0.4548  0.2994
   30RES   O272 8450   0.495   6.122   2.565  0.3554  0.2860 -0.0510
   30RES   C273 8451   0.373   6.174   2.606 -0.2589 -0.0758 -0.0274
   30RES   H274 8452   0.529   5.734   2.469  1.7403 -0.5410  2.9669
   30RES   H275 8453   0.606   5.819   2.333 -0.0784  1.6795  0.6466
   30RES   H276 8454   0.665   5.899   2.596 -1.4919 -2.4043 -0.3827
   30RES   H277 8455   0.439   5.930   2.603  0.7807 -0.7827  0.6240
   30RES   H278 8456   0.433   6.006   2.432 -1.4076 -0.9752  0.1696
   30RES   H279 8457   0.369   6.282   2.598 -1.5873 -0.3500 -3.9444
   30RES   H280 8458   0.353   6.145   2.709 -3.8180  0.1209 -0.5928
   30RES   H281 8459   0.292   6.137   2.543  0.3163 -2.0874  0.3772
   30RES   H282 8460   0.691   5.988   2.439 -0.2298  0.0101 -0.8155
   31RES     O1 8461   0.313   3.797   7.005  0.2028 -0.2613  0.1847
   31RES     C2 8462   0.398   3.769   6.892  0.4587 -0.1932 -0.3786
   31RES     C3 8463   0.322   3.678   6.795  0.9068 -0.1206  0.5910
   31RES     C4 8464   0.412   3.667   6.666  0.8355 -1.1675  0.2698
   31RES     O5 8465   0.348   3.661   6.539 -0.1309  1.0291 -0.4286
   31RES     C6 8466   0.435   3.651   6.430  0.5335 -0.4814  0.8903
   31RES     H7 8467   0.439   3.856   6.842  0.1250 -0.6170 -1.3888
   31RES     H8 8468   0.486   3.714   6.926  0.1417 -0.1256  0.5674
   31RES     H9 8469   0.222   3.711   6.768  0.6828 -0.8557  0.5358
   31RES    H10 8470   0.492   3.594   6.683  0.9498 -0.9109  0.8679
   31RES    H11 8471   0.483   3.748   6.652 -0.9486  0.1512 -1.2290
   31RES    H12 8472   0.499   3.735   6.402  0.4306 -1.1703 -1.5661
   31RES    H13 8473   0.489   3.556   6.427  1.4423  0.0670 -0.2207
   31RES    H14 8474   0.380   3.642   6.336  1.0094  0.4553  0.5125
   31RES    H15 8475   0.252   3.865   6.981  2.5555  2.1130  0.5999
   31RES    O16 8476   0.331   3.545   6.844  0.9708  0.7784 -0.8053
   31RES    C17 8477   0.235   3.457   6.784  0.6269  0.0935 -0.9852
   31RES    C18 8478   0.213   3.324   6.864 -0.5756 -0.4292 -0.2866
   31RES    C19 8479   0.074   3.264   6.848  0.5536  0.1052  0.2702
   31RES    O20 8480   0.053   3.148   6.927  0.1323 -0.0461  0.9663
   31RES    C21 8481   7.731   3.127   6.962  0.5498 -0.5017 -0.1783
   31RES    H22 8482   0.268   3.446   6.681  1.2565  0.3186 -0.8075
   31RES    H23 8483   0.137   3.506   6.780  0.3003 -0.4067  0.5995
   31RES    H24 8484   0.228   3.336   6.971  1.8798 -0.3848 -0.6081
   31RES    H25 8485   7.806   3.330   6.867  0.4948  0.8925 -2.5772
   31RES    H26 8486   0.067   3.238   6.742  3.3930 -0.3809  0.1485
   31RES    H27 8487   7.692   3.220   7.004  2.3326  0.5615 -0.8214
   31RES    H28 8488   7.732   3.039   7.026  2.6762 -0.9323 -0.7824
   31RES    H29 8489   7.672   3.093   6.877  0.8839  0.0465 -0.6338
   31RES    O30 8490   0.309   3.236   6.802 -0.8509 -0.5422  0.3320
   31RES    C31 8491   0.366   3.138   6.883  0.0601 -0.2766 -0.3967
   31RES    C32 8492   0.459   3.043   6.807  0.1948  0.1536  0.2190
   31RES    C33 8493   0.516   2.924   6.889 -0.0159  0.0421  0.3185
   31RES    O34 8494   0.569   2.823   6.797  0.0128  0.1256  0.0011
   31RES    C35 8495   0.585   2.699   6.862  0.0361  0.0531  0.0370
   31RES    H36 8496   0.420   3.184   6.966 -1.0504 -0.0232  0.2029
   31RES    H37 8497   0.279   3.087   6.926  0.0132 -0.6436 -0.9265
   31RES    H38 8498   0.400   3.000   6.726  0.1182  0.6925 -0.0179
   31RES    H39 8499   0.436   2.876   6.945 -0.5169  0.0980 -0.3476
   31RES    H40 8500   0.599   2.953   6.954 -0.1156 -0.6371  0.7550
   31RES    H41 8501   0.487   2.654   6.878  0.7732 -1.9293 -0.8648
   31RES    H42 8502   0.644   2.709   6.953  1.6338  0.7467 -1.0552
   31RES    H43 8503   0.633   2.626   6.797 -1.0607 -1.2409  0.6628
   31RES    O44 8504   0.571   3.125   6.764  0.3983 -0.1340  0.2044
   31RES    C45 8505   0.556   3.180   6.639 -0.0600  0.0584  0.0514
   31RES    C46 8506   0.660   3.129   6.536  0.1723 -0.2285  0.0983
   31RES    C47 8507   0.595   3.039   6.426  0.2444  0.9987 -0.4772
   31RES    O48 8508   0.695   2.962   6.367 -0.3101 -0.2437 -0.6570
   31RES    C49 8509   0.657   2.913   6.239 -0.3106 -0.7739 -0.0536
   31RES    H50 8510   0.559   3.288   6.650  1.4873 -0.0104  0.5069
   31RES    H51 8511   0.456   3.165   6.600  0.8856 -0.1791 -2.3887
   31RES    H52 8512   0.732   3.078   6.601  1.8609  0.4269 -1.2062
   31RES    H53 8513   0.520   2.982   6.481 -0.8194 -0.3415 -3.2161
   31RES    H54 8514   0.546   3.103   6.352 -4.3134 -0.5220  1.0789
   31RES    H55 8515   0.638   2.997   6.172 -1.4856 -2.7487 -2.2498
   31RES    H56 8516   0.581   2.837   6.251 -1.1182 -0.2859 -1.9114
   31RES    H57 8517   0.742   2.856   6.203 -0.2375 -2.2279  2.3132
   31RES    O58 8518   0.705   3.244   6.472  0.4244 -0.6013 -0.3108
   31RES    C59 8519   0.847   3.256   6.447 -0.2000 -0.0178  0.0322
   31RES    C60 8520   0.885   3.400   6.408  0.4934 -0.1599  0.6040
   31RES    C61 8521   1.036   3.409   6.379  0.1025  0.7254 -0.1702
   31RES    O62 8522   1.064   3.530   6.311 -0.4784  0.5634  0.3354
   31RES    C63 8523   1.204   3.554   6.305 -0.4496 -0.2266 -0.0997
   31RES    H64 8524   0.875   3.180   6.375 -1.4245  1.5348 -2.1482
   31RES    H65 8525   0.904   3.228   6.536  1.4466  0.0198 -1.0048
   31RES    H66 8526   0.836   3.446   6.323 -0.5242  2.0090  2.3158
   31RES    H67 8527   1.099   3.400   6.467  2.7821  3.2705 -1.7188
   31RES    H68 8528   1.050   3.327   6.308 -0.2823 -0.5471  1.2043
   31RES    H69 8529   1.242   3.600   6.396  0.3482 -0.4108 -0.3353
   31RES    H70 8530   1.210   3.627   6.224  0.1164  3.0839  2.7861
   31RES    H71 8531   1.260   3.464   6.280 -1.6326 -1.4586  1.6259
   31RES    O72 8532   0.843   3.483   6.530 -0.5989 -0.0958 -0.4495
   31RES    C73 8533   0.834   3.619   6.510 -0.0178 -0.3775 -0.6282
   31RES    C74 8534   0.807   3.700   6.641  0.1947  0.0723  0.8748
   31RES    C75 8535   0.758   3.841   6.609  0.1906 -0.3890 -0.2793
   31RES    O76 8536   0.699   3.910   6.722  0.0217  0.1651  0.1622
   31RES    C77 8537   0.635   4.032   6.693 -0.3035 -0.1420  0.3407
   31RES    H78 8538   0.927   3.664   6.478 -0.8981  0.5548 -1.9100
   31RES    H79 8539   0.770   3.632   6.422 -2.2135  0.5474  1.0421
   31RES    H80 8540   0.730   3.657   6.704 -0.7727  0.3193 -0.1292
   31RES    H81 8541   0.669   3.833   6.548  0.3832 -0.7812 -0.5110
   31RES    H82 8542   0.821   3.911   6.554 -3.5056  1.7503 -1.9337
   31RES    H83 8543   0.530   4.006   6.684  0.0612 -0.7544 -2.6343
   31RES    H84 8544   0.672   4.071   6.598 -0.2465 -1.0223 -0.0019
   31RES    H85 8545   0.655   4.109   6.769 -0.8305  0.4384 -0.1017
   31RES    O86 8546   0.937   3.721   6.697 -0.4509  0.2656 -0.1818
   31RES    C87 8547   0.963   3.647   6.819 -0.9808  0.1726 -0.1770
   31RES    C88 8548   1.113   3.651   6.846 -0.4008  0.7112  0.0866
   31RES    C89 8549   1.192   3.604   6.718  1.0657 -0.1139 -0.4333
   31RES    O90 8550   1.320   3.562   6.755  0.1297  0.2767  0.4794
   31RES    C91 8551   1.393   3.540   6.635 -0.1929  0.0008  0.3261
   31RES    H92 8552   0.899   3.690   6.896  0.3928  0.1580  1.0141
   31RES    H93 8553   0.930   3.545   6.801  0.9186 -0.4465 -0.2689
   31RES    H94 8554   1.145   3.593   6.932  0.4209  0.8578 -0.1158
   31RES    H95 8555   1.138   3.524   6.668 -0.0148  1.5463 -1.9891
   31RES    H96 8556   1.188   3.693   6.656  1.8731  0.6724  0.6242
   31RES    H97 8557   1.405   3.631   6.575  0.8521  0.5061  1.2871
   31RES    H98 8558   1.491   3.497   6.654  0.8096  2.4892  0.9990
   31RES    H99 8559   1.346   3.458   6.580 -0.7205  1.0179 -0.7731
   31RES   O100 8560   1.153   3.781   6.870 -0.0763 -0.0090  0.1696
   31RES   C101 8561   1.121   3.821   7.004  0.7155 -0.5629 -0.0658
   31RES   C102 8562   1.143   3.973   7.026 -0.1234  0.2708  0.1600
   31RES   C103 8563   1.145   4.005   7.181 -0.3282  0.0223  0.4277
   31RES   O104 8564   1.172   4.141   7.204 -0.2634 -0.4612 -0.2880
   31RES   C105 8565   1.188   4.173   7.343  0.1801 -0.0334  0.2755
   31RES   H106 8566   1.197   3.784   7.073 -0.1964 -0.6171  0.9384
   31RES   H107 8567   1.016   3.803   7.030  0.1771  3.2034  0.7369
   31RES   H108 8568   1.241   3.994   6.985 -0.2824 -0.3810 -0.5607
   31RES   H109 8569   1.220   3.944   7.230 -2.2122 -2.0092  0.8752
   31RES   H110 8570   1.045   3.984   7.220 -1.4608  2.5312 -0.9710
   31RES   H111 8571   1.182   4.281   7.360 -1.9397  0.3097 -2.3048
   31RES   H112 8572   1.289   4.139   7.367  0.3519  0.5874  0.4504
   31RES   H113 8573   1.117   4.130   7.413  0.7439 -1.1632  0.1623
   31RES   O114 8574   1.038   4.040   6.964 -0.6007 -0.7605 -0.1795
   31RES   C115 8575   1.030   4.027   6.825 -0.5357 -0.0565  0.2300
   31RES   C116 8576   1.148   4.053   6.729  1.2499 -0.9380 -0.1156
   31RES   C117 8577   1.121   4.001   6.588 -0.3556 -0.4489 -0.5082
   31RES   O118 8578   1.239   4.004   6.510 -0.1614  0.3840 -0.1714
   31RES   C119 8579   1.229   3.928   6.395 -0.1896 -0.3028  0.6455
   31RES   H120 8580   0.984   3.932   6.797  2.6533 -2.0718  1.4705
   31RES   H121 8581   0.944   4.090   6.806  0.4979  0.6553 -2.1804
   31RES   H122 8582   1.235   3.998   6.767  1.2984 -1.0494 -0.3837
   31RES   H123 8583   1.092   3.897   6.607 -2.0509  0.2812  1.1015
   31RES   H124 8584   1.037   4.057   6.546  0.1193  0.7829  0.1617
   31RES   H125 8585   1.257   3.826   6.422  0.1208 -0.0923  1.1357
   31RES   H126 8586   1.305   3.951   6.321 -0.6691  0.5723  0.4155
   31RES   H127 8587   1.134   3.921   6.343  0.6626 -3.1678 -0.5892
   31RES   O128 8588   1.167   4.198   6.737 -0.8379 -0.3615  0.5847
   31RES   C129 8589   1.292   4.251   6.680  0.4315 -0.2266 -0.2587
   31RES   C130 8590   1.393   4.326   6.761  0.2703  0.7712 -0.1036
   31RES   C131 8591   1.417   4.239   6.890 -1.1114  0.1518 -0.2423
   31RES   O132 8592   1.507   4.304   6.980 -0.0149  0.4765 -0.0801
   31RES   C133 8593   1.526   4.240   7.109  0.7214  0.3321 -0.3463
   31RES   H134 8594   1.344   4.170   6.629  3.2132  0.9431  0.6294
   31RES   H135 8595   1.257   4.319   6.602  1.5505  0.6386 -0.0192
   31RES   H136 8596   1.481   4.321   6.697  1.9224 -0.7043  2.1736
   31RES   H137 8597   1.459   4.144   6.858  0.6529 -0.0335  2.4694
   31RES   H138 8598   1.326   4.211   6.942 -0.0857 -1.5550  0.6726
   31RES   H139 8599   1.438   4.196   7.156  1.3877  0.2507  0.8558
   31RES   H140 8600   1.600   4.160   7.113 -2.4315 -2.6622  0.7193
   31RES   H141 8601   1.564   4.313   7.181 -0.4995 -1.0567  1.7498
   31RES   O142 8602   1.361   4.468   6.783 -0.3186 -0.1702 -0.3864
   31RES   C143 8603   1.472   4.554   6.756  0.3495 -0.2675 -0.4641
   31RES   C144 8604   1.447   4.692   6.814 -0.7371 -0.1623  0.3903
   31RES   C145 8605   1.561   4.791   6.775  0.8570 -0.0803  0.7796
   31RES   O146 8606   1.523   4.923   6.812 -0.2268  0.3010 -0.0426
   31RES   C147 8607   1.622   5.018   6.791 -0.1334 -0.1897 -0.0982
   31RES   H148 8608   1.563   4.502   6.787  1.2669  0.7871 -1.3725
   31RES   H149 8609   1.480   4.567   6.648  4.3946 -0.7387 -0.3047
   31RES   H150 8610   1.345   4.715   6.784 -0.3063  1.6044  0.2337
   31RES   H151 8611   1.587   4.785   6.670  0.1088 -1.7430  0.6643
   31RES   H152 8612   1.652   4.758   6.824  0.0753 -0.0694  2.2769
   31RES   H153 8613   1.721   4.982   6.821  0.1563  1.5430  1.1614
   31RES   H154 8614   1.602   5.102   6.858 -2.1395 -0.0403 -0.8612
   31RES   H155 8615   1.618   5.069   6.695  0.1954  0.1516  0.0657
   31RES   O156 8616   1.448   4.663   6.956  0.4488  0.9216 -0.3770
   31RES   C157 8617   1.368   4.751   7.032  0.2591  0.5374 -0.0727
   31RES   C158 8618   1.356   4.693   7.175  0.0319  0.1869 -0.1960
   31RES   C159 8619   1.243   4.753   7.256  0.0909 -0.1298  0.3940
   31RES   O160 8620   1.241   4.705   7.392 -0.5791 -0.2114 -0.1586
   31RES   C161 8621   1.127   4.737   7.462 -0.1143 -0.5075 -0.2163
   31RES   H162 8622   1.415   4.849   7.033  0.8836  0.2469 -0.2098
   31RES   H163 8623   1.269   4.761   6.989  1.2847 -1.7039 -3.1466
   31RES   H164 8624   1.345   4.585   7.185 -1.1359  0.2129 -1.1799
   31RES   H165 8625   1.252   4.861   7.268  0.2751 -0.1338  0.3025
   31RES   H166 8626   1.152   4.727   7.203  1.2594 -0.7148 -1.3788
   31RES   H167 8627   1.034   4.723   7.407 -1.6289  0.9373  1.8706
   31RES   H168 8628   1.121   4.835   7.510  2.5614  0.2567 -1.3473
   31RES   H169 8629   1.119   4.672   7.549 -1.6847 -0.9156 -0.6514
   31RES   O170 8630   1.467   4.740   7.242 -0.0886 -0.0538  0.0087
   31RES   C171 8631   1.584   4.663   7.222 -0.1441  0.1908 -0.8660
   31RES   C172 8632   1.671   4.659   7.353 -0.5444 -0.4116 -0.4000
   31RES   C173 8633   1.707   4.797   7.408  0.1022 -0.3696  0.9419
   31RES   O174 8634   1.740   4.780   7.545 -0.1819  0.2476  0.0767
   31RES   C175 8635   1.762   4.894   7.618  0.7718 -0.6079 -0.3357
   31RES   H176 8636   1.646   4.708   7.144 -1.3732  0.5134 -1.6676
   31RES   H177 8637   1.585   4.555   7.207 -0.4642 -0.3918  2.7368
   31RES   H178 8638   1.614   4.606   7.430  2.9825 -0.5751  2.2130
   31RES   H179 8639   1.799   4.839   7.367 -0.3340 -1.7113 -1.5506
   31RES   H180 8640   1.624   4.866   7.401  0.8196  0.4277  0.1174
   31RES   H181 8641   1.785   4.860   7.719  1.2367 -1.7340 -0.8117
   31RES   H182 8642   1.671   4.952   7.604 -0.1764 -2.1058 -0.4496
   31RES   H183 8643   1.851   4.954   7.597  1.1547 -1.0040  0.1278
   31RES   O184 8644   1.782   4.575   7.320  0.6908 -0.0444  0.4262
   31RES   C185 8645   1.876   4.542   7.423  0.2401 -0.6062 -0.5974
   31RES   C186 8646   1.983   4.453   7.371 -0.2964 -0.0734  0.5925
   31RES   C187 8647   2.078   4.531   7.270 -0.0206 -0.6593  0.7837
   31RES   O188 8648   2.211   4.494   7.268  0.1586 -0.3320  0.1831
   31RES   C189 8649   2.298   4.525   7.374 -0.3702  0.0642 -0.0457
   31RES   H190 8650   1.820   4.485   7.497  0.1131  0.9805  0.5442
   31RES   H191 8651   1.919   4.633   7.464  0.3171 -0.5748 -0.7493
   31RES   H192 8652   2.045   4.420   7.455  0.1778 -0.9339 -0.0830
   31RES   H193 8653   2.074   4.637   7.296 -0.3372 -0.5444  0.2703
   31RES   H194 8654   2.043   4.529   7.167  0.0035 -1.3559  0.7874
   31RES   H195 8655   2.381   4.454   7.376 -0.1078  0.3469 -0.6872
   31RES   H196 8656   2.342   4.622   7.349 -1.3631  0.3454 -0.7180
   31RES   H197 8657   2.249   4.532   7.471 -0.1373  0.3603  0.0517
   31RES   O198 8658   1.925   4.332   7.316 -0.9669 -0.0942 -0.2508
   31RES   C199 8659   2.019   4.225   7.289  0.5044  0.3878 -0.7021
   31RES   C200 8660   1.960   4.110   7.219  0.5750 -0.7728 -0.6091
   31RES   C201 8661   2.017   3.981   7.275 -0.0722  0.8341  0.4389
   31RES   O202 8662   1.963   3.860   7.221  0.9215 -0.3940  0.3196
   31RES   C203 8663   2.043   3.785   7.130 -0.3854  0.2422 -0.2782
   31RES   H204 8664   2.050   4.198   7.390 -1.0824 -0.2046 -0.3588
   31RES   H205 8665   2.118   4.250   7.250  0.4396  0.5058 -0.7901
   31RES   H206 8666   1.853   4.097   7.233  0.6837 -1.2746 -0.2466
   31RES   H207 8667   2.124   3.978   7.259  0.1643  3.3386  1.4894
   31RES   H208 8668   2.000   3.978   7.382  2.8162 -0.5652  0.9069
   31RES   H209 8669   1.998   3.687   7.118  0.6162 -0.1141 -1.2386
   31RES   H210 8670   2.141   3.775   7.178  0.2979 -0.3759 -1.7857
   31RES   H211 8671   2.058   3.839   7.037  0.0803  2.0857  0.8378
   31RES   O212 8672   1.989   4.113   7.081 -0.1573  0.2363 -0.0499
   31RES   C213 8673   1.866   4.108   6.987 -0.7110  0.3520 -0.3159
   31RES   C214 8674   1.922   4.107   6.840  0.3413  0.3878  0.3223
   31RES   C215 8675   1.801   4.113   6.741 -0.4288  0.0451 -0.5285
   31RES   O216 8676   1.828   4.178   6.619  0.0319 -0.1116 -0.3751
   31RES   C217 8677   1.709   4.198   6.532 -0.3139  0.3085 -0.0200
   31RES   H218 8678   1.805   4.196   7.003  0.6652  1.2180  0.2754
   31RES   H219 8679   1.806   4.020   7.010 -0.1444 -0.5728 -2.2845
   31RES   H220 8680   1.992   4.191   6.839  1.1268 -0.2465  0.7291
   31RES   H221 8681   1.757   4.015   6.720 -0.8260  0.4746 -1.7375
   31RES   H222 8682   1.717   4.176   6.772 -1.5310  0.1350 -3.5214
   31RES   H223 8683   1.642   4.279   6.561 -0.9448 -0.4851  0.7667
   31RES   H224 8684   1.640   4.113   6.534  0.0826 -0.0604 -1.4047
   31RES   H225 8685   1.751   4.220   6.434  2.7141 -1.3272  0.8308
   31RES   O226 8686   1.983   3.979   6.827 -0.3836 -0.5470 -0.3543
   31RES   C227 8687   2.056   3.977   6.709 -0.5307 -0.0413 -0.5545
   31RES   C228 8688   2.150   3.849   6.717  0.4064 -0.1540 -0.3671
   31RES   C229 8689   2.205   3.814   6.575 -0.2304 -0.1139 -0.2636
   31RES   O230 8690   2.260   3.683   6.575 -0.0088  0.3397 -0.1852
   31RES   C231 8691   2.298   3.642   6.443  0.0450  0.2125  0.4731
   31RES   H232 8692   2.109   4.071   6.699 -3.0795  1.3294 -1.6002
   31RES   H233 8693   1.979   3.974   6.633 -1.3969  3.3994  0.1057
   31RES   H234 8694   2.079   3.774   6.750  0.3123  0.8973  1.8913
   31RES   H235 8695   2.279   3.890   6.546  1.1772 -1.2856  0.1818
   31RES   H236 8696   2.119   3.811   6.509  0.8891  1.3700 -1.8451
   31RES   H237 8697   2.215   3.662   6.375  0.2911 -0.5415 -0.0529
   31RES   H238 8698   2.325   3.537   6.444 -1.7579 -0.2656  0.2145
   31RES   H239 8699   2.383   3.705   6.417 -1.2645  2.6169  1.8246
   31RES   O240 8700   2.250   3.890   6.807  0.2471  0.2146  0.6009
   31RES   C241 8701   2.329   3.791   6.866  0.0096 -0.2781  0.2048
   31RES   C242 8702   2.391   3.836   7.005 -0.6312  0.2745 -0.2269
   31RES   C243 8703   2.496   3.737   7.062  0.0671 -0.2660 -0.0597
   31RES   O244 8704   2.507   3.760   7.203 -0.0039  0.3361 -0.1591
   31RES   C245 8705   2.563   3.647   7.266 -0.0718  0.3230  0.3328
   31RES   H246 8706   2.411   3.769   6.799  0.9706 -0.0299  1.2816
   31RES   H247 8707   2.270   3.701   6.885 -0.6180 -0.3144 -1.8458
   31RES   H248 8708   2.312   3.865   7.074 -2.2178  0.3992 -2.0356
   31RES   H249 8709   2.461   3.636   7.045 -1.5599  0.4229 -0.9896
   31RES   H250 8710   2.588   3.755   7.007  0.5377 -0.8224  0.5494
   31RES   H251 8711   2.670   3.637   7.245 -0.0627  2.6272 -0.9185
   31RES   H252 8712   2.514   3.550   7.253 -1.0580  0.8826 -0.1642
   31RES   H253 8713   2.559   3.667   7.373  1.0968 -1.1472  0.6787
   31RES   O254 8714   2.459   3.958   6.983 -0.1069 -0.3216  0.3488
   31RES   C255 8715   2.392   4.076   7.015  0.0399  0.5611 -0.1678
   31RES   C256 8716   2.445   4.194   6.929  0.0387  0.7032 -0.0686
   31RES   C257 8717   2.351   4.312   6.934 -0.3503 -0.2035  0.0476
   31RES   O258 8718   2.405   4.411   6.845  0.1225  0.3357  0.2831
   31RES   C259 8719   2.334   4.532   6.837 -0.0476 -0.2411  0.1955
   31RES   H260 8720   2.287   4.063   6.992 -0.1477  0.9211  0.4776
   31RES   H261 8721   2.375   4.092   7.122 -0.0324 -0.2347 -0.0575
   31RES   H262 8722   2.446   4.175   6.822  1.1880  0.9869 -0.1152
   31RES   H263 8723   2.264   4.276   6.879  0.1560  0.0463 -0.9295
   31RES   H264 8724   2.334   4.349   7.036  1.1880 -0.4741  0.4122
   31RES   H265 8725   2.383   4.608   6.777 -1.8638 -0.9680 -2.3049
   31RES   H266 8726   2.326   4.570   6.939  2.5850 -0.3812  0.4882
   31RES   H267 8727   2.234   4.511   6.798 -0.9311  1.3407  1.5310
   31RES   O268 8728   2.562   4.248   6.980 -0.0422  0.0655 -0.0496
   31RES   C269 8729   2.675   4.206   6.904 -0.0959 -0.1745 -0.1665
   31RES   C270 8730   2.794   4.295   6.922 -0.4060 -0.0254  0.3007
   31RES   C271 8731   2.895   4.261   6.810  0.1440 -0.8530  0.8757
   31RES   O272 8732   2.991   4.367   6.812 -0.1154  0.1719  0.5983
   31RES   C273 8733   3.091   4.346   6.719  0.0258 -0.5232 -0.0028
   31RES   H274 8734   2.647   4.213   6.799  0.1032  0.7473 -0.1677
   31RES   H275 8735   2.704   4.103   6.922 -1.6980 -0.6641 -0.2571
   31RES   H276 8736   2.757   4.397   6.919 -0.2865 -0.0192 -1.7696
   31RES   H277 8737   2.846   4.278   6.714 -2.9963 -0.0415  2.5485
   31RES   H278 8738   2.951   4.168   6.822  1.7714  0.1922  1.5327
   31RES   H279 8739   3.153   4.260   6.745 -1.2507 -0.3606  3.8299
   31RES   H280 8740   3.154   4.435   6.715  0.5584 -0.9471 -1.2050
   31RES   H281 8741   3.053   4.329   6.618  1.6620 -1.2259 -0.5089
   31RES   H282 8742   2.834   4.278   7.022 -0.1302  1.9437  0.5384
   32RES     O1 8743   2.108   7.324   1.551 -0.3368 -0.3147  0.1034
   32RES     C2 8744   2.139   7.232   1.652  0.4522 -0.2600 -0.1531
   32RES     C3 8745   2.277   7.182   1.634 -0.3615 -0.3890 -0.1261
   32RES     C4 8746   2.305   7.060   1.728 -0.9478 -0.3845 -0.0040
   32RES     O5 8747   2.445   7.031   1.730 -0.2800  0.0071 -0.3744
   32RES     C6 8748   2.487   6.935   1.827  0.3833 -0.5185  0.5831
   32RES     H7 8749   2.124   7.278   1.750  2.0302  0.9814 -0.4642
   32RES     H8 8750   2.078   7.142   1.655 -0.8285  0.4361 -3.1156
   32RES     H9 8751   2.354   7.258   1.646 -0.3699 -0.4717  0.4432
   32RES    H10 8752   2.234   6.980   1.708 -0.7103 -0.6606  0.2470
   32RES    H11 8753   2.275   7.082   1.831 -2.0179  1.2771 -0.6435
   32RES    H12 8754   2.590   6.902   1.813  0.6020 -0.2464  1.5105
   32RES    H13 8755   2.493   6.974   1.929  2.1864 -1.6720  0.9407
   32RES    H14 8756   2.421   6.849   1.839 -0.4363  0.2671  1.9241
   32RES    H15 8757   2.164   7.304   1.478 -1.0212 -0.9532 -0.2531
   32RES    O16 8758   2.286   7.133   1.498 -0.0919  0.2714  0.2106
   32RES    C17 8759   2.415   7.160   1.439  0.4052 -0.1880 -0.4014
   32RES    C18 8760   2.417   7.137   1.288 -0.3544  1.0610  0.3886
   32RES    C19 8761   2.317   7.228   1.217  0.1082  0.3400  0.2793
   32RES    O20 8762   2.267   7.168   1.096 -0.1127 -0.0990  0.4220
   32RES    C21 8763   2.143   7.099   1.122 -0.0797 -0.5077  0.2284
   32RES    H22 8764   2.476   7.089   1.495  0.5918  0.4745  0.2413
   32RES    H23 8765   2.452   7.260   1.461  2.4144 -1.0164  0.1317
   32RES    H24 8766   2.388   7.033   1.277 -0.3375  0.7212  3.2381
   32RES    H25 8767   2.234   7.260   1.279  0.6135  2.3743 -0.0443
   32RES    H26 8768   2.368   7.323   1.197 -1.8006  1.5156  0.8744
   32RES    H27 8769   2.123   7.062   1.021 -3.8177  1.5766  0.1298
   32RES    H28 8770   2.062   7.168   1.146 -0.2854 -1.3518  2.0390
   32RES    H29 8771   2.155   7.024   1.200 -1.1982 -1.9545 -0.9698
   32RES    O30 8772   2.556   7.152   1.261 -0.1709  0.8710  0.4222
   32RES    C31 8773   2.586   7.125   1.126  0.2268 -0.5706 -0.0240
   32RES    C32 8774   2.737   7.122   1.098  0.0225 -0.6322 -0.0252
   32RES    C33 8775   2.779   7.156   0.954 -0.2236  0.3861 -0.0009
   32RES    O34 8776   2.756   7.295   0.926  0.6049  0.7155  0.0606
   32RES    C35 8777   2.765   7.327   0.791  0.1838 -0.2996  0.7568
   32RES    H36 8778   2.532   7.037   1.091 -1.1757  0.0389  0.5438
   32RES    H37 8779   2.541   7.213   1.080  2.5734  0.7195  0.0848
   32RES    H38 8780   2.790   7.195   1.159  0.7108 -0.5469 -0.7242
   32RES    H39 8781   2.722   7.106   0.876 -1.5504  2.9423 -0.7423
   32RES    H40 8782   2.886   7.143   0.939 -0.5970 -1.0176 -1.4931
   32RES    H41 8783   2.861   7.378   0.780 -0.1112  0.3895  1.3107
   32RES    H42 8784   2.677   7.383   0.758 -0.1116 -1.2962 -0.1492
   32RES    H43 8785   2.766   7.243   0.722  0.4512  1.0594 -0.9311
   32RES    O44 8786   2.782   6.989   1.126  0.0824 -0.6044 -0.1687
   32RES    C45 8787   2.778   6.948   1.263 -0.0631 -0.1680  0.2869
   32RES    C46 8788   2.844   6.805   1.267  0.1190 -0.3878 -0.5737
   32RES    C47 8789   2.880   6.756   1.409 -0.1878  0.5030  0.2395
   32RES    O48 8790   2.880   6.608   1.429 -0.1586 -0.5331  0.3359
   32RES    C49 8791   2.988   6.547   1.351 -0.5931  0.1184  0.7052
   32RES    H50 8792   2.674   6.933   1.293 -0.0395  0.3732  0.6386
   32RES    H51 8793   2.824   7.024   1.325 -0.2307 -0.7694  1.1533
   32RES    H52 8794   2.933   6.807   1.203  0.7226 -0.6709  0.2465
   32RES    H53 8795   2.973   6.805   1.438 -0.7183 -0.0990  3.1905
   32RES    H54 8796   2.802   6.797   1.473  0.1434 -0.1788  1.0926
   32RES    H55 8797   2.996   6.579   1.247 -2.9163 -2.3164 -0.2788
   32RES    H56 8798   2.980   6.439   1.346 -0.9412  0.1676  0.0506
   32RES    H57 8799   3.080   6.576   1.401 -1.4834 -1.1365  3.1317
   32RES    O58 8800   2.746   6.707   1.225 -0.1589 -0.2191  0.0382
   32RES    C59 8801   2.755   6.678   1.089 -0.6786  0.2004  0.3390
   32RES    C60 8802   2.721   6.530   1.073  0.0904  0.4091 -0.0699
   32RES    C61 8803   2.706   6.481   0.929 -0.1002  0.2965 -0.5524
   32RES    O62 8804   2.732   6.339   0.937 -0.2117 -0.3490 -0.5996
   32RES    C63 8805   2.712   6.285   0.808  0.2563  0.7882 -0.4637
   32RES    H64 8806   2.855   6.700   1.050 -0.4970 -2.7033 -0.9435
   32RES    H65 8807   2.689   6.744   1.032  0.2294 -0.5572 -1.6662
   32RES    H66 8808   2.790   6.474   1.136 -1.2510  0.6917  1.6641
   32RES    H67 8809   2.610   6.500   0.881 -0.2447 -0.4209 -0.5468
   32RES    H68 8810   2.793   6.529   0.885 -0.3627  2.2514  0.9639
   32RES    H69 8811   2.705   6.177   0.821 -1.8379  1.1434  1.5736
   32RES    H70 8812   2.801   6.303   0.748 -0.6220 -0.4088 -2.1602
   32RES    H71 8813   2.627   6.321   0.751 -2.2794 -1.2560  1.9147
   32RES    O72 8814   2.590   6.528   1.129 -0.4260 -0.0862 -0.1434
   32RES    C73 8815   2.584   6.459   1.255 -0.5002  0.2983 -0.4318
   32RES    C74 8816   2.488   6.519   1.361  0.1564 -0.0615  0.0863
   32RES    C75 8817   2.505   6.467   1.503  0.1124 -0.1138 -0.1146
   32RES    O76 8818   2.464   6.541   1.616 -0.2766 -0.2418  0.2666
   32RES    C77 8819   2.528   6.659   1.629 -0.6167 -0.5518  0.7506
   32RES    H78 8820   2.555   6.359   1.222 -0.5783  0.0629  0.3192
   32RES    H79 8821   2.679   6.435   1.303 -0.7103 -0.5438 -0.4260
   32RES    H80 8822   2.514   6.624   1.372  2.4142 -0.5090 -0.8515
   32RES    H81 8823   2.611   6.443   1.505  0.2719  0.6784  1.4623
   32RES    H82 8824   2.448   6.375   1.514 -2.3287  1.1896 -1.4333
   32RES    H83 8825   2.557   6.678   1.733 -0.7154  1.0603  0.4991
   32RES    H84 8826   2.471   6.741   1.585  0.2340  0.7141  1.9585
   32RES    H85 8827   2.627   6.649   1.583 -1.0616 -2.1651  0.1371
   32RES    O86 8828   2.353   6.492   1.332  0.1865 -0.3215 -0.0227
   32RES    C87 8829   2.302   6.592   1.237  0.2879  0.4074 -0.8097
   32RES    C88 8830   2.145   6.606   1.238  0.3054  0.0356  0.5455
   32RES    C89 8831   2.085   6.490   1.151 -0.7380  0.0593  0.2286
   32RES    O90 8832   1.950   6.515   1.132  0.5167 -0.3355 -0.2457
   32RES    C91 8833   1.878   6.389   1.113  0.2734  0.3320 -0.2068
   32RES    H92 8834   2.343   6.691   1.260  1.5924 -0.6087  1.4486
   32RES    H93 8835   2.332   6.567   1.135 -0.1270 -2.2956 -0.2882
   32RES    H94 8836   2.126   6.706   1.198 -1.1016 -0.4878 -0.1464
   32RES    H95 8837   2.135   6.476   1.055 -0.5563  0.0333  0.3268
   32RES    H96 8838   2.106   6.405   1.216  0.8925  0.4624  0.2512
   32RES    H97 8839   1.873   6.335   1.207  1.1607 -1.8063 -1.3500
   32RES    H98 8840   1.775   6.418   1.089 -0.5325  1.1081  3.9242
   32RES    H99 8841   1.916   6.335   1.026  0.6269 -0.8958  0.7184
   32RES   O100 8842   2.094   6.601   1.366  0.1942  0.4006 -0.5044
   32RES   C101 8843   2.156   6.697   1.457 -0.1945 -0.2225  0.1809
   32RES   C102 8844   2.084   6.692   1.596  0.6249  0.4925  0.1756
   32RES   C103 8845   2.098   6.562   1.675 -0.1165  0.0313 -0.8894
   32RES   O104 8846   2.083   6.598   1.813  0.6885  0.1334 -0.0672
   32RES   C105 8847   1.948   6.580   1.865  0.2622  0.5194 -0.1470
   32RES   H106 8848   2.156   6.795   1.409 -2.2585 -0.6440 -0.7375
   32RES   H107 8849   2.261   6.677   1.478  0.4562  1.6790 -1.1314
   32RES   H108 8850   2.136   6.770   1.652 -0.5360  1.2248  0.2604
   32RES   H109 8851   2.194   6.512   1.660  0.4844  0.8603  0.1768
   32RES   H110 8852   2.020   6.490   1.650  0.8789 -1.9287  1.4341
   32RES   H111 8853   1.882   6.648   1.811  1.2736  1.1782 -0.5723
   32RES   H112 8854   1.937   6.585   1.973  1.8029  1.0053  0.0028
   32RES   H113 8855   1.915   6.479   1.842  0.2485  0.3188  0.7324
   32RES   O114 8856   1.949   6.719   1.582 -0.0135 -0.1754  0.3384
   32RES   C115 8857   1.910   6.852   1.586 -0.0908 -0.5475  0.2245
   32RES   C116 8858   1.903   6.925   1.449 -0.0255 -0.0739 -0.2314
   32RES   C117 8859   1.839   6.832   1.343 -0.0297  0.0864 -0.3549
   32RES   O118 8860   1.855   6.893   1.219 -0.3902  0.1130  0.6863
   32RES   C119 8861   1.776   6.843   1.110 -0.3710 -0.4647 -0.2535
   32RES   H120 8862   1.818   6.849   1.644 -0.6542 -1.0437 -0.6791
   32RES   H121 8863   1.985   6.905   1.646  1.7251 -1.4954 -1.1444
   32RES   H122 8864   2.002   6.963   1.422  0.8139 -3.4184 -2.1787
   32RES   H123 8865   1.884   6.733   1.340  1.6226  0.6888  2.5591
   32RES   H124 8866   1.732   6.820   1.360 -0.5903 -0.5999 -3.9628
   32RES   H125 8867   1.797   6.906   1.024 -1.3346  0.4412  0.1584
   32RES   H126 8868   1.669   6.843   1.129 -0.5334 -1.6703 -1.1222
   32RES   H127 8869   1.804   6.747   1.068  0.1911  0.8587 -3.0268
   32RES   O128 8870   1.818   7.035   1.482 -0.1543 -0.0679  0.7489
   32RES   C129 8871   1.827   7.146   1.399  0.7794  0.3487 -0.0519
   32RES   C130 8872   1.718   7.256   1.437  0.2015  0.5677 -0.8671
   32RES   C131 8873   1.734   7.318   1.574 -0.0346 -0.4754 -0.0709
   32RES   O132 8874   1.659   7.442   1.590  0.0542 -0.2362  0.7830
   32RES   C133 8875   1.721   7.536   1.673  0.4463 -0.3029  0.5584
   32RES   H134 8876   1.920   7.203   1.404  1.2859 -0.2671 -2.1303
   32RES   H135 8877   1.815   7.122   1.294 -1.4540  1.0747  0.0096
   32RES   H136 8878   1.734   7.339   1.367  2.8835 -0.0072 -0.9852
   32RES   H137 8879   1.838   7.320   1.607  1.5096  0.7248 -4.7072
   32RES   H138 8880   1.672   7.252   1.635 -2.1580  1.2209 -0.3280
   32RES   H139 8881   1.778   7.491   1.754 -0.4229 -1.0647  0.7500
   32RES   H140 8882   1.786   7.603   1.617 -0.9302 -2.4344 -3.8245
   32RES   H141 8883   1.644   7.594   1.723 -0.3054 -2.1406  1.6005
   32RES   O142 8884   1.588   7.206   1.420 -0.1112  0.1735  0.5717
   32RES   C143 8885   1.545   7.185   1.278  0.4036 -0.0709 -0.1638
   32RES   C144 8886   1.393   7.159   1.283  0.2372 -0.1211  0.1414
   32RES   C145 8887   1.346   7.087   1.152 -0.5088  0.1881 -0.0202
   32RES   O146 8888   1.215   7.029   1.173  0.1141  0.1908 -0.5591
   32RES   C147 8889   1.167   6.964   1.056  0.1949  0.3066  0.3717
   32RES   H148 8890   1.576   7.261   1.206  1.3703 -0.6388 -0.3502
   32RES   H149 8891   1.607   7.103   1.241  0.6792  0.6583 -1.3473
   32RES   H150 8892   1.368   7.086   1.359  1.0161  0.6809  1.1854
   32RES   H151 8893   1.407   7.004   1.116 -1.0103 -1.7893  3.4600
   32RES   H152 8894   1.339   7.158   1.070  1.4463  0.9448  0.4572
   32RES   H153 8895   1.069   6.927   1.086 -0.1424  0.4085 -0.5913
   32RES   H154 8896   1.236   6.892   1.013 -0.0673  1.4901 -2.1570
   32RES   H155 8897   1.156   7.036   0.975 -0.0342 -0.3212 -0.1628
   32RES   O156 8898   1.318   7.287   1.282 -0.0538 -0.2012 -0.2689
   32RES   C157 8899   1.303   7.342   1.416  0.3110 -0.1580  0.2326
   32RES   C158 8900   1.181   7.431   1.446 -0.2412 -0.5921  0.0343
   32RES   C159 8901   1.177   7.477   1.594 -0.2007 -0.6008 -0.0883
   32RES   O160 8902   1.144   7.617   1.610  0.2965 -0.2200  0.0028
   32RES   C161 8903   1.184   7.659   1.734 -0.0821  0.5480  0.1568
   32RES   H162 8904   1.323   7.270   1.496 -0.3425 -1.5861 -0.8566
   32RES   H163 8905   1.386   7.412   1.404 -1.3091  1.8233  0.4336
   32RES   H164 8906   1.191   7.515   1.376  0.5336 -0.3963  0.3720
   32RES   H165 8907   1.116   7.409   1.653 -0.9674 -0.7845 -1.0859
   32RES   H166 8908   1.282   7.463   1.622  0.6565  0.9098 -2.3632
   32RES   H167 8909   1.167   7.588   1.815 -2.2595  0.1731 -0.5921
   32RES   H168 8910   1.146   7.760   1.752 -1.1969  0.2486 -0.4797
   32RES   H169 8911   1.291   7.675   1.722 -0.2745  1.4871 -0.4183
   32RES   O170 8912   1.054   7.360   1.425  0.1734 -0.1547  0.2036
   32RES   C171 8913   1.031   7.293   1.305 -0.3552  0.0870  0.3328
   32RES   C172 8914   0.886   7.248   1.296  0.2296 -0.2879  0.2584
   32RES   C173 8915   0.878   7.154   1.173 -0.0349  0.2459 -0.1009
   32RES   O174 8916   0.749   7.097   1.186 -0.0597  0.1501  0.7180
   32RES   C175 8917   0.692   7.057   1.061 -0.7865  0.1435  0.3627
   32RES   H176 8918   1.098   7.207   1.299  0.2999  0.6135  0.0314
   32RES   H177 8919   1.055   7.355   1.219  0.4909 -1.5654 -0.6621
   32RES   H178 8920   0.848   7.201   1.387  0.3480 -0.8079  0.0396
   32RES   H179 8921   0.892   7.219   1.086  1.1817  0.2682  0.0977
   32RES   H180 8922   0.963   7.085   1.176 -1.1407 -1.0895  1.0419
   32RES   H181 8923   0.767   6.991   1.017 -0.3408  1.3717 -0.7612
   32RES   H182 8924   0.685   7.145   0.996 -2.1744 -1.0752 -1.1774
   32RES   H183 8925   0.592   7.017   1.075 -1.3850  1.7668  0.8161
   32RES   O184 8926   0.797   7.355   1.262  0.6716 -0.6407  0.4935
   32RES   C185 8927   0.779   7.452   1.361  0.3985  0.4085 -0.0199
   32RES   C186 8928   0.643   7.506   1.336 -0.3382 -0.0096  0.2370
   32RES   C187 8929   0.636   7.630   1.421  0.2390  0.0334  1.2533
   32RES   O188 8930   0.568   7.726   1.349 -0.1449  0.4728 -0.8574
   32RES   C189 8931   0.538   0.018   1.433 -0.4478  0.3347 -0.5698
   32RES   H190 8932   0.850   7.528   1.327 -0.2727  1.0751  0.0739
   32RES   H191 8933   0.800   7.418   1.463 -1.2803  1.3484  0.6486
   32RES   H192 8934   0.635   7.542   1.233  0.6145 -0.0173  0.1576
   32RES   H193 8935   0.731   7.683   1.429 -0.3841  1.1427  1.3551
   32RES   H194 8936   0.606   7.605   1.523  3.7847  1.3522  2.6969
   32RES   H195 8937   0.501   7.799   1.529 -2.2623  1.3277 -0.8682
   32RES   H196 8938   0.634   0.064   1.456 -0.9870  0.4436  1.6396
   32RES   H197 8939   0.464   0.084   1.387 -0.4134  0.1665 -0.8628
   32RES   O198 8940   0.541   7.422   1.381 -0.3932 -0.2649  0.0464
   32RES   C199 8941   0.540   7.294   1.328  0.3302  0.8450 -0.0254
   32RES   C200 8942   0.399   7.228   1.348  0.3127 -0.0640 -0.0661
   32RES   C201 8943   0.419   7.073   1.353  0.2447  0.2547  0.0528
   32RES   O202 8944   0.305   7.027   1.418  0.0259 -0.1731  0.3236
   32RES   C203 8945   0.315   6.885   1.445 -0.1770 -0.2118  0.3625
   32RES   H204 8946   0.628   7.246   1.371  0.7957  1.5744 -0.1530
   32RES   H205 8947   0.555   7.310   1.221 -1.0143  3.1591  0.0797
   32RES   H206 8948   0.348   7.259   1.440  1.0902 -1.0024  0.6934
   32RES   H207 8949   0.423   7.039   1.250 -2.8515  0.9974 -0.3768
   32RES   H208 8950   0.504   7.046   1.415  0.2821 -0.1085 -0.1575
   32RES   H209 8951   0.220   6.859   1.491 -0.3318  0.1074  0.2320
   32RES   H210 8952   0.402   6.871   1.509  1.1149  0.3434 -1.2239
   32RES   H211 8953   0.318   6.816   1.361  0.0593  0.5799 -0.2956
   32RES   O212 8954   0.322   7.253   1.234  0.3811 -0.1578  0.1857
   32RES   C213 8955   0.253   7.374   1.236 -0.5370 -0.5037 -0.5021
   32RES   C214 8956   0.181   7.410   1.105 -0.2963  0.2486 -0.0881
   32RES   C215 8957   0.134   7.556   1.100 -0.2078 -0.0457 -0.5733
   32RES   O216 8958   0.112   7.590   0.964 -0.7308  0.5044 -0.4636
   32RES   C217 8959   0.056   7.719   0.944 -0.6907 -0.0471  1.1167
   32RES   H218 8960   0.313   7.462   1.262  0.2320 -0.8099 -1.1792
   32RES   H219 8961   0.188   7.359   1.321 -0.4491  2.1771  0.1054
   32RES   H220 8962   0.246   7.388   1.020 -1.5291 -0.3967 -0.8711
   32RES   H221 8963   0.037   7.561   1.149 -0.0246 -0.5170 -0.1643
   32RES   H222 8964   0.206   7.622   1.148 -0.1525  0.4698 -1.3484
   32RES   H223 8965   7.768   7.737   0.967 -1.4334 -0.0054 -2.0390
   32RES   H224 8966   0.075   7.752   0.841 -0.5000 -2.5028  0.3403
   32RES   H225 8967   0.112   7.781   1.014  1.2595 -0.2403 -0.2294
   32RES   O226 8968   0.071   7.317   1.110 -0.0362  0.2102  0.2413
   32RES   C227 8969   7.795   7.314   1.001 -0.3480 -0.3205  0.2962
   32RES   C228 8970   7.695   7.196   1.016  0.0406  0.4726  0.1840
   32RES   C229 8971   7.605   7.229   1.134 -0.7125 -0.3718  0.1174
   32RES   O230 8972   7.521   7.131   1.190 -0.4660  0.1698 -0.4552
   32RES   C231 8973   7.433   7.191   1.283 -0.4333  0.1202 -0.3930
   32RES   H232 8974   0.026   7.292   0.906  2.1952  1.3026  1.1617
   32RES   H233 8975   7.752   7.414   0.988  1.0294  0.1644 -0.6330
   32RES   H234 8976   7.749   7.106   1.043 -0.5801 -0.0596 -0.3455
   32RES   H235 8977   7.555   7.326   1.134  1.7253  0.9438 -1.7631
   32RES   H236 8978   7.670   7.253   1.218 -0.9997  1.2529 -0.1178
   32RES   H237 8979   7.470   7.231   1.378  0.5564  2.1245 -1.5808
   32RES   H238 8980   7.360   7.111   1.290  0.3392 -0.6386 -0.8799
   32RES   H239 8981   7.373   7.269   1.237 -2.2324 -0.2065  1.3281
   32RES   O240 8982   7.625   7.174   0.896 -0.0267  0.7716  0.6347
   32RES   C241 8983   7.645   7.046   0.836  0.2084  0.0824  0.1705
   32RES   C242 8984   7.569   7.015   0.714  0.0610 -0.4256 -0.3108
   32RES   C243 8985   7.415   7.018   0.748  0.0877 -0.0691  0.1890
   32RES   O244 8986   7.338   6.968   0.632  0.1241  0.3997  0.5271
   32RES   C245 8987   7.281   7.073   0.547 -0.2205  0.0435  0.1622
   32RES   H246 8988   7.619   6.968   0.907 -2.2964  0.2905 -0.4656
   32RES   H247 8989   7.752   7.031   0.820 -0.2633 -3.4798 -0.2523
   32RES   H248 8990   7.582   6.914   0.675 -0.0445 -0.0846 -1.2520
   32RES   H249 8991   7.402   6.944   0.826  1.0563 -0.4496  0.0039
   32RES   H250 8992   7.379   7.111   0.791 -2.5852 -1.1496  0.3996
   32RES   H251 8993   7.220   7.134   0.613  0.5748 -0.3428  1.2585
   32RES   H252 8994   7.204   7.045   0.474  1.4352 -0.8117 -1.3100
   32RES   H253 8995   7.364   7.125   0.498  0.7147 -0.8591  0.7673
   32RES   O254 8996   7.602   7.113   0.606 -0.0054 -0.1948 -0.0245
   32RES   C255 8997   7.706   7.077   0.522 -0.1129 -0.1532 -0.4332
   32RES   C256 8998   7.663   6.986   0.403 -0.2362  0.8503  0.2979
   32RES   C257 8999   7.779   6.970   0.304  0.3915  0.1373 -0.1617
   32RES   O258 9000   7.803   7.092   0.240  0.0177  0.2297 -0.1190
   32RES   C259 9001   0.066   7.080   0.121  0.6257 -0.1606  0.1107
   32RES   H260 9002   7.755   7.161   0.472  3.9236 -1.2912  1.4217
   32RES   H261 9003   7.786   7.021   0.571 -1.3437 -0.6818  1.0112
   32RES   H262 9004   7.579   7.038   0.357  0.5344  0.1312 -1.9947
   32RES   H263 9005   0.059   6.946   0.348  0.0647 -0.0519  0.4664
   32RES   H264 9006   7.763   6.893   0.229  0.3085  0.9084 -0.9401
   32RES   H265 9007   0.085   7.178   0.076  0.1751  0.1412  0.5677
   32RES   H266 9008   0.022   7.028   0.036  2.3943 -2.0843  0.3438
   32RES   H267 9009   0.158   7.026   0.138  1.8283  1.2714 -1.6642
   32RES   O268 9010   7.637   6.862   0.464 -0.0995 -0.0230  0.0040
   32RES   C269 9011   7.526   6.802   0.392  0.2561  1.0289  0.4564
   32RES   C270 9012   7.458   6.686   0.468 -0.0909 -0.5072 -0.0662
   32RES   C271 9013   7.379   6.595   0.374 -0.3360  0.8318 -0.2477
   32RES   O272 9014   7.470   6.503   0.312  0.3467 -0.2186 -0.2042
   32RES   C273 9015   7.399   6.412   0.229 -0.1199 -0.2303  0.2287
   32RES   H274 9016   7.565   6.766   0.296  0.2266  1.2001  0.3811
   32RES   H275 9017   7.446   6.874   0.379  0.9862  1.4802 -1.6508
   32RES   H276 9018   7.531   6.625   0.522  0.1583 -0.7476 -0.6751
   32RES   H277 9019   7.312   6.649   0.308 -1.3042  0.0168  0.0650
   32RES   H278 9020   7.311   6.526   0.424 -3.1816  2.9911 -1.0166
   32RES   H279 9021   7.333   6.464   0.160  1.7343 -1.5079 -2.6192
   32RES   H280 9022   7.345   6.343   0.294 -0.6595 -0.5970 -0.6058
   32RES   H281 9023   7.474   6.351   0.178 -1.5936 -2.9523  1.2403
   32RES   H282 9024   7.394   6.725   0.547  0.3897  1.3878 -0.6098
   33RES     O1 9025   4.570   7.262   5.153  0.2849  0.1863  0.6734
   33RES     C2 9026   4.489   7.154   5.190  0.3309 -0.0535 -0.2284
   33RES     C3 9027   4.342   7.186   5.220  0.2582  0.6269 -0.1068
   33RES     C4 9028   4.261   7.053   5.208 -0.1500 -0.9317 -0.2800
   33RES     O5 9029   4.121   7.078   5.202  0.2827  0.4422 -0.2290
   33RES     C6 9030   4.035   6.964   5.204  0.3533  0.0681  0.5108
   33RES     H7 9031   4.489   7.087   5.104  0.5798  2.3977 -2.1930
   33RES     H8 9032   4.533   7.098   5.273 -0.5693 -0.1817  0.1660
   33RES     H9 9033   4.311   7.265   5.151 -0.8925 -0.4921 -0.8748
   33RES    H10 9034   4.279   7.005   5.304  0.6519 -0.7868 -0.3604
   33RES    H11 9035   4.283   7.004   5.113  0.1547  0.1017 -0.7572
   33RES    H12 9036   4.060   6.886   5.275  0.6560  0.3099  0.6677
   33RES    H13 9037   3.932   6.993   5.224  0.8910  0.2867  3.1497
   33RES    H14 9038   4.041   6.921   5.104 -0.3379 -0.2866  0.6191
   33RES    H15 9039   4.568   7.315   5.231 -2.0784  0.8488  0.2216
   33RES    O16 9040   4.338   7.219   5.361  0.1166 -0.1393  0.0539
   33RES    C17 9041   4.229   7.306   5.401  0.5155  0.1003  0.0131
   33RES    C18 9042   4.248   7.318   5.555 -0.8174  0.1320  0.5405
   33RES    C19 9043   4.208   7.452   5.597 -0.5133  0.4933  0.6691
   33RES    O20 9044   4.259   7.467   5.727 -0.0969  0.1547  0.1071
   33RES    C21 9045   4.181   7.427   5.833  0.5956  0.3978 -0.3196
   33RES    H22 9046   4.130   7.262   5.387  0.2532 -0.5536  3.3656
   33RES    H23 9047   4.248   7.396   5.342  1.8330 -0.3962 -0.3471
   33RES    H24 9048   4.352   7.299   5.581 -0.1962  1.7568 -0.6784
   33RES    H25 9049   4.255   7.528   5.534 -1.0153 -1.0085 -1.6011
   33RES    H26 9050   4.100   7.452   5.590 -0.5516  0.9886  1.2558
   33RES    H27 9051   4.132   7.329   5.839 -0.5087  1.0946  2.6061
   33RES    H28 9052   4.099   7.498   5.837  2.3908  2.4828  0.1952
   33RES    H29 9053   4.232   7.427   5.928  0.7879 -0.0800 -0.4233
   33RES    O30 9054   4.166   7.220   5.620  0.2369 -0.0729  0.0913
   33RES    C31 9055   4.230   7.099   5.647  0.4709 -0.0420 -0.5356
   33RES    C32 9056   4.143   7.005   5.730 -0.5659  0.1439  0.2541
   33RES    C33 9057   4.220   6.895   5.803  0.2262  0.7094  0.3776
   33RES    O34 9058   4.133   6.824   5.895 -0.1099  0.2623 -0.4068
   33RES    C35 9059   4.107   6.887   6.024 -0.2125 -0.0179  0.3950
   33RES    H36 9060   4.246   7.043   5.555 -0.2052 -1.7899  0.3823
   33RES    H37 9061   4.329   7.109   5.691  0.8791 -0.8774 -1.2469
   33RES    H38 9062   4.099   7.072   5.804  2.4674  0.8826  1.4545
   33RES    H39 9063   4.314   6.926   5.848  0.9893 -2.9236  1.4771
   33RES    H40 9064   4.257   6.818   5.734  1.4210  1.2827  0.3731
   33RES    H41 9065   4.201   6.926   6.063  0.5003 -1.5890  0.3027
   33RES    H42 9066   4.066   6.818   6.097 -2.7402  0.1815 -0.7919
   33RES    H43 9067   4.036   6.968   6.010  1.6780  1.3877 -1.2672
   33RES    O44 9068   4.044   6.956   5.636 -0.0297 -0.2193 -0.3691
   33RES    C45 9069   3.905   6.957   5.672  0.6549 -0.4758 -0.7417
   33RES    C46 9070   3.820   6.925   5.549 -0.2019  0.1365  0.6515
   33RES    C47 9071   3.705   6.825   5.562  0.1527 -0.3186 -0.0155
   33RES    O48 9072   3.687   6.758   5.441  0.2816 -0.2294  0.2055
   33RES    C49 9073   3.563   6.684   5.441  0.6627 -0.2441  0.5991
   33RES    H50 9074   3.890   7.054   5.720  2.1298 -0.4364 -0.3560
   33RES    H51 9075   3.893   6.876   5.744 -0.4574 -1.7463 -2.3175
   33RES    H52 9076   3.875   6.893   5.461  0.3917 -0.3655  1.2039
   33RES    H53 9077   3.730   6.750   5.637  1.6795 -0.3546 -0.5457
   33RES    H54 9078   3.616   6.869   5.607 -0.6268  0.0553 -1.9068
   33RES    H55 9079   3.555   6.626   5.350 -3.5733  1.4595 -0.2318
   33RES    H56 9080   3.474   6.744   5.458  0.6774 -0.1016  0.1746
   33RES    H57 9081   3.564   6.607   5.518 -1.7685 -0.8787  0.0324
   33RES    O58 9082   3.757   7.045   5.501  0.2672  0.1627 -0.5428
   33RES    C59 9083   3.840   7.158   5.481 -0.0123 -0.0546 -0.7137
   33RES    C60 9084   3.762   7.249   5.388  0.4339 -0.9761  0.2940
   33RES    C61 9085   3.853   7.342   5.313  0.5526 -0.1838 -0.1361
   33RES    O62 9086   3.792   7.397   5.202 -0.0473  0.3030  0.3239
   33RES    C63 9087   3.893   7.442   5.110  0.4706  0.2249 -0.2340
   33RES    H64 9088   3.933   7.127   5.432 -1.4057 -1.8696 -2.2597
   33RES    H65 9089   3.863   7.222   5.566 -0.3004  0.8430 -1.3104
   33RES    H66 9090   3.711   7.190   5.311 -0.9017  0.3870  0.1265
   33RES    H67 9091   3.881   7.422   5.382  0.9174 -0.3677 -0.0691
   33RES    H68 9092   3.942   7.290   5.277  0.5341  0.1823 -0.7149
   33RES    H69 9093   3.953   7.521   5.156  0.5982  0.5449 -0.9410
   33RES    H70 9094   3.838   7.479   5.024  0.8295  0.9297 -0.1624
   33RES    H71 9095   3.959   7.366   5.069  2.3282  1.9927 -0.6342
   33RES    O72 9096   3.664   7.329   5.460 -0.2843  0.5029  0.3239
   33RES    C73 9097   3.580   7.415   5.379  0.0512  0.0152 -0.1525
   33RES    C74 9098   3.457   7.478   5.458 -0.0206 -0.1296  0.1579
   33RES    C75 9099   3.350   7.547   5.365 -0.1486 -0.1167 -0.0794
   33RES    O76 9100   3.245   7.597   5.453  0.0903 -0.0456  0.2753
   33RES    C77 9101   3.145   7.675   5.394  0.2558  0.0201  0.1096
   33RES    H78 9102   3.632   7.501   5.339  0.1305 -1.5082 -3.4962
   33RES    H79 9103   3.551   7.371   5.283 -0.6947 -1.4427  0.7265
   33RES    H80 9104   3.402   7.403   5.515 -0.4186  0.1228  0.1088
   33RES    H81 9105   3.314   7.475   5.291 -1.3341  0.4972 -0.1059
   33RES    H82 9106   3.397   7.634   5.319  1.5628 -0.9823  0.0093
   33RES    H83 9107   3.052   7.648   5.444 -0.1900  0.1028 -0.6778
   33RES    H84 9108   3.138   7.657   5.287 -2.2123 -1.2318  0.4413
   33RES    H85 9109   3.177   7.777   5.412  2.9144 -1.1409  2.4541
   33RES    O86 9110   3.517   7.572   5.549 -0.2134 -0.4008  0.2856
   33RES    C87 9111   3.535   7.523   5.680  0.1691 -0.2609  0.0017
   33RES    C88 9112   3.403   7.554   5.749  0.2595 -0.2795  0.0260
   33RES    C89 9113   3.386   7.462   5.867 -0.6392  0.1700  0.4739
   33RES    O90 9114   3.279   7.498   5.948 -0.6507  0.4517 -0.2081
   33RES    C91 9115   3.268   7.411   6.064  0.0298  0.6764 -0.3614
   33RES    H92 9116   3.559   7.417   5.680  0.3152 -0.2280 -0.1984
   33RES    H93 9117   3.613   7.569   5.740 -0.0100  1.3511 -0.9648
   33RES    H94 9118   3.318   7.559   5.681  0.5695 -0.3708 -0.3706
   33RES    H95 9119   3.369   7.358   5.838  0.0301  0.0446  0.5170
   33RES    H96 9120   3.470   7.452   5.936  0.4143 -0.8014 -0.9163
   33RES    H97 9121   3.173   7.433   6.112 -1.1118 -1.0548 -1.7837
   33RES    H98 9122   3.277   7.303   6.054  1.6200  0.8406 -0.8657
   33RES    H99 9123   3.352   7.437   6.128 -0.7322 -0.1303  0.9713
   33RES   O100 9124   3.438   7.675   5.812  0.5281 -0.1196  0.1990
   33RES   C101 9125   3.329   7.762   5.842  1.2748 -0.3298  0.1015
   33RES   C102 9126   3.297   0.042   5.725 -0.2566 -0.5967 -0.0169
   33RES   C103 9127   3.407   0.142   5.698  0.3109 -0.4533 -0.0036
   33RES   O104 9128   3.390   0.209   5.574  0.1101 -0.4345  0.0022
   33RES   C105 9129   3.490   0.301   5.547 -0.1471 -1.0853  0.3662
   33RES   H106 9130   3.362   0.006   5.926  0.8186 -0.0082  0.0523
   33RES   H107 9131   3.236   7.718   5.880  1.2799  0.7826  1.4327
   33RES   H108 9132   3.294   7.806   5.630  1.5740 -0.5746 -0.1058
   33RES   H109 9133   3.508   0.103   5.712 -0.1114 -1.4183  0.3539
   33RES   H110 9134   3.382   0.203   5.785  2.3660 -2.0823  1.7719
   33RES   H111 9135   3.592   0.267   5.532 -0.2227 -0.7832 -0.8790
   33RES   H112 9136   3.475   0.380   5.620  0.0238  0.0403 -0.8142
   33RES   H113 9137   3.471   0.357   5.455  0.6320 -1.0383  0.2286
   33RES   O114 9138   3.177   0.115   5.758 -0.4935 -0.1196  0.2022
   33RES   C115 9139   3.072   0.122   5.654  0.0956 -0.5813  0.2656
   33RES   C116 9140   2.955   0.198   5.693  0.0911  0.3855  0.8022
   33RES   C117 9141   2.853   0.198   5.572 -0.6961  0.4011 -0.6531
   33RES   O118 9142   2.752   0.291   5.605 -0.8976 -0.9470 -0.1294
   33RES   C119 9143   2.657   0.308   5.505 -0.0627 -0.5325 -0.2382
   33RES   H120 9144   3.114   0.152   5.558 -2.2585 -0.3244 -0.7233
   33RES   H121 9145   3.045   0.019   5.633 -0.7216 -0.3038 -0.0437
   33RES   H122 9146   2.991   0.297   5.722  0.7949 -0.1177  1.6627
   33RES   H123 9147   2.909   0.229   5.484  2.2028  1.2739  1.4272
   33RES   H124 9148   2.822   0.095   5.556 -1.3866  0.6670 -1.0273
   33RES   H125 9149   2.577   0.235   5.492  0.4560 -0.9540 -1.0793
   33RES   H126 9150   2.702   0.304   5.406  0.5702 -1.9837  0.0942
   33RES   H127 9151   2.603   0.402   5.517 -1.8322 -1.4980 -0.5056
   33RES   O128 9152   2.891   0.142   5.803  0.3335  0.7046 -0.5548
   33RES   C129 9153   2.829   0.235   5.890  0.2354  0.2396 -0.5444
   33RES   C130 9154   2.774   0.173   6.020  0.2329 -0.4319 -0.6275
   33RES   C131 9155   2.683   0.276   6.088  0.3514  0.1010  0.6382
   33RES   O132 9156   2.581   0.211   6.168 -0.7883 -0.4103 -0.1850
   33RES   C133 9157   2.622   0.159   6.293 -0.0760  0.2307  0.1709
   33RES   H134 9158   2.899   0.316   5.910  1.5111 -1.7796  3.6421
   33RES   H135 9159   2.744   0.281   5.839 -0.0288  0.8895  0.4871
   33RES   H136 9160   2.713   0.086   5.995 -0.9549 -0.1004  1.0164
   33RES   H137 9161   2.626   0.320   6.007  0.5027 -0.3200  0.3008
   33RES   H138 9162   2.736   0.359   6.134  0.9767 -0.7528  1.4971
   33RES   H139 9163   2.549   0.080   6.313 -0.3014  0.0246 -1.4642
   33RES   H140 9164   2.722   0.116   6.299  1.3589  2.5660 -4.5007
   33RES   H141 9165   2.616   0.236   6.370  0.0126  1.9876 -1.5371
   33RES   O142 9166   2.889   0.150   6.108  0.7253  0.0209  0.1991
   33RES   C143 9167   2.910   0.011   6.136 -0.2863  0.3665 -0.6077
   33RES   C144 9168   3.019   7.790   6.243  0.4188  0.2256  0.0300
   33RES   C145 9169   3.153   7.775   6.179  0.2782 -0.2201  0.3733
   33RES   O146 9170   3.250   7.795   6.279  0.6649  0.1157 -0.3267
   33RES   C147 9171   3.379   7.776   6.219 -0.3747 -0.7206  0.0929
   33RES   H148 9172   2.816   7.795   6.180  0.5102  0.6608  1.3821
   33RES   H149 9173   2.914   7.775   6.041 -1.0009 -2.7893  1.0598
   33RES   H150 9174   3.024   0.052   6.318  0.4725  1.1239 -0.9019
   33RES   H151 9175   3.164   0.036   6.103 -1.3979 -1.9650 -1.7155
   33RES   H152 9176   3.151   7.684   6.119  2.8900  0.5587 -0.9931
   33RES   H153 9177   3.445   7.780   6.306 -1.2031  0.0287  0.7019
   33RES   H154 9178   3.392   0.053   6.164 -4.3666 -0.2932 -0.2925
   33RES   H155 9179   3.387   7.686   6.158 -0.8006 -0.7183  0.0333
   33RES   O156 9180   2.981   7.670   6.303  0.1066 -0.9829 -0.4253
   33RES   C157 9181   2.995   7.675   6.446 -0.4574  0.3249  0.3835
   33RES   C158 9182   2.983   7.529   6.482 -0.0174  0.0353 -0.2183
   33RES   C159 9183   3.031   7.504   6.629 -0.1343 -0.0024 -0.5331
   33RES   O160 9184   2.994   7.376   6.692  0.3173  0.3352 -0.1097
   33RES   C161 9185   2.867   7.381   6.741  0.7094 -0.0559 -0.2414
   33RES   H162 9186   3.084   7.717   6.492  0.0936  0.1537 -0.5128
   33RES   H163 9187   2.913   7.730   6.492  1.1410  2.7313  0.3871
   33RES   H164 9188   2.878   7.500   6.474  0.9565 -3.7923 -0.1005
   33RES   H165 9189   3.140   7.502   6.626 -0.0794  0.6216  0.7641
   33RES   H166 9190   2.990   7.584   6.690 -0.3435  0.4107 -1.2091
   33RES   H167 9191   2.789   7.413   6.673 -2.4349 -2.4908  2.0799
   33RES   H168 9192   2.862   7.450   6.825  0.7813 -1.7032  1.1507
   33RES   H169 9193   2.836   7.284   6.779  0.0621 -0.2382 -1.2303
   33RES   O170 9194   3.065   7.436   6.400  0.6245  0.3616  0.1488
   33RES   C171 9195   3.028   7.298   6.406  0.1731  0.1277  1.0031
   33RES   C172 9196   2.915   7.268   6.301 -0.3823 -1.6042 -0.0081
   33RES   C173 9197   2.904   7.122   6.269 -0.0412 -0.4175 -0.3080
   33RES   O174 9198   2.813   7.076   6.365 -0.2522 -0.2159 -0.4015
   33RES   C175 9199   2.792   6.940   6.373 -0.5084  0.3843  0.4178
   33RES   H176 9200   2.994   7.265   6.504  1.0167 -1.6437  0.7225
   33RES   H177 9201   3.120   7.249   6.374  0.4356  1.0434  0.3138
   33RES   H178 9202   2.824   7.314   6.342  0.7414  1.9633 -1.2988
   33RES   H179 9203   2.857   7.123   6.171 -0.4217 -2.1641 -0.1531
   33RES   H180 9204   3.003   7.076   6.269  0.3482  0.4054  0.6319
   33RES   H181 9205   2.884   6.887   6.395 -1.3411 -1.0279  0.5961
   33RES   H182 9206   2.738   6.904   6.285  0.8503 -2.8575  0.8324
   33RES   H183 9207   2.719   6.935   6.454  0.0984 -1.5749  0.8694
   33RES   O184 9208   2.951   7.330   6.177  0.2737 -0.2054 -0.3416
   33RES   C185 9209   2.843   7.393   6.112  0.5677 -0.2288 -0.2849
   33RES   C186 9210   2.888   7.433   5.971 -0.3858  0.0463  0.1870
   33RES   C187 9211   2.771   7.474   5.888  0.7944 -0.4208  0.1612
   33RES   O188 9212   2.821   7.528   5.769  0.2318  0.1192  0.1051
   33RES   C189 9213   2.890   7.646   5.777  0.5986  0.8471  0.3914
   33RES   H190 9214   2.815   7.489   6.156 -2.2021  0.4862 -3.3825
   33RES   H191 9215   2.753   7.334   6.123 -0.6379  1.5305 -0.4865
   33RES   H192 9216   2.962   7.511   5.985 -0.5366  0.3262 -0.5099
   33RES   H193 9217   2.700   7.545   5.932 -0.4183 -2.2345  1.1845
   33RES   H194 9218   2.714   7.384   5.863 -2.6282  1.6908  0.0451
   33RES   H195 9219   2.841   7.711   5.850 -0.8058  0.6491 -0.3581
   33RES   H196 9220   2.994   7.642   5.807  0.5684 -0.5453  0.3051
   33RES   H197 9221   2.880   7.693   5.678 -0.3042  1.3229  0.7007
   33RES   O198 9222   2.958   7.317   5.924 -0.3135  0.2422 -0.2124
   33RES   C199 9223   3.001   7.328   5.788  0.2109 -0.2053 -0.4371
   33RES   C200 9224   3.087   7.211   5.759 -0.0660  0.0231 -0.0626
   33RES   C201 9225   3.162   7.223   5.623  0.1544 -0.6669  0.4034
   33RES   O202 9226   3.263   7.129   5.633 -0.3814 -0.4551  0.4822
   33RES   C203 9227   3.321   7.101   5.507  0.2366 -0.6412 -0.3026
   33RES   H204 9228   3.055   7.422   5.772 -0.1335  0.2570  1.0586
   33RES   H205 9229   2.923   7.330   5.711 -1.9777 -1.2683  1.6952
   33RES   H206 9230   3.161   7.213   5.839 -0.0840 -2.6904  0.0595
   33RES   H207 9231   3.093   7.196   5.543 -0.7021  0.6848  0.6686
   33RES   H208 9232   3.183   7.330   5.614 -0.9876 -0.2761  2.2465
   33RES   H209 9233   3.357   7.189   5.455  1.1985 -1.0652 -0.3645
   33RES   H210 9234   3.250   7.053   5.440  0.3754 -1.2222 -0.0368
   33RES   H211 9235   3.408   7.035   5.511 -0.2456 -1.2357  0.7984
   33RES   O212 9236   3.004   7.096   5.740  0.5313 -0.2842 -0.2520
   33RES   C213 9237   2.989   7.015   5.854  0.2898 -0.1643  0.6455
   33RES   C214 9238   3.096   6.909   5.882 -0.1295  0.2843 -0.1063
   33RES   C215 9239   3.226   6.969   5.930  0.1413  0.5490  0.0898
   33RES   O216 9240   3.295   6.864   5.995 -0.0040 -0.4545  0.6898
   33RES   C217 9241   3.422   6.900   6.044  0.1743 -0.1130 -0.6047
   33RES   H218 9242   2.898   6.958   5.833 -0.7824  1.2597  1.2516
   33RES   H219 9243   2.964   7.076   5.941 -2.1047  0.5888 -0.5154
   33RES   H220 9244   3.057   6.844   5.960  0.6298 -2.4337 -1.9346
   33RES   H221 9245   3.288   7.003   5.847  1.3486 -0.3353  0.6195
   33RES   H222 9246   3.211   7.048   6.004  0.6865  0.2538  0.5144
   33RES   H223 9247   3.476   6.838   6.114  0.5501 -0.0807 -0.8674
   33RES   H224 9248   3.422   6.997   6.094  1.2127  0.0639 -0.9303
   33RES   H225 9249   3.486   6.921   5.958 -1.0207  0.6469 -1.3370
   33RES   O226 9250   3.115   6.831   5.767 -0.1149  0.7645 -0.2511
   33RES   C227 9251   3.083   6.691   5.768  0.0637 -0.2805 -0.0057
   33RES   C228 9252   3.142   6.631   5.639 -0.2359  0.0278 -0.3214
   33RES   C229 9253   3.163   6.486   5.661  0.3432  0.6491  0.2069
   33RES   O230 9254   3.227   6.426   5.550 -0.4245 -0.1213 -0.3608
   33RES   C231 9255   3.243   6.283   5.554 -0.0590 -0.7320 -0.6692
   33RES   H232 9256   2.976   6.672   5.761  0.1231 -0.7176  0.2917
   33RES   H233 9257   3.124   6.643   5.857 -1.1963  0.1091  0.7853
   33RES   H234 9258   3.239   6.681   5.627 -0.5949  0.5149 -1.2172
   33RES   H235 9259   3.072   6.430   5.684  0.1684  2.7857  5.2034
   33RES   H236 9260   3.237   6.471   5.739  1.2037 -0.4393 -0.7882
   33RES   H237 9261   3.283   6.241   5.461  0.1376 -1.7331 -0.1413
   33RES   H238 9262   3.150   6.228   5.562 -1.1466  1.2413  0.4335
   33RES   H239 9263   3.311   6.258   5.636  0.3028  1.4143 -0.2869
   33RES   O240 9264   3.067   6.657   5.520  0.2853  0.3915  0.2447
   33RES   C241 9265   3.027   6.793   5.500  0.1757  0.3587  0.2776
   33RES   C242 9266   2.969   6.814   5.361 -0.2767  0.3391  0.1664
   33RES   C243 9267   2.894   6.949   5.355  0.3999  0.2739 -0.3214
   33RES   O244 9268   2.797   6.948   5.250  0.2373  0.0539  0.7011
   33RES   C245 9269   2.679   7.015   5.282  0.5388 -0.0375  0.1266
   33RES   H246 9270   3.104   6.870   5.511 -0.7561  1.8243 -2.8706
   33RES   H247 9271   2.940   6.800   5.565 -2.0506 -1.7733 -2.3541
   33RES   H248 9272   2.886   6.744   5.348  0.0629 -0.2588  1.1407
   33RES   H249 9273   2.834   6.955   5.446 -0.8246  1.6817 -1.2094
   33RES   H250 9274   2.955   7.040   5.350 -0.2387  0.7494  0.5702
   33RES   H251 9275   2.624   6.959   5.358 -2.9828  3.7460  0.5184
   33RES   H252 9276   2.617   7.019   5.193  0.6248  0.3486  0.0801
   33RES   H253 9277   2.699   7.118   5.312  0.6511 -0.3835  1.2657
   33RES   O254 9278   3.065   6.826   5.258 -0.2596  0.4837  0.0550
   33RES   C255 9279   3.119   6.701   5.221 -0.3154  0.2557 -0.1446
   33RES   C256 9280   3.258   6.717   5.157 -0.5373 -0.2687  0.8039
   33RES   C257 9281   3.322   6.582   5.131  0.6648 -0.2753  0.3456
   33RES   O258 9282   3.454   6.604   5.112  0.0999  0.2976  0.7326
   33RES   C259 9283   3.524   6.476   5.094 -0.3489  0.0667 -0.5631
   33RES   H260 9284   3.154   6.643   5.306 -2.7576  0.6096  1.1695
   33RES   H261 9285   3.051   6.645   5.157 -0.0732 -0.2032  0.0004
   33RES   H262 9286   3.326   6.786   5.206 -0.5956 -0.5297  1.2482
   33RES   H263 9287   3.298   6.499   5.197  0.8749 -0.8735 -0.3237
   33RES   H264 9288   3.281   6.539   5.040 -0.0179 -0.5209  0.7632
   33RES   H265 9289   3.632   6.489   5.097 -0.1334 -1.7577  0.7315
   33RES   H266 9290   3.497   6.422   5.003  0.1142  1.0976 -1.3121
   33RES   H267 9291   3.498   6.403   5.171  0.2998 -0.6931 -1.0494
   33RES   O268 9292   3.238   6.766   5.021  0.3248 -0.4407 -0.2456
   33RES   C269 9293   3.208   6.901   4.993  0.1677  0.6645  0.4586
   33RES   C270 9294   3.162   6.900   4.850 -0.4990 -0.5289  0.2207
   33RES   C271 9295   3.118   7.046   4.812 -0.4435  0.7028  0.0510
   33RES   O272 9296   3.236   7.113   4.773 -0.2753  0.2135  0.4497
   33RES   C273 9297   3.214   7.246   4.723 -0.2388  0.0507 -0.2473
   33RES   H274 9298   3.302   6.953   5.010  1.5555 -1.2912 -1.0746
   33RES   H275 9299   3.128   6.937   5.058 -1.6681 -0.0245 -1.3408
   33RES   H276 9300   3.234   6.869   4.774  0.2264 -0.5233  0.8924
   33RES   H277 9301   3.061   7.094   4.891 -0.9585 -2.4833  1.6781
   33RES   H278 9302   3.058   7.045   4.720 -0.6732  1.4500  0.1895
   33RES   H279 9303   3.307   7.293   4.692 -0.6705 -0.1987 -1.9889
   33RES   H280 9304   3.159   7.309   4.793 -1.3027  1.5418 -2.3615
   33RES   H281 9305   3.162   7.231   4.628  1.5816  0.5596 -1.3528
   33RES   H282 9306   3.072   6.840   4.839 -0.7189  0.1288 -1.8240
   34RES     O1 9307   6.961   2.406   3.468  0.2860  0.4836  0.2876
   34RES     C2 9308   6.899   2.508   3.393  0.3586  0.0817 -0.3757
   34RES     C3 9309   6.988   2.526   3.270 -0.4740  0.2198 -0.5282
   34RES     C4 9310   6.925   2.641   3.185 -0.1634  0.3579  0.5132
   34RES     O5 9311   6.974   2.638   3.054  0.1926  0.1571  0.3767
   34RES     C6 9312   6.940   2.755   2.989  0.2439  0.0694  0.7095
   34RES     H7 9313   6.807   2.464   3.357 -0.5749  1.5960  0.1247
   34RES     H8 9314   6.882   2.600   3.449 -1.4680 -1.2103  1.2020
   34RES     H9 9315   6.986   2.435   3.210  1.7952 -1.3839  1.7331
   34RES    H10 9316   6.937   2.737   3.234  0.4314  1.3088 -1.4440
   34RES    H11 9317   6.818   2.618   3.175  0.2911 -2.5063  1.6607
   34RES    H12 9318   7.018   2.828   3.011  0.6140 -0.1771  0.2248
   34RES    H13 9319   6.936   2.741   2.881 -0.2972 -0.7490  0.8297
   34RES    H14 9320   6.851   2.806   3.024 -0.0020  0.6663 -0.7666
   34RES    H15 9321   7.054   2.421   3.460  0.4789 -0.7157  0.1070
   34RES    O16 9322   7.120   2.564   3.316 -0.9046 -0.0044 -0.3026
   34RES    C17 9323   7.220   2.541   3.214  0.3582 -1.1114  0.0521
   34RES    C18 9324   7.358   2.584   3.266  1.1872 -0.0505 -0.1702
   34RES    C19 9325   7.370   2.731   3.314  0.2964 -0.3211 -0.1848
   34RES    O20 9326   7.507   2.772   3.320  0.4394  0.5950 -0.5323
   34RES    C21 9327   7.511   2.916   3.327 -0.8601  0.0282  0.1982
   34RES    H22 9328   7.187   2.610   3.136 -0.7730  0.9856  2.3414
   34RES    H23 9329   7.229   2.441   3.171  0.3163 -1.2909  0.4629
   34RES    H24 9330   7.421   2.568   3.178 -1.8981  2.3367 -2.9336
   34RES    H25 9331   7.309   2.795   3.249  0.3224  1.3673  1.4095
   34RES    H26 9332   7.317   2.742   3.409 -0.0225 -3.2458  0.0186
   34RES    H27 9333   7.483   2.960   3.423  0.6087  0.7033  0.3379
   34RES    H28 9334   7.445   2.961   3.252 -2.1588 -1.0050  0.6968
   34RES    H29 9335   7.614   2.945   3.310 -0.3639 -1.4402  0.6535
   34RES    O30 9336   7.385   2.483   3.370 -0.0219 -0.4706 -0.2098
   34RES    C31 9337   7.526   2.472   3.395  0.5955 -0.0970 -0.0086
   34RES    C32 9338   7.550   2.356   3.501  0.0019 -0.4125 -0.2121
   34RES    C33 9339   7.678   2.376   3.588  0.3136 -0.2136  0.3178
   34RES    O34 9340   7.659   2.320   3.716  0.2281 -0.4381  0.1546
   34RES    C35 9341   7.786   2.270   3.771  0.5191  0.1622  0.1143
   34RES    H36 9342   7.582   2.435   3.309 -1.9513 -1.0498 -1.2943
   34RES    H37 9343   7.577   2.564   3.424  2.5208 -0.4731 -2.1087
   34RES    H38 9344   7.462   2.332   3.561  2.4362 -0.2467  3.6210
   34RES    H39 9345   7.699   2.482   3.601  0.0041 -0.0520 -0.5004
   34RES    H40 9346   7.763   2.327   3.540  0.5708  1.9169 -1.4792
   34RES    H41 9347   7.763   2.202   3.853 -1.8769 -1.0118 -1.4555
   34RES    H42 9348   0.042   2.345   3.800  3.8205 -2.0202 -2.1288
   34RES    H43 9349   0.024   2.211   3.698  3.5650  1.4759  1.2669
   34RES    O44 9350   7.578   2.242   3.415  0.1787  0.7178 -0.3045
   34RES    C45 9351   7.559   2.116   3.486 -0.2206 -0.4235  0.0811
   34RES    C46 9352   7.567   2.001   3.382  0.0125  0.0610  0.2204
   34RES    C47 9353   7.442   1.994   3.293 -0.1517 -0.4717  0.1135
   34RES    O48 9354   7.429   1.857   3.255 -0.2774 -0.3689  0.1113
   34RES    C49 9355   7.330   1.831   3.157  0.6382 -0.4372  0.9595
   34RES    H50 9356   7.462   2.116   3.535 -0.6950  3.9023 -0.6493
   34RES    H51 9357   7.639   2.113   3.560  0.6515 -1.5787 -0.9003
   34RES    H52 9358   7.585   1.908   3.435  0.1716  0.0443  0.1350
   34RES    H53 9359   7.346   2.032   3.331  0.2979 -0.5736  1.3842
   34RES    H54 9360   7.464   2.059   3.209  3.2267 -1.9930 -0.2195
   34RES    H55 9361   7.314   1.724   3.141  2.1878 -0.6919  1.0098
   34RES    H56 9362   7.359   1.881   3.064 -1.8866  0.7286  0.7673
   34RES    H57 9363   7.243   1.874   3.206  0.1977  0.3591 -0.4714
   34RES    O58 9364   7.683   2.015   3.301 -0.5030 -0.1677 -0.4400
   34RES    C59 9365   7.806   2.013   3.370 -0.4778 -0.3285 -0.1080
   34RES    C60 9366   0.110   2.004   3.278  0.2622 -0.3460  0.4556
   34RES    C61 9367   0.226   1.946   3.361 -0.0324  0.8742  0.1483
   34RES    O62 9368   0.335   1.908   3.276 -0.1134  0.1721  0.1954
   34RES    C63 9369   0.444   1.856   3.356 -0.2588  0.0492  0.1747
   34RES    H64 9370   7.798   1.936   3.447  1.4384  0.1161  0.5627
   34RES    H65 9371   0.006   2.102   3.430  2.0136 -1.1522  0.4459
   34RES    H66 9372   0.083   1.933   3.200 -0.6604 -0.6279  1.0160
   34RES    H67 9373   0.268   2.010   3.439  2.6986 -0.7274  0.0647
   34RES    H68 9374   0.196   1.857   3.417 -2.4907 -0.0057 -2.4222
   34RES    H69 9375   0.527   1.850   3.285  1.1516 -1.3770  1.9177
   34RES    H70 9376   0.413   1.755   3.382  0.7699 -0.0227  1.1490
   34RES    H71 9377   0.460   1.912   3.448 -2.5204 -0.1139  0.6946
   34RES    O72 9378   0.142   2.132   3.227 -0.0898 -0.1266  0.3816
   34RES    C73 9379   0.061   2.185   3.122 -0.5353 -0.0699  0.0019
   34RES    C74 9380   0.111   2.327   3.072 -0.2809 -0.1986 -0.2608
   34RES    C75 9381   0.007   2.403   3.006  0.3547 -0.2705  0.1813
   34RES    O76 9382   0.011   2.543   3.034 -0.3572  0.4073  0.0263
   34RES    C77 9383   7.758   2.582   3.155 -0.1694  0.4168  0.3558
   34RES    H78 9384   0.072   2.119   3.037 -2.7955  0.2973 -0.6234
   34RES    H79 9385   7.775   2.198   3.157 -0.6129  1.4356 -0.7453
   34RES    H80 9386   0.146   2.390   3.154  1.6993 -2.5159  0.7300
   34RES    H81 9387   7.731   2.352   3.031 -0.0635  0.8299  0.8735
   34RES    H82 9388   0.021   2.384   2.899 -0.6032  0.4334 -0.0755
   34RES    H83 9389   7.786   2.533   3.249  1.1389  0.4411 -0.0046
   34RES    H84 9390   7.652   2.585   3.134 -0.4933  1.9826  2.0980
   34RES    H85 9391   7.795   2.683   3.170 -0.9347  0.7823 -0.2256
   34RES    O86 9392   0.215   2.300   2.977  0.2991  0.3499  0.5205
   34RES    C87 9393   0.297   2.419   2.961 -0.4830 -0.8074 -0.1719
   34RES    C88 9394   0.430   2.369   2.894  0.2767 -0.3554 -0.4900
   34RES    C89 9395   0.494   2.461   2.789  0.3325 -0.0576  0.6613
   34RES    O90 9396   0.403   2.516   2.690  0.3203  0.3151 -0.2839
   34RES    C91 9397   0.443   2.628   2.617  0.4746 -0.4968 -0.5964
   34RES    H92 9398   0.242   2.493   2.903 -0.3885  0.9476  1.9111
   34RES    H93 9399   0.317   2.474   3.053 -1.1262  0.7744 -0.9594
   34RES    H94 9400   0.417   2.268   2.858 -1.3032 -0.7423  1.0565
   34RES    H95 9401   0.543   2.536   2.851 -0.0061 -1.0041  2.0808
   34RES    H96 9402   0.578   2.408   2.745  1.5061  1.1963  1.3343
   34RES    H97 9403   0.548   2.619   2.587  0.8387 -0.6631  0.7013
   34RES    H98 9404   0.386   2.643   2.525  0.1952 -0.2945 -0.3909
   34RES    H99 9405   0.417   2.714   2.679 -1.2931 -1.6265  0.2630
   34RES   O100 9406   0.530   2.362   3.000 -0.4896 -0.4584 -0.3644
   34RES   C101 9407   0.519   2.257   3.094  0.7897  0.1853  0.1923
   34RES   C102 9408   0.560   2.317   3.232 -0.0626  0.2922  0.1211
   34RES   C103 9409   0.535   2.221   3.352  0.0925 -0.8842 -0.4842
   34RES   O104 9410   0.586   2.277   3.469 -0.3822 -0.3734 -0.2063
   34RES   C105 9411   0.539   2.222   3.588  0.5682  0.7786 -0.2869
   34RES   H106 9412   0.574   2.168   3.065  0.2639  0.3980 -1.5670
   34RES   H107 9413   0.416   2.221   3.103  0.8537 -0.5982 -1.9196
   34RES   H108 9414   0.665   2.344   3.224  0.3909 -0.8890  1.8044
   34RES   H109 9415   0.602   2.136   3.339  1.0805  0.0060 -1.3102
   34RES   H110 9416   0.427   2.209   3.358  0.0997 -1.8914 -2.0225
   34RES   H111 9417   0.606   2.261   3.665  1.0202 -1.4842  0.5165
   34RES   H112 9418   0.544   2.113   3.584 -2.3633  0.5598  0.6651
   34RES   H113 9419   0.439   2.256   3.613  0.0961 -1.1072  0.5138
   34RES   O114 9420   0.472   2.427   3.259 -0.2829 -0.0753 -0.6984
   34RES   C115 9421   0.537   2.538   3.322  0.6367 -0.0099 -0.1589
   34RES   C116 9422   0.554   2.657   3.234 -0.5534 -0.2435  0.1051
   34RES   C117 9423   0.534   2.791   3.304  0.9491 -0.0833  0.2246
   34RES   O118 9424   0.464   2.876   3.211  0.3476  0.2610 -0.1520
   34RES   C119 9425   0.441   3.005   3.257  0.2080 -0.1078  0.4376
   34RES   H120 9426   0.472   2.553   3.408  1.3000  3.3114 -0.1689
   34RES   H121 9427   0.631   2.526   3.375  1.1405 -1.4273 -1.3368
   34RES   H122 9428   0.477   2.650   3.157 -1.5926  0.5879  1.0589
   34RES   H123 9429   0.461   2.775   3.384  0.3270 -2.0941 -0.6992
   34RES   H124 9430   0.623   2.836   3.349  0.9935 -0.7220  0.7854
   34RES   H125 9431   0.536   3.056   3.274 -0.1040  0.5169  0.3426
   34RES   H126 9432   0.383   2.990   3.349  1.2398 -0.1765  1.0877
   34RES   H127 9433   0.385   3.062   3.183 -0.8530 -1.0044  0.5348
   34RES   O128 9434   0.685   2.652   3.171  0.3385 -0.0737 -0.7622
   34RES   C129 9435   0.702   2.751   3.072 -0.1695  0.2587 -0.4056
   34RES   C130 9436   0.844   2.744   3.005  0.1886  0.3667 -0.0358
   34RES   C131 9437   0.858   2.847   2.891  0.0930 -0.3376 -0.1023
   34RES   O132 9438   0.989   2.850   2.831  0.6427  0.4806  0.1160
   34RES   C133 9439   1.006   2.778   2.710 -0.2461  0.4057 -0.6354
   34RES   H134 9440   0.620   2.759   3.000 -1.3844 -1.1321  0.7997
   34RES   H135 9441   0.703   2.847   3.122 -0.0269 -0.2346  0.5505
   34RES   H136 9442   0.926   2.746   3.077 -0.7499  0.2384  1.0440
   34RES   H137 9443   0.834   2.946   2.929 -0.7036  0.2887 -2.1642
   34RES   H138 9444   0.783   2.834   2.813 -0.3136 -0.7717  0.3560
   34RES   H139 9445   0.994   2.670   2.716 -1.5391  0.5660 -0.1027
   34RES   H140 9446   0.938   2.821   2.636  1.4614  0.0096 -2.4559
   34RES   H141 9447   1.108   2.798   2.678  0.3427 -0.3057  0.7244
   34RES   O142 9448   0.844   2.613   2.939 -0.1246 -0.1623 -0.1793
   34RES   C143 9449   0.888   2.500   3.010 -0.5608 -0.2497 -0.2399
   34RES   C144 9450   1.024   2.433   2.964  0.1401 -0.4246  0.4606
   34RES   C145 9451   1.152   2.517   2.962 -0.3541 -0.8916  0.0590
   34RES   O146 9452   1.232   2.505   3.079  0.7655  0.6329  0.0924
   34RES   C147 9453   1.358   2.564   3.059  0.9931 -0.3031 -0.4082
   34RES   H148 9454   0.917   2.529   3.110  2.0702 -1.0801 -0.7331
   34RES   H149 9455   0.803   2.432   3.018  1.8675 -3.4213 -0.2256
   34RES   H150 9456   1.041   2.354   3.037 -1.1375 -0.7053  0.4788
   34RES   H151 9457   1.140   2.624   2.944  0.8165 -0.7554  0.0388
   34RES   H152 9458   1.211   2.486   2.876  0.2603 -1.1242  0.5633
   34RES   H153 9459   1.413   2.515   2.978 -0.3420  0.7856 -2.0255
   34RES   H154 9460   1.402   2.548   3.157 -1.3420 -0.5327  0.6484
   34RES   H155 9461   1.348   2.668   3.027  0.1727 -0.0218  0.7367
   34RES   O156 9462   1.010   2.364   2.838  0.1186 -0.5780 -0.7556
   34RES   C157 9463   0.978   2.226   2.845  0.4051  0.3682 -0.2471
   34RES   C158 9464   0.933   2.193   2.701 -0.4430  0.9858  0.3749
   34RES   C159 9465   0.810   2.092   2.705  0.3007 -0.6441 -1.1505
   34RES   O160 9466   0.744   2.102   2.580  0.0003  0.1252 -0.2123
   34RES   C161 9467   0.642   2.198   2.564 -0.3449 -0.2753  0.6563
   34RES   H162 9468   1.050   2.150   2.873  0.9127  0.2154 -1.8845
   34RES   H163 9469   0.897   2.201   2.913  2.0862  0.7686  1.9487
   34RES   H164 9470   0.897   2.281   2.647 -1.1215 -0.4658 -1.6056
   34RES   H165 9471   0.841   1.988   2.707  0.8971 -0.4517  0.5543
   34RES   H166 9472   0.740   2.105   2.788 -1.0167  1.3506 -2.5144
   34RES   H167 9473   0.573   2.191   2.648  1.8787  1.3483  2.6696
   34RES   H168 9474   0.583   2.183   2.473  0.8187  1.4942 -0.4365
   34RES   H169 9475   0.693   2.295   2.560 -0.5587 -0.2271 -1.3838
   34RES   O170 9476   1.034   2.138   2.619  0.1135  0.4202 -0.1044
   34RES   C171 9477   1.146   2.228   2.610 -0.4182 -0.3556  0.1736
   34RES   C172 9478   1.241   2.192   2.490 -0.0392 -0.1838 -0.7957
   34RES   C173 9479   1.367   2.282   2.508 -0.4338 -0.3163  0.0838
   34RES   O174 9480   1.423   2.262   2.631 -0.5299  0.3383 -0.6654
   34RES   C175 9481   1.513   2.358   2.672  0.1419 -0.1596 -0.3209
   34RES   H176 9482   1.191   2.240   2.708  0.0301 -2.6240  0.2749
   34RES   H177 9483   1.101   2.322   2.579 -0.7566 -1.4104 -2.7169
   34RES   H178 9484   1.276   2.089   2.488 -1.3922 -0.6697 -0.0315
   34RES   H179 9485   1.452   2.268   2.441 -0.9036  1.8576 -1.0057
   34RES   H180 9486   1.336   2.386   2.499  1.1753  0.0604 -1.3129
   34RES   H181 9487   1.488   2.464   2.672  3.6834  0.7563 -0.4843
   34RES   H182 9488   1.603   2.351   2.610 -0.3855 -0.2800 -1.0818
   34RES   H183 9489   1.541   2.334   2.774 -0.7751 -0.0555 -0.0426
   34RES   O184 9490   1.193   2.230   2.362  0.5220  1.1341  0.5677
   34RES   C185 9491   1.076   2.154   2.326  0.1285 -0.2424 -0.0043
   34RES   C186 9492   1.065   2.159   2.172  0.4784 -0.3150  0.4137
   34RES   C187 9493   0.917   2.200   2.134  0.1919  0.1846 -0.0705
   34RES   O188 9494   0.824   2.104   2.164 -0.3769  0.4758  0.4270
   34RES   C189 9495   0.690   2.141   2.137  0.0342  0.5739 -0.6760
   34RES   H190 9496   1.002   2.219   2.372  1.1118  0.2277  0.9438
   34RES   H191 9497   1.067   2.051   2.361  1.9740 -0.5259 -0.2892
   34RES   H192 9498   1.124   2.244   2.136 -2.7447  1.1910 -1.4615
   34RES   H193 9499   0.922   2.200   2.025  0.9096 -0.0797 -0.0445
   34RES   H194 9500   0.890   2.300   2.168 -1.7457 -0.3898  0.1191
   34RES   H195 9501   0.671   2.155   2.031 -0.0235  0.5015 -0.6750
   34RES   H196 9502   0.623   2.059   2.163  0.7577  0.7070  1.7478
   34RES   H197 9503   0.679   2.232   2.197  3.2160 -0.2082  1.2027
   34RES   O198 9504   1.111   2.037   2.112  0.7263 -0.2637 -0.0495
   34RES   C199 9505   1.248   2.013   2.129 -0.2589 -0.7377 -0.5944
   34RES   C200 9506   1.296   1.874   2.083 -0.3040 -0.6772  0.0547
   34RES   C201 9507   1.434   1.835   2.135 -0.7144 -0.1882  0.0425
   34RES   O202 9508   1.475   1.872   2.269 -0.4710  0.1627  0.3823
   34RES   C203 9509   1.401   1.808   2.372  0.3520 -0.1330  0.0692
   34RES   H204 9510   1.274   2.028   2.234 -0.7027 -0.0708 -0.5808
   34RES   H205 9511   1.313   2.087   2.083 -2.5353  1.3062 -0.5933
   34RES   H206 9512   1.213   1.813   2.120 -0.9873  1.0281  1.3862
   34RES   H207 9513   1.466   1.731   2.126 -0.0613 -0.1872  2.1039
   34RES   H208 9514   1.508   1.887   2.074 -1.6380  0.6667 -0.3659
   34RES   H209 9515   1.293   1.816   2.368  0.2948 -1.0753 -0.5592
   34RES   H210 9516   1.425   1.847   2.471 -0.5320 -0.0826  0.2630
   34RES   H211 9517   1.437   1.705   2.369  2.7049  0.6646 -0.4621
   34RES   O212 9518   1.302   1.863   1.940 -0.0616  0.0970  0.4364
   34RES   C213 9519   1.255   1.745   1.880  0.3226  0.1285  0.0463
   34RES   C214 9520   1.308   1.746   1.735 -0.1741  0.5760  0.4045
   34RES   C215 9521   1.261   1.625   1.662  1.1990 -0.6010 -0.7415
   34RES   O216 9522   1.299   1.609   1.528  0.1567 -0.5776 -0.0523
   34RES   C217 9523   1.295   1.472   1.494  1.6745 -0.3584  0.9543
   34RES   H218 9524   1.146   1.740   1.887  0.2578 -0.1408 -1.0150
   34RES   H219 9525   1.291   1.653   1.925 -0.8610 -0.4086 -0.0734
   34RES   H220 9526   1.265   1.832   1.683 -0.6623  0.1908  0.1610
   34RES   H221 9527   1.286   1.533   1.715  1.8161 -1.2889 -2.2106
   34RES   H222 9528   1.153   1.635   1.663  1.2805  0.2854 -0.9603
   34RES   H223 9529   1.208   1.424   1.537  0.6162  0.8075  0.1760
   34RES   H224 9530   1.371   1.426   1.557  0.0472 -2.8705  1.1255
   34RES   H225 9531   1.313   1.441   1.391 -0.0144 -2.1287  1.1795
   34RES   O226 9532   1.447   1.752   1.736  0.2617  0.1831  0.0534
   34RES   C227 9533   1.511   1.776   1.610  0.7255  0.1490  0.2481
   34RES   C228 9534   1.635   1.872   1.618  0.3728 -0.0131 -0.3221
   34RES   C229 9535   1.738   1.850   1.495 -0.4072 -0.4645 -0.1546
   34RES   O230 9536   1.859   1.922   1.521  0.0878 -0.3746  0.4228
   34RES   C231 9537   1.965   1.898   1.429 -0.5493 -0.2964  0.4364
   34RES   H232 9538   1.446   1.820   1.535 -0.4196 -2.2240 -0.2007
   34RES   H233 9539   1.536   1.682   1.560  0.3791 -0.8030  1.8349
   34RES   H234 9540   1.695   1.852   1.707 -1.0973  0.4339  0.7810
   34RES   H235 9541   1.687   1.879   1.404  0.7483 -1.9373 -1.3000
   34RES   H236 9542   1.779   1.749   1.486  0.7966 -0.1277  1.3310
   34RES   H237 9543   2.055   1.954   1.454 -1.6903  1.6952  0.1850
   34RES   H238 9544   1.943   1.948   1.335 -0.5839  0.1956  0.7020
   34RES   H239 9545   1.982   1.791   1.417  0.9474  0.1860 -2.1246
   34RES   O240 9546   1.602   2.000   1.603 -0.2499  0.2263  0.0385
   34RES   C241 9547   1.545   2.065   1.717  0.3126 -0.4073 -0.2700
   34RES   C242 9548   1.447   2.174   1.664  0.0289 -0.9039  1.0294
   34RES   C243 9549   1.331   2.211   1.761  0.0453  0.1631 -0.2887
   34RES   O244 9550   1.221   2.268   1.697 -0.0953 -0.3049  0.7573
   34RES   C245 9551   1.115   2.307   1.783  0.2477  0.2540  0.0335
   34RES   H246 9552   1.628   2.109   1.773  1.5507 -0.5845 -1.9234
   34RES   H247 9553   1.488   1.995   1.777 -0.3848  1.7414  1.6594
   34RES   H248 9554   1.399   2.140   1.573  0.3144 -0.4795  0.7171
   34RES   H249 9555   1.298   2.126   1.820 -1.2234  1.1494  0.4722
   34RES   H250 9556   1.364   2.280   1.839 -0.4397 -0.8595  0.8483
   34RES   H251 9557   1.078   2.404   1.752 -1.1280  0.0162  0.9059
   34RES   H252 9558   1.139   2.301   1.890 -1.7123 -0.7083  0.4410
   34RES   H253 9559   1.033   2.236   1.777  1.5260 -1.0986 -2.3955
   34RES   O254 9560   1.517   2.292   1.638 -0.1842 -0.0970 -0.1156
   34RES   C255 9561   1.595   2.281   1.523 -1.2645  0.0900 -0.6984
   34RES   C256 9562   1.593   2.409   1.446  0.6687 -0.3956  0.5195
   34RES   C257 9563   1.729   2.427   1.372  0.1197 -0.0225 -0.1510
   34RES   O258 9564   1.735   2.555   1.327  0.2562 -0.8419 -0.3678
   34RES   C259 9565   1.867   2.617   1.310  0.2345  0.0843  0.1801
   34RES   H260 9566   1.697   2.261   1.554 -0.8363 -0.8669 -2.6534
   34RES   H261 9567   1.575   2.199   1.454 -1.8315 -0.9124  0.6162
   34RES   H262 9568   1.596   2.500   1.507 -2.3073  0.0452  0.0845
   34RES   H263 9569   1.815   2.416   1.438 -0.8730  2.8087  1.7084
   34RES   H264 9570   1.748   2.356   1.291  1.5040 -1.9348  1.7887
   34RES   H265 9571   1.923   2.618   1.404  0.0726  1.7897  0.2764
   34RES   H266 9572   1.842   2.715   1.269 -2.6604  0.2479  2.1600
   34RES   H267 9573   1.928   2.571   1.233  1.1363  1.5916 -0.0265
   34RES   O268 9574   1.493   2.406   1.344  0.5079 -0.2920  0.0615
   34RES   C269 9575   1.363   2.404   1.396 -0.0970  0.3196 -0.3504
   34RES   C270 9576   1.272   2.414   1.275 -0.0155 -0.2490 -0.8320
   34RES   C271 9577   1.252   2.558   1.236  0.0471  0.3486  0.5862
   34RES   O272 9578   1.125   2.595   1.283 -0.3894 -0.3740 -0.3461
   34RES   C273 9579   1.113   2.638   1.414 -0.6709  0.3341 -0.4883
   34RES   H274 9580   1.352   2.485   1.468  1.3389 -0.2428  0.5149
   34RES   H275 9581   1.336   2.320   1.460 -1.2048  0.2461 -0.9029
   34RES   H276 9582   1.299   2.351   1.191 -1.7303 -0.0329 -1.5775
   34RES   H277 9583   1.253   2.568   1.128 -1.4411  0.7468  0.6018
   34RES   H278 9584   1.336   2.621   1.267 -0.4225  1.7046 -0.8688
   34RES   H279 9585   1.010   2.655   1.448 -1.1790 -2.2386 -0.6530
   34RES   H280 9586   1.169   2.728   1.440  2.1312 -1.6724  0.5984
   34RES   H281 9587   1.140   2.558   1.483 -1.6151 -1.1974 -1.8612
   34RES   H282 9588   1.181   2.361   1.304 -0.8276  1.3379 -0.3804
   35RES     O1 9589   7.747   1.313   2.943 -0.3655 -0.3449  0.2726
   35RES     C2 9590   7.706   1.436   3.009 -0.3133 -0.1123  0.2899
   35RES     C3 9591   7.720   1.548   2.907  0.0937 -0.2961  0.5365
   35RES     C4 9592   7.687   1.687   2.966 -0.8239 -0.0471 -0.5842
   35RES     O5 9593   7.687   1.774   2.861 -0.0073  0.1040 -0.4958
   35RES     C6 9594   7.648   1.910   2.902 -0.0582  0.8944  0.2217
   35RES     H7 9595   7.602   1.417   3.035 -0.4641 -0.2866 -0.4400
   35RES     H8 9596   7.759   1.454   3.102 -0.3359 -0.9932  0.4743
   35RES     H9 9597   7.668   1.523   2.815 -1.9314  1.5947  1.1353
   35RES    H10 9598   7.763   1.707   3.041 -0.5901  0.5872 -0.9869
   35RES    H11 9599   7.588   1.677   3.010 -0.7268 -2.1483 -0.7551
   35RES    H12 9600   7.543   1.900   2.931 -0.5058  1.8110 -1.0239
   35RES    H13 9601   7.724   1.947   2.971  1.7173  3.0999 -2.8083
   35RES    H14 9602   7.649   1.994   2.833  0.2966  0.6935 -0.0215
   35RES    H15 9603   0.015   1.323   2.903 -1.0107  0.1295 -1.0098
   35RES    O16 9604   0.042   1.558   2.885 -0.1709 -0.6880 -0.6801
   35RES    C17 9605   0.087   1.600   2.757  0.3763 -0.4273  0.0183
   35RES    C18 9606   0.236   1.659   2.760 -0.1046  0.1332 -0.8229
   35RES    C19 9607   0.235   1.803   2.822  0.1697  0.3783  0.0536
   35RES    O20 9608   0.354   1.873   2.789  0.8193  0.0104  0.3986
   35RES    C21 9609   0.369   2.002   2.838  0.6445  0.3507  0.0479
   35RES    H22 9610   0.014   1.668   2.714  1.0840 -0.2920 -0.9767
   35RES    H23 9611   0.064   1.517   2.691  0.7905 -0.7985  0.3415
   35RES    H24 9612   0.280   1.658   2.660  0.0453  2.4959 -0.7990
   35RES    H25 9613   0.155   1.866   2.785 -1.2692 -0.7422  1.2047
   35RES    H26 9614   0.219   1.803   2.930  1.2380 -1.4422  0.2412
   35RES    H27 9615   0.293   2.071   2.801 -1.1950 -1.1686  0.9271
   35RES    H28 9616   0.464   2.045   2.804  0.7305 -0.6389 -0.9780
   35RES    H29 9617   0.371   2.013   2.947  0.0591 -2.7979  0.4065
   35RES    O30 9618   0.329   1.582   2.844 -0.2267 -0.3477  0.2732
   35RES    C31 9619   0.331   1.438   2.826  0.6376 -0.0232  0.7612
   35RES    C32 9620   0.471   1.384   2.846  1.2031  0.2830 -0.0992
   35RES    C33 9621   0.526   1.449   2.978  0.2303  0.4878 -0.3231
   35RES    O34 9622   0.628   1.371   3.046 -0.0041  0.2646  0.5690
   35RES    C35 9623   0.693   1.439   3.155  0.7336  0.1990 -0.3995
   35RES    H36 9624   0.266   1.409   2.909  0.0584 -1.4174 -0.1668
   35RES    H37 9625   0.301   1.402   2.727 -0.2550  0.0043  1.0129
   35RES    H38 9626   0.474   1.276   2.858 -1.6458  0.3776  1.9838
   35RES    H39 9627   0.448   1.470   3.051  2.6205  0.5898  2.2699
   35RES    H40 9628   0.574   1.539   2.939 -1.7934  1.6964 -0.1128
   35RES    H41 9629   0.651   1.539   3.164 -1.2352 -0.0527 -5.2870
   35RES    H42 9630   0.801   1.434   3.141  0.3875 -0.0920 -3.1377
   35RES    H43 9631   0.668   1.378   3.243 -0.8799  0.0644 -0.9254
   35RES    O44 9632   0.557   1.398   2.728 -0.4956 -0.2646 -0.2964
   35RES    C45 9633   0.698   1.383   2.737 -0.1854  0.6810 -1.1422
   35RES    C46 9634   0.743   1.420   2.591 -0.5308 -0.0854  1.1300
   35RES    C47 9635   0.897   1.449   2.588 -0.0812 -0.3166 -0.2420
   35RES    O48 9636   0.957   1.349   2.667 -0.3088 -0.0453  0.3114
   35RES    C49 9637   1.084   1.390   2.718 -0.2063  0.0757  0.4998
   35RES    H50 9638   0.723   1.284   2.776 -2.3556  0.3652 -0.4463
   35RES    H51 9639   0.745   1.455   2.804  0.0356  1.2200 -1.8785
   35RES    H52 9640   0.685   1.498   2.543  0.3175 -0.9355 -1.3738
   35RES    H53 9641   0.936   1.465   2.487  1.9686  1.1305  0.7296
   35RES    H54 9642   0.917   1.546   2.633 -2.3325  0.6009 -1.1288
   35RES    H55 9643   1.073   1.469   2.793 -2.0511 -1.2098  1.6382
   35RES    H56 9644   1.150   1.421   2.638 -2.1191 -0.4576 -1.3340
   35RES    H57 9645   1.141   1.305   2.754  0.9696  0.6030 -0.0959
   35RES    O58 9646   0.729   1.306   2.503 -0.0512  0.4578  0.4894
   35RES    C59 9647   0.711   1.339   2.367  0.3700 -0.0198 -0.4784
   35RES    C60 9648   0.686   1.206   2.298 -0.5423 -0.2080 -0.7374
   35RES    C61 9649   0.708   1.208   2.147 -0.4343 -0.0438 -0.0953
   35RES    O62 9650   0.686   1.075   2.096 -0.1745  0.1636 -0.1020
   35RES    C63 9651   0.580   1.074   2.000 -0.2443 -0.2576 -0.5715
   35RES    H64 9652   0.802   1.383   2.327  0.9960 -1.0304 -0.1760
   35RES    H65 9653   0.626   1.403   2.341 -0.6020 -1.1591 -0.0993
   35RES    H66 9654   0.759   1.134   2.334  1.4637  1.8959 -0.4419
   35RES    H67 9655   0.647   1.287   2.104  1.7920  1.0232 -1.3767
   35RES    H68 9656   0.816   1.223   2.139 -0.2170 -1.4127  0.0970
   35RES    H69 9657   0.488   1.075   2.058 -1.0699 -1.6268 -1.8549
   35RES    H70 9658   0.594   0.977   1.953  0.4435 -1.2175  1.5067
   35RES    H71 9659   0.590   1.156   1.929 -0.5122  0.1549 -0.1357
   35RES    O72 9660   0.554   1.166   2.326  0.5381 -0.2276 -0.1500
   35RES    C73 9661   0.548   1.084   2.445  0.0420  0.0183  0.6955
   35RES    C74 9662   0.413   1.010   2.462 -0.6289 -1.0499  0.1615
   35RES    C75 9663   0.301   1.100   2.441  0.4478 -0.2927 -0.3783
   35RES    O76 9664   0.186   1.026   2.438  0.0679 -0.7701 -0.4683
   35RES    C77 9665   0.068   1.095   2.396 -0.1337 -0.8066  0.0052
   35RES    H78 9666   0.636   1.019   2.440 -0.1943 -0.3343  1.0317
   35RES    H79 9667   0.566   1.140   2.536 -0.9872 -0.2216  1.0469
   35RES    H80 9668   0.423   0.929   2.390  1.2280 -0.5487 -0.1711
   35RES    H81 9669   0.311   1.130   2.336  0.5749  0.3427 -0.1857
   35RES    H82 9670   0.291   1.185   2.509  0.0848 -2.5895  2.5106
   35RES    H83 9671   0.053   1.180   2.463  1.4217  0.0065 -0.6555
   35RES    H84 9672   7.803   1.024   2.395 -2.0711  1.3388  1.7400
   35RES    H85 9673   0.082   1.136   2.296 -2.2957 -0.2553 -0.0926
   35RES    O86 9674   0.403   0.976   2.599 -0.0297 -0.2840 -0.3687
   35RES    C87 9675   0.442   0.849   2.628 -0.2039 -0.0906 -0.1302
   35RES    C88 9676   0.460   0.828   2.786  0.0461  0.0750  0.3508
   35RES    C89 9677   0.554   0.933   2.832  0.4025  0.2730 -0.2570
   35RES    O90 9678   0.567   0.915   2.973 -0.0927 -0.4615 -0.5341
   35RES    C91 9679   0.617   1.030   3.037  0.5965  0.7367 -0.1935
   35RES    H92 9680   0.372   0.774   2.590  0.8030 -0.2763 -1.6784
   35RES    H93 9681   0.541   0.823   2.590 -0.3271 -1.1723  0.2729
   35RES    H94 9682   0.514   0.736   2.804 -0.3255 -0.4859 -1.3134
   35RES    H95 9683   0.656   0.915   2.799  1.0590  3.5482 -0.2509
   35RES    H96 9684   0.527   1.035   2.803  0.0252  0.1964 -0.1773
   35RES    H97 9685   0.612   1.024   3.146 -2.2783  0.6546 -0.2900
   35RES    H98 9686   0.722   1.051   3.019  0.7309 -0.0349 -0.2956
   35RES    H99 9687   0.561   1.122   3.020 -0.6080  0.4160  1.8650
   35RES   O100 9688   0.332   0.840   2.850  0.0820 -0.0507 -0.7265
   35RES   C101 9689   0.250   0.730   2.881  0.4493  0.2061 -0.0941
   35RES   C102 9690   0.125   0.754   2.970 -0.4353  0.6052  0.2738
   35RES   C103 9691   0.049   0.882   2.939 -0.3515  0.2981  0.0891
   35RES   O104 9692   7.778   0.856   2.830 -0.1821 -0.2467 -0.1386
   35RES   C105 9693   7.705   0.980   2.782 -0.3655 -0.2641  0.0751
   35RES   H106 9694   0.310   0.647   2.918 -2.2452 -1.4551  0.6712
   35RES   H107 9695   0.209   0.683   2.792 -0.2913  1.0246 -0.1966
   35RES   H108 9696   0.051   0.676   2.952 -1.7828  2.1889 -1.2330
   35RES   H109 9697   0.111   0.971   2.928 -0.6376  0.1071 -3.5580
   35RES   H110 9698   7.798   0.900   3.023 -0.4730  2.6732 -0.4786
   35RES   H111 9699   7.649   0.965   2.689  1.4241 -0.5031 -0.9778
   35RES   H112 9700   7.767   1.069   2.782 -2.1392  1.0088 -1.3852
   35RES   H113 9701   7.631   1.012   2.855  0.6471  1.6290  0.2724
   35RES   O114 9702   0.160   0.742   3.112 -0.4684 -0.1672 -0.1378
   35RES   C115 9703   0.244   0.838   3.177 -0.4932  0.1901 -0.4467
   35RES   C116 9704   0.303   0.788   3.311  0.8538  0.7141  0.5517
   35RES   C117 9705   0.409   0.892   3.366 -0.2856 -0.3425 -0.2554
   35RES   O118 9706   0.456   0.846   3.491 -0.0835 -0.2051 -0.3326
   35RES   C119 9707   0.583   0.904   3.527  0.3707  0.1549  0.2692
   35RES   H120 9708   0.328   0.865   3.114  0.0999 -2.3134 -0.7860
   35RES   H121 9709   0.176   0.923   3.188 -2.5785 -1.6825  2.0859
   35RES   H122 9710   0.343   0.687   3.299 -1.5711 -0.5319  2.5416
   35RES   H123 9711   0.482   0.892   3.285  0.8213 -1.0978  0.7349
   35RES   H124 9712   0.366   0.992   3.379  0.6885 -0.0445  0.7016
   35RES   H125 9713   0.601   0.878   3.631 -0.7820  1.5297  0.8376
   35RES   H126 9714   0.556   1.010   3.530 -1.6895 -0.0150 -5.7126
   35RES   H127 9715   0.649   0.886   3.442 -0.1192 -0.4783  0.0161
   35RES   O128 9716   0.195   0.782   3.405  0.2990 -0.3832 -0.6758
   35RES   C129 9717   0.189   0.653   3.466 -0.4309 -0.1826 -0.3453
   35RES   C130 9718   0.096   0.557   3.384  0.4225 -0.5344 -0.2136
   35RES   C131 9719   0.000   0.467   3.465  0.1679 -0.4064  0.2701
   35RES   O132 9720   7.697   0.431   3.391  0.2377 -0.0016  0.0662
   35RES   C133 9721   7.600   0.534   3.382  0.5259  0.4253 -0.5417
   35RES   H134 9722   0.289   0.617   3.492  0.0742  1.0688 -0.5143
   35RES   H135 9723   0.130   0.667   3.556 -0.1286  2.2935 -0.4861
   35RES   H136 9724   0.037   0.620   3.318  0.2589 -0.6852 -0.2115
   35RES   H137 9725   7.785   0.520   3.555 -3.4790  0.1320 -1.2689
   35RES   H138 9726   0.045   0.371   3.493  2.7060  0.6321 -0.0804
   35RES   H139 9727   7.592   0.567   3.486  0.5344 -1.6314  0.1248
   35RES   H140 9728   7.629   0.616   3.316  0.7167  1.3216  0.6382
   35RES   H141 9729   7.503   0.496   3.350  0.4985 -0.4636  0.5877
   35RES   O142 9730   0.182   0.471   3.307  0.0658 -0.4830  0.3622
   35RES   C143 9731   0.124   0.410   3.194 -0.4678 -0.0396 -0.4511
   35RES   C144 9732   0.244   0.344   3.124  0.3876 -0.3940 -1.0032
   35RES   C145 9733   0.233   0.340   2.976 -0.2347 -0.3197  0.3206
   35RES   O146 9734   0.358   0.344   2.910 -0.6573 -0.0369 -1.1676
   35RES   C147 9735   0.346   0.331   2.774 -0.5915 -0.0068 -0.8075
   35RES   H148 9736   0.042   0.338   3.200 -1.2196  0.6596 -2.0248
   35RES   H149 9737   0.076   0.480   3.125  0.6271 -0.9158 -2.1043
   35RES   H150 9738   0.336   0.398   3.146  0.1133 -0.0599 -0.6648
   35RES   H151 9739   0.182   0.431   2.945 -2.1749 -1.8193 -0.9140
   35RES   H152 9740   0.174   0.251   2.957 -1.7335  0.9383 -1.0363
   35RES   H153 9741   0.294   0.239   2.747 -4.0711  1.4611  0.5367
   35RES   H154 9742   0.448   0.316   2.740  0.3454  0.6310  1.6277
   35RES   H155 9743   0.298   0.418   2.728 -0.6701  1.5837  2.1748
   35RES   O156 9744   0.247   0.209   3.167  0.1394 -0.0534  0.6348
   35RES   C157 9745   0.303   0.193   3.300  1.1555 -0.6726 -0.0538
   35RES   C158 9746   0.328   0.053   3.340 -0.2892 -0.0808  0.0884
   35RES   C159 9747   0.397   7.785   3.220  0.5693  0.2268 -0.0600
   35RES   O160 9748   0.474   7.670   3.267 -0.4609 -0.3640 -0.3607
   35RES   C161 9749   0.555   7.610   3.170  0.6198  0.6932  0.1930
   35RES   H162 9750   0.391   0.254   3.320 -0.1784  1.3007 -0.1379
   35RES   H163 9751   0.235   0.238   3.372 -0.0324 -2.9178  0.2861
   35RES   H164 9752   0.395   0.050   3.426  0.6317 -2.8514 -0.6574
   35RES   H165 9753   0.325   7.755   3.144  1.4011 -0.3722 -0.6173
   35RES   H166 9754   0.465   0.043   3.180  1.3584 -0.2389  0.3914
   35RES   H167 9755   0.605   7.518   3.198 -1.4343 -0.0840  1.4021
   35RES   H168 9756   0.634   7.683   3.151  0.7784  0.8416  1.3408
   35RES   H169 9757   0.505   7.587   3.076  0.7402  0.8678  0.0854
   35RES   O170 9758   0.218   7.814   3.408  0.1186 -0.0205 -0.1084
   35RES   C171 9759   0.214   7.677   3.432  0.0023 -0.3873  0.4363
   35RES   C172 9760   0.113   7.633   3.541  0.5895  0.0300 -0.7842
   35RES   C173 9761   0.139   7.484   3.590  0.4807  0.1643  0.3637
   35RES   O174 9762   0.078   7.448   3.717  0.0957  0.6762  0.1863
   35RES   C175 9763   7.758   7.469   3.718 -1.2513 -0.1283 -0.2126
   35RES   H176 9764   0.309   7.638   3.468  1.1493  2.2003  0.2663
   35RES   H177 9765   0.190   7.629   3.337  3.0784  1.4911 -1.3759
   35RES   H178 9766   0.119   7.700   3.627  0.5958 -1.3696  0.3309
   35RES   H179 9767   0.121   7.407   3.515  3.1016  0.2013 -0.3442
   35RES   H180 9768   0.246   7.476   3.610  0.5399  0.5195  0.2060
   35RES   H181 9769   7.716   7.402   3.793  2.9060  0.1268  2.5105
   35RES   H182 9770   7.692   7.443   3.635 -1.4463  0.5572 -0.2761
   35RES   H183 9771   7.744   7.570   3.756 -0.1747 -0.2410  0.5056
   35RES   O184 9772   7.798   7.645   3.486  0.6336 -0.0588 -0.0347
   35RES   C185 9773   7.737   7.769   3.493  0.2791 -0.1379  0.2416
   35RES   C186 9774   7.595   7.762   3.445 -0.0668  0.0404 -0.2930
   35RES   C187 9775   7.537   0.084   3.403  0.0680 -0.4250  0.3024
   35RES   O188 9776   7.433   0.088   3.301 -0.4215 -0.4752  0.1023
   35RES   C189 9777   7.447   0.207   3.217 -0.0417 -0.0920  0.1287
   35RES   H190 9778   7.806   0.012   3.433 -1.1594  0.5457 -0.7801
   35RES   H191 9779   7.734   7.804   3.596  1.2266  1.2004 -0.1666
   35RES   H192 9780   7.601   7.705   3.352  0.0542 -1.3018  0.5384
   35RES   H193 9781   7.626   0.139   3.373  0.0285 -1.1496 -1.1905
   35RES   H194 9782   7.500   0.131   3.494 -1.7454 -2.4844  0.6558
   35RES   H195 9783   7.460   0.299   3.274  1.8722 -1.6891  2.3905
   35RES   H196 9784   7.535   0.189   3.155  1.8018 -3.2049  3.4943
   35RES   H197 9785   7.360   0.208   3.151 -0.7499  1.5511  1.0445
   35RES   O198 9786   7.515   7.697   3.543  0.2212 -0.1511  0.1803
   35RES   C199 9787   7.418   7.605   3.497  0.6202 -0.6661 -0.2908
   35RES   C200 9788   7.379   7.522   3.619 -0.2699 -0.1683 -0.4460
   35RES   C201 9789   7.327   7.384   3.572 -0.0404 -0.6085 -0.0516
   35RES   O202 9790   7.333   7.288   3.681 -0.0865  0.3228  0.0997
   35RES   C203 9791   7.217   7.287   3.766  0.5843  0.5299  0.8639
   35RES   H204 9792   7.461   7.541   3.420  1.6306 -0.0189 -0.2797
   35RES   H205 9793   7.337   7.662   3.452  0.0353  0.5127  2.1748
   35RES   H206 9794   7.458   7.493   3.688  0.1120  0.0548 -0.7913
   35RES   H207 9795   7.221   7.385   3.548  0.4555  0.8505 -2.3137
   35RES   H208 9796   7.372   7.346   3.480 -0.8154 -0.0018 -0.6869
   35RES   H209 9797   7.234   7.203   3.834  1.4932  2.0679  2.5746
   35RES   H210 9798   7.121   7.278   3.715  1.8854 -3.1587 -1.1777
   35RES   H211 9799   7.206   7.378   3.824  1.5802  0.9175  0.4507
   35RES   O212 9800   7.267   7.582   3.689 -0.2418 -0.0106 -0.3930
   35RES   C213 9801   7.309   7.703   3.754  0.8061 -0.5305  0.2709
   35RES   C214 9802   7.214   7.727   3.879  0.4050 -0.2822 -0.5024
   35RES   C215 9803   7.228   0.048   3.943 -0.9091 -0.6004  0.3163
   35RES   O216 9804   7.109   0.075   4.016  0.0226  0.3378  0.1856
   35RES   C217 9805   7.123   0.192   4.100 -0.4487  0.1087  0.2200
   35RES   H218 9806   7.295   7.786   3.684  0.3518  1.6525  2.8909
   35RES   H219 9807   7.413   7.694   3.787  0.9989 -0.8176 -0.3854
   35RES   H220 9808   7.110   7.721   3.845  0.1284 -2.5712  0.6280
   35RES   H221 9809   7.318   0.050   4.005 -2.1490 -0.6827  2.1341
   35RES   H222 9810   7.230   0.114   3.856 -1.4700 -1.0150 -0.0137
   35RES   H223 9811   7.198   0.166   4.174 -0.8232  1.0023  0.9110
   35RES   H224 9812   7.029   0.206   4.152 -1.1407 -2.6346 -0.2116
   35RES   H225 9813   7.154   0.285   4.053  3.4166 -0.2674  1.8605
   35RES   O226 9814   7.245   7.630   3.976 -0.9699  0.0490 -0.3144
   35RES   C227 9815   7.143   7.584   4.060  0.3438  0.6205  0.0428
   35RES   C228 9816   7.191   7.486   4.172  0.2062 -0.0291  0.0462
   35RES   C229 9817   7.078   7.462   4.274  0.6374  1.2145 -0.1862
   35RES   O230 9818   7.115   7.388   4.396  0.3399 -0.2499 -0.7783
   35RES   C231 9819   7.201   7.444   4.498 -0.1145 -0.6235 -0.2717
   35RES   H232 9820   7.076   7.534   3.990 -0.2767  0.9911  0.3746
   35RES   H233 9821   7.081   7.658   4.111 -1.6442  0.6203 -2.2770
   35RES   H234 9822   7.286   7.521   4.210 -0.8098  1.3719  1.3662
   35RES   H235 9823   6.998   7.402   4.232 -0.0193  2.0359 -0.1320
   35RES   H236 9824   7.024   7.553   4.298  1.5860  1.4199  1.2817
   35RES   H237 9825   7.168   7.543   4.529 -1.9409 -1.5749  0.9157
   35RES   H238 9826   7.308   7.447   4.476 -0.0225 -3.6207 -0.5060
   35RES   H239 9827   7.196   7.382   4.588  2.9087  0.9314  1.0437
   35RES   O240 9828   7.219   7.359   4.110 -0.4698 -0.3683 -0.0096
   35RES   C241 9829   7.365   7.346   4.078 -0.1271  0.1770 -0.8381
   35RES   C242 9830   7.412   7.205   4.049  0.5375  0.2133 -0.3273
   35RES   C243 9831   7.523   7.202   3.937  0.7246 -0.4694  0.3784
   35RES   O244 9832   7.538   7.083   3.866  0.5500  0.4516 -0.8689
   35RES   C245 9833   7.563   6.960   3.936  0.3338  0.6058 -0.2322
   35RES   H246 9834   7.427   7.384   4.160 -1.8656 -0.7994  0.9463
   35RES   H247 9835   7.394   7.411   3.995  0.4001  0.0714 -0.7420
   35RES   H248 9836   7.327   7.144   4.019  0.3152  0.6442 -0.5901
   35RES   H249 9837   7.504   7.284   3.867  0.6723 -0.3876  0.4877
   35RES   H250 9838   7.618   7.226   3.983  0.4298  1.1116  0.1943
   35RES   H251 9839   7.651   6.981   3.997  1.2247 -0.6851 -1.0474
   35RES   H252 9840   7.579   6.879   3.865 -0.9753 -1.1875  1.4383
   35RES   H253 9841   7.473   6.947   3.997  1.2133 -0.0926  0.9587
   35RES   O254 9842   7.468   7.146   4.165  0.1791  0.0623  0.2557
   35RES   C255 9843   7.379   7.093   4.260  0.3731  0.5982  0.0099
   35RES   C256 9844   7.471   7.006   4.353  0.0362  0.6190  0.0310
   35RES   C257 9845   7.381   6.941   4.455 -0.4489  0.1560  0.5560
   35RES   O258 9846   7.449   6.902   4.578 -0.1897  0.1062  0.2711
   35RES   C259 9847   7.381   6.815   4.659  0.0610  0.4636 -0.2288
   35RES   H260 9848   7.327   7.168   4.319  2.9081 -0.1696  3.4295
   35RES   H261 9849   7.306   7.030   4.210  2.6114 -1.9700 -0.1648
   35RES   H262 9850   7.548   7.068   4.400  1.9476  0.2280 -2.5039
   35RES   H263 9851   7.309   7.016   4.489  0.1771  0.3531  1.4490
   35RES   H264 9852   7.324   6.852   4.426  1.0653 -0.1235 -1.6421
   35RES   H265 9853   7.361   6.722   4.606  1.1275 -1.2731  2.3305
   35RES   H266 9854   7.279   6.850   4.676 -0.8482 -1.6921 -1.0411
   35RES   H267 9855   7.429   6.802   4.756 -1.3142 -1.6352  0.2085
   35RES   O268 9856   7.537   6.907   4.273 -0.2916  0.3522  0.4533
   35RES   C269 9857   7.616   6.808   4.341  0.1426 -0.7842  0.6971
   35RES   C270 9858   7.713   6.744   4.243 -0.4815  0.4714  0.7639
   35RES   C271 9859   0.027   6.818   4.228  1.6353  0.0659 -1.1504
   35RES   O272 9860   0.133   6.745   4.175  0.5405  0.0468 -0.1480
   35RES   C273 9861   0.185   6.799   4.054 -0.5393  0.5317 -0.6249
   35RES   H274 9862   7.553   6.737   4.395  1.1370 -0.2685  2.5934
   35RES   H275 9863   7.676   6.858   4.418 -0.1004  0.4033  0.1180
   35RES   H276 9864   7.737   6.645   4.281  3.4629  0.0341 -2.5199
   35RES   H277 9865   0.066   6.841   4.328 -0.8299  0.7286 -0.3020
   35RES   H278 9866   0.001   6.913   4.180  0.8898  0.1165 -0.6636
   35RES   H279 9867   0.267   6.736   4.020 -0.2211 -0.1689  1.3950
   35RES   H280 9868   0.216   6.902   4.071  0.1259  0.2518 -0.1545
   35RES   H281 9869   0.108   6.809   3.977 -1.9867  1.0202  0.8543
   35RES   H282 9870   7.670   6.725   4.145 -0.2563 -0.3995  0.8318
   36RES     O1 9871   3.684   3.509   7.746  0.6370 -0.4954 -0.1062
   36RES     C2 9872   3.782   3.478   7.651 -0.3538 -0.1636 -0.2770
   36RES     C3 9873   3.845   3.616   7.608 -0.3376 -0.3437 -0.4170
   36RES     C4 9874   3.979   3.584   7.530 -0.0326  0.4650 -1.0575
   36RES     O5 9875   4.081   3.682   7.550  0.2106 -0.0006  0.8245
   36RES     C6 9876   4.202   3.632   7.501 -0.1714  0.0242  0.2463
   36RES     H7 9877   3.864   3.429   7.704 -0.5649 -3.1941 -2.6159
   36RES     H8 9878   3.752   3.410   7.571  0.0849 -0.8230  0.1113
   36RES     H9 9879   3.869   3.678   7.694 -0.1815  1.0017 -1.4204
   36RES    H10 9880   3.963   3.575   7.422  0.1069 -0.0688 -1.0367
   36RES    H11 9881   4.020   3.489   7.565  0.0483  1.4025  1.4357
   36RES    H12 9882   4.259   3.570   7.570  2.1672  2.8734  1.0046
   36RES    H13 9883   4.175   3.576   7.411 -1.3996  0.1510  0.5311
   36RES    H14 9884   4.261   3.723   7.486  0.2585  0.3353  3.4156
   36RES    H15 9885   3.615   3.550   7.696  0.3732  0.5361  1.0861
   36RES    O16 9886   3.763   3.696   7.529 -0.6216  0.3407  0.1274
   36RES    C17 9887   3.823   3.826   7.504  0.3132 -0.2466  0.3133
   36RES    C18 9888   3.716   3.927   7.448 -0.2401  0.2684 -0.3461
   36RES    C19 9889   3.670   3.900   7.303  0.1887 -0.0241  0.6667
   36RES    O20 9890   3.724   4.000   7.214 -0.2365 -0.0928 -0.5724
   36RES    C21 9891   3.688   3.955   7.082  0.6003 -0.2431 -0.4145
   36RES    H22 9892   3.902   3.830   7.429  1.5136  3.6057  1.6278
   36RES    H23 9893   3.864   3.860   7.599  2.0013 -3.2158  0.7037
   36RES    H24 9894   3.763   4.025   7.445  0.2539  0.0166 -1.0062
   36RES    H25 9895   3.681   3.799   7.266  0.6347 -0.4798  1.9993
   36RES    H26 9896   3.562   3.914   7.299  0.5325  2.7558 -0.4614
   36RES    H27 9897   3.707   4.043   7.021 -0.0833  0.5913  0.5642
   36RES    H28 9898   3.582   3.929   7.073  1.0753 -2.3656 -0.0330
   36RES    H29 9899   3.753   3.877   7.041 -0.0667 -0.3938 -1.2033
   36RES    O30 9900   3.600   3.941   7.524 -0.2821  0.0351  0.0100
   36RES    C31 9901   3.615   3.997   7.653  0.4363  0.2729  0.6640
   36RES    C32 9902   3.476   4.003   7.724  0.3020 -0.3165 -0.1830
   36RES    C33 9903   3.412   3.867   7.760 -0.0471  0.0710 -0.5520
   36RES    O34 9904   3.334   3.866   0.057  0.1123  0.0460 -0.0469
   36RES    C35 9905   3.194   3.880   0.038 -0.3973  0.0771 -0.0551
   36RES    H36 9906   3.682   3.934   7.712 -0.0489 -1.5535 -0.6839
   36RES    H37 9907   3.639   4.103   7.655 -0.6896  0.5241  0.8848
   36RES    H38 9908   3.486   4.060   7.816  0.3909 -1.8590  0.7909
   36RES    H39 9909   3.499   3.806   7.782 -0.4091 -0.2839 -0.1022
   36RES    H40 9910   3.373   3.824   7.667  2.0537 -2.2388 -0.4021
   36RES    H41 9911   3.143   3.863   0.133  0.4485  1.7099  0.7081
   36RES    H42 9912   3.163   3.815   7.774  3.3188 -0.7916 -0.8668
   36RES    H43 9913   3.157   3.971   7.808 -0.2134  0.0928 -0.1689
   36RES    O44 9914   3.379   4.085   7.650 -0.6721  0.5126 -1.1374
   36RES    C45 9915   3.360   4.223   7.674 -0.1345  0.2815 -0.1661
   36RES    C46 9916   3.251   4.272   7.580 -0.1248 -0.5255  0.3708
   36RES    C47 9917   3.205   4.419   7.611  0.1271  1.2698 -0.5356
   36RES    O48 9918   3.294   4.507   7.550 -0.1894  0.2159  0.4842
   36RES    C49 9919   3.245   4.641   7.554 -0.1844  0.2339 -0.0054
   36RES    H50 9920   3.454   4.271   7.645  0.2807 -0.6535 -0.4073
   36RES    H51 9921   3.338   4.253   7.776 -2.7761 -1.0574 -0.3025
   36RES    H52 9922   3.165   4.206   7.587 -0.1478 -0.5336  0.0324
   36RES    H53 9923   3.114   4.433   7.552  0.0592  3.2769 -0.0049
   36RES    H54 9924   3.178   4.440   7.715  2.0989 -0.5378  0.3788
   36RES    H55 9925   3.265   4.678   7.655  2.6286 -0.8525 -0.1123
   36RES    H56 9926   3.140   4.639   7.525 -0.3947 -0.2611  0.7837
   36RES    H57 9927   3.295   4.701   7.477 -1.4476  0.6543 -0.5103
   36RES    O58 9928   3.299   4.275   7.443 -0.3543 -0.3986 -0.3006
   36RES    C59 9929   3.305   4.164   7.357 -0.4434  0.0793 -0.1599
   36RES    C60 9930   3.330   4.223   7.220  0.8742  0.2148 -0.3263
   36RES    C61 9931   3.320   4.110   7.116  0.3769  0.0844  0.2047
   36RES    O62 9932   3.322   4.171   6.988  0.5014 -0.5707  0.1504
   36RES    C63 9933   3.346   4.072   6.885  0.2217 -0.4052 -0.1438
   36RES    H64 9934   3.208   4.116   7.369 -1.0711  1.4917  0.4694
   36RES    H65 9935   3.389   4.105   7.395 -0.9412 -0.2595  0.4267
   36RES    H66 9936   3.260   4.301   7.191  0.8713 -0.4352 -2.1114
   36RES    H67 9937   3.412   4.055   7.136 -0.7052 -1.1180  2.0764
   36RES    H68 9938   3.232   4.047   7.131  0.9185 -0.4764  1.1453
   36RES    H69 9939   3.391   4.110   6.794  0.6155  1.4258  0.8106
   36RES    H70 9940   3.261   4.008   6.861 -0.9672  1.2220 -0.3562
   36RES    H71 9941   3.437   4.022   6.918  0.8563 -0.4658 -1.9670
   36RES    O72 9942   3.468   4.269   7.217 -0.6515  0.0240 -0.0370
   36RES    C73 9943   3.488   4.409   7.189 -0.1734 -0.3045  0.2652
   36RES    C74 9944   3.635   4.455   7.215  0.9428 -0.6757 -0.1261
   36RES    C75 9945   3.731   4.376   7.133  0.2994  0.1157  0.5534
   36RES    O76 9946   3.856   4.432   7.106 -0.3116  0.0199 -0.0613
   36RES    C77 9947   3.933   4.342   7.025 -0.3019 -0.7356  0.3147
   36RES    H78 9948   3.461   4.424   7.084  1.5048 -1.8035 -0.4012
   36RES    H79 9949   3.433   4.470   7.261  1.5139 -0.1174  1.4409
   36RES    H80 9950   3.633   4.559   7.181 -1.3859 -0.7858 -0.3905
   36RES    H81 9951   3.689   4.358   7.034  0.3573  0.7593  0.4143
   36RES    H82 9952   3.750   4.273   7.164 -0.3990  0.5782  2.5545
   36RES    H83 9953   3.940   4.236   7.046  0.3865 -0.9682 -0.9956
   36RES    H84 9954   4.038   4.374   7.022 -0.4481 -0.3415 -1.4511
   36RES    H85 9955   3.895   4.350   6.923  1.0099 -0.6561 -0.1882
   36RES    O86 9956   3.668   4.468   7.355 -0.1036 -0.0607 -0.3568
   36RES    C87 9957   3.657   4.352   7.435 -0.8836  0.2425 -0.2035
   36RES    C88 9958   3.798   4.328   7.499  0.1166  0.1759  0.2386
   36RES    C89 9959   3.909   4.274   7.393 -0.7862  0.1266 -0.8096
   36RES    O90 9960   4.013   4.209   7.469 -0.2494  0.7886  0.3095
   36RES    C91 9961   4.112   4.161   7.381  0.2038  0.0530 -0.0484
   36RES    H92 9962   3.584   4.357   7.516 -1.2843 -0.6788 -0.5081
   36RES    H93 9963   3.629   4.263   7.380  1.5248 -0.7567  0.1610
   36RES    H94 9964   3.786   4.249   7.573  0.1057 -0.6712 -0.6542
   36RES    H95 9965   3.864   4.205   7.321 -1.4763  0.0692 -0.3269
   36RES    H96 9966   3.952   4.358   7.338  1.4612 -0.7175 -0.3804
   36RES    H97 9967   4.200   4.125   7.435 -1.1535  0.0603  2.2580
   36RES    H98 9968   4.082   4.081   7.314  0.2958 -0.1054  0.0999
   36RES    H99 9969   4.153   4.244   7.324  1.8287 -0.7163 -0.0153
   36RES   O100 9970   3.844   4.446   7.574  0.0165  0.3952  0.4738
   36RES   C101 9971   3.781   4.456   7.704 -0.3579 -0.2845 -0.1161
   36RES   C102 9972   3.744   4.607   7.740 -0.2021 -0.1207 -0.6175
   36RES   C103 9973   3.653   4.659   7.625 -0.3814  0.0760 -0.0067
   36RES   O104 9974   3.586   4.775   7.674 -0.4439 -1.0995  0.1410
   36RES   C105 9975   3.567   4.872   7.575  0.5456  0.0318  0.3067
   36RES   H106 9976   3.857   4.416   7.771  0.4864  1.1451 -0.1817
   36RES   H107 9977   3.696   4.389   7.711  0.8981 -1.8013  0.9972
   36RES   H108 9978   3.689   4.615   0.017  0.2303 -0.7015 -0.3060
   36RES   H109 9979   3.581   4.587   7.586  0.5421 -0.0301 -1.5496
   36RES   H110 9980   3.707   4.684   7.533  0.4254  1.6708  0.8728
   36RES   H111 9981   3.490   4.938   7.615 -1.3482 -1.6319 -0.4531
   36RES   H112 9982   3.530   4.832   7.481  0.4170  2.5515 -0.7524
   36RES   H113 9983   3.659   4.927   7.556  0.2030  0.5569  0.1800
   36RES   O114 9984   3.870   4.682   7.757  0.3084 -0.8237 -0.1807
   36RES   C115 9985   3.865   4.821   7.780 -0.3099 -0.4266  0.6388
   36RES   C116 9986   3.996   4.892   0.000  0.7388  0.3279 -0.0865
   36RES   C117 9987   4.002   5.043   7.768  0.5284  0.0964 -0.1883
   36RES   O118 9988   4.118   5.108   0.009  0.3981  0.1375  0.1199
   36RES   C119 9989   4.228   5.076   7.740  0.8730 -0.8813 -0.4819
   36RES   H120 9990   3.825   4.869   7.691  0.6347 -0.9838 -0.0879
   36RES   H121 9991   3.783   4.836   0.034 -0.6103 -2.7214  0.7979
   36RES   H122 9992   4.071   4.828   7.772  0.4167  2.1040 -3.2718
   36RES   H123 9993   3.997   5.051   7.660  2.6880  1.1608 -0.2430
   36RES   H124 9994   3.912   5.094   7.804 -0.7733 -1.9852 -0.4380
   36RES   H125 9995   4.236   4.967   7.746 -0.9704 -1.0154 -0.1562
   36RES   H126 9996   4.325   5.107   7.778 -0.2532  0.1780  1.6243
   36RES   H127 9997   4.210   5.089   7.633 -1.3182 -0.8722 -0.1215
   36RES   O128 9998   4.008   4.900   0.145 -0.6574 -0.4474 -0.0326
   36RES   C129 9999   4.056   4.786   0.211 -0.3805 -0.1253  0.3170
   36RES   C13010000   4.006   4.778   0.359  0.4617 -0.1758 -0.1521
   36RES   C13110001   4.118   4.732   0.448  0.4190  0.0747  0.6878
   36RES   O13210002   4.115   4.800   0.570 -0.0990 -0.1258  0.3623
   36RES   C13310003   4.011   4.756   0.656  0.9952 -0.3580  0.1166
   36RES   H13410004   4.027   4.693   0.162 -1.5681  0.4864 -0.1861
   36RES   H13510005   4.163   4.805   0.218 -0.7704  1.4899  2.6112
   36RES   H13610006   3.972   4.880   0.379  2.2401 -0.0534  2.5810
   36RES   H13710007   4.215   4.777   0.425 -2.0246  6.3463  1.7363
   36RES   H13810008   4.122   4.623   0.446  0.7822  0.1089 -1.1881
   36RES   H13910009   4.021   4.800   0.755 -2.4387  1.7597 -0.3844
   36RES   H14010010   3.913   4.788   0.620  0.6173 -0.1645  1.3027
   36RES   H14110011   4.000   4.648   0.659 -2.2545 -0.0545  1.4739
   36RES   O14210012   3.903   4.678   0.367 -0.3997 -0.8600  0.4619
   36RES   C14310013   3.775   4.739   0.340 -0.5183  0.1123  0.0189
   36RES   C14410014   3.673   4.623   0.341  0.1172 -0.2811 -0.0517
   36RES   C14510015   3.538   4.661   0.282 -0.3281 -0.1927  0.1050
   36RES   O14610016   3.515   4.548   0.198 -0.0233 -0.3461  0.0971
   36RES   C14710017   3.399   4.576   0.124  0.0902 -0.8287 -0.7071
   36RES   H14810018   3.747   4.821   0.405  0.0422  0.0011  0.4028
   36RES   H14910019   3.772   4.786   0.242 -1.1786  0.5092  0.2307
   36RES   H15010020   3.723   4.546   0.282 -0.4799  1.3309 -2.7838
   36RES   H15110021   3.545   4.759   0.235 -1.5987  0.8032  1.9223
   36RES   H15210022   3.456   4.678   0.353 -1.5132  2.0257 -1.7395
   36RES   H15310023   3.346   4.490   0.083 -0.9449 -1.1735  1.3065
   36RES   H15410024   3.422   4.639   0.038 -0.7078 -1.2552 -1.2409
   36RES   H15510025   3.324   4.624   0.187  0.2457 -0.2117 -0.9818
   36RES   O15610026   3.650   4.577   0.472 -0.6281 -0.6365 -0.2250
   36RES   C15710027   3.609   4.442   0.482  0.1011 -0.4684  0.3221
   36RES   C15810028   3.621   4.396   0.628 -0.3922  0.7997 -0.1051
   36RES   C15910029   3.763   4.418   0.684  0.5398  0.1556 -0.1899
   36RES   O16010030   3.755   4.415   0.824 -0.0006 -0.1393  0.2582
   36RES   C16110031   3.885   4.409   0.879 -0.0402 -0.3668  0.5253
   36RES   H16210032   3.509   4.432   0.439  1.3949 -2.7824 -2.2786
   36RES   H16310033   3.680   4.380   0.428  0.9666 -1.0566  2.0841
   36RES   H16410034   3.546   4.449   0.687  0.1610  0.2370  1.1149
   36RES   H16510035   3.815   4.328   0.651 -1.1395 -0.4697 -1.1815
   36RES   H16610036   3.804   4.511   0.645  0.2927  0.3939  0.1104
   36RES   H16710037   3.917   4.305   0.878  1.0744 -0.0353  0.7655
   36RES   H16810038   3.893   4.446   0.981 -1.0006  2.2152 -0.2763
   36RES   H16910039   3.969   4.451   0.823 -2.0188 -0.1394 -2.4027
   36RES   O17010040   3.598   4.253   0.627  0.5983 -0.3361 -0.1340
   36RES   C17110041   3.466   4.223   0.666  0.0465 -0.5792 -0.0729
   36RES   C17210042   3.453   4.218   0.826 -0.1444  1.1014  0.1739
   36RES   C17310043   3.331   4.140   0.872 -0.2226  0.6110 -0.1044
   36RES   O17410044   3.343   4.096   1.009 -0.3207 -0.3756  0.6278
   36RES   C17510045   3.227   4.038   1.074 -0.4169  0.6144  0.3460
   36RES   H17610046   3.462   4.122   0.624  2.7765 -0.2737 -1.1452
   36RES   H17710047   3.390   4.288   0.621 -1.8005 -2.1021  0.7774
   36RES   H17810048   3.545   4.177   0.868 -0.0361 -1.4319 -2.4041
   36RES   H17910049   3.241   4.202   0.867 -0.3191  0.5256  0.5603
   36RES   H18010050   3.312   4.058   0.803 -2.3499 -0.4671  1.7363
   36RES   H18110051   3.170   4.124   1.111  0.8725  1.1787  1.0669
   36RES   H18210052   3.266   3.978   1.156  1.7696  0.9217 -0.4501
   36RES   H18310053   3.178   3.979   0.997  2.6534 -0.5087 -0.7754
   36RES   O18410054   3.435   4.352   0.862  0.4082 -0.2476 -0.0780
   36RES   C18510055   3.493   4.379   0.987  0.1327 -0.2156 -0.0859
   36RES   C18610056   3.484   4.531   1.012 -0.0323 -0.0835 -0.0642
   36RES   C18710057   3.602   4.581   1.106 -0.0327  0.0202  0.4254
   36RES   O18810058   3.610   4.723   1.123  0.5415 -0.5793  0.2173
   36RES   C18910059   3.732   4.768   1.187 -0.4034  0.1717 -0.6635
   36RES   H19010060   3.599   4.355   0.983  0.1311 -0.2069 -0.1927
   36RES   H19110061   3.448   4.319   1.065 -1.7635  2.1925  0.7462
   36RES   H19210062   3.502   4.590   0.923  1.1811 -0.5916 -0.1642
   36RES   H19310063   3.694   4.551   1.056 -0.0515  0.4401  0.1321
   36RES   H19410064   3.604   4.519   1.195  1.7620 -0.0315  0.3680
   36RES   H19510065   3.734   4.877   1.196 -2.4017  0.1952 -0.4029
   36RES   H19610066   3.752   4.713   1.279 -2.1162 -1.2291 -1.1013
   36RES   H19710067   3.811   4.749   1.114  2.3265  0.1455  2.1628
   36RES   O19810068   3.362   4.566   1.074  0.7806 -0.6067 -0.2866
   36RES   C19910069   3.243   4.553   0.992 -0.5927 -0.1152 -0.2524
   36RES   C20010070   3.116   4.562   1.080  0.0255  0.1215 -1.0368
   36RES   C20110071   3.103   4.435   1.161 -0.1842  0.2776 -0.1367
   36RES   O20210072   3.013   4.460   1.270  0.1126 -0.0884 -0.1156
   36RES   C20310073   2.998   4.359   1.366  0.0769 -0.0192  1.3598
   36RES   H20410074   3.232   4.457   0.941  0.3834 -1.3194  1.7239
   36RES   H20510075   3.246   4.634   0.919  1.0947 -1.4224 -1.6954
   36RES   H20610076   3.140   4.644   1.147 -0.1776 -1.0113  0.4579
   36RES   H20710077   3.067   4.355   1.095 -2.4906  1.2220 -0.0668
   36RES   H20810078   3.201   4.410   1.202  0.8778  1.0432 -2.1411
   36RES   H20910079   3.096   4.347   1.412  0.0496  1.1313  1.7219
   36RES   H21010080   2.959   4.266   1.326  1.2656  0.0051  0.0947
   36RES   H21110081   2.930   4.393   1.444 -0.7103  2.0093 -0.1605
   36RES   O21210082   3.012   4.587   0.986  0.3988 -0.2209 -0.0681
   36RES   C21310083   2.912   4.665   1.044 -0.5856  0.5240  0.8932
   36RES   C21410084   2.881   4.787   0.954 -0.5131  0.1912 -0.0435
   36RES   C21510085   2.820   4.896   1.036  0.8713  0.2628 -0.4659
   36RES   O21610086   2.827   5.021   0.963 -0.8094 -0.4889  0.1440
   36RES   C21710087   2.945   5.085   0.991  0.0840  1.0631 -0.6447
   36RES   H21810088   2.935   4.701   1.144 -0.8907 -1.5816  1.7500
   36RES   H21910089   2.828   4.598   1.058 -0.0130 -0.5753 -0.7206
   36RES   H22010090   2.972   4.824   0.905 -1.1552 -0.5910 -1.8828
   36RES   H22110091   2.714   4.885   1.060  1.4070  0.2576  2.0472
   36RES   H22210092   2.870   4.898   1.133  0.1565 -0.2700 -0.0840
   36RES   H22310093   3.027   5.026   0.949 -0.8410 -0.5848 -0.2019
   36RES   H22410094   2.971   5.119   1.091 -0.6073 -1.1258  0.3030
   36RES   H22510095   2.944   5.177   0.932 -1.0506  0.7688 -1.1051
   36RES   O22610096   2.782   4.744   0.858  0.4919  0.5395  0.3854
   36RES   C22710097   2.812   4.656   0.752 -0.1155  0.8249 -0.3472
   36RES   C22810098   2.931   4.700   0.656 -0.6213 -0.3718 -0.5204
   36RES   C22910099   2.971   4.591   0.573  0.9198 -0.0215  0.9210
   36RES   O23010100   3.091   4.626   0.508 -0.0445  0.0060 -0.2648
   36RES   C23110101   3.158   4.513   0.449  1.0354  0.0218 -0.0603
   36RES   H23210102   2.719   4.643   0.698  0.2364  1.4094 -1.1024
   36RES   H23310103   2.834   4.563   0.806  0.7689  0.9433 -0.5002
   36RES   H23410104   3.014   4.713   0.725 -1.8720 -1.0830  1.1486
   36RES   H23510105   2.893   4.571   0.500  2.6737 -0.4694 -0.8659
   36RES   H23610106   2.975   4.503   0.638 -1.7998  1.0515  2.6729
   36RES   H23710107   3.237   4.561   0.391 -0.0034  0.5631 -1.0418
   36RES   H23810108   3.097   4.454   0.381  1.0630 -1.2167  0.9579
   36RES   H23910109   3.200   4.456   0.532  1.6011  2.1579  1.1600
   36RES   O24010110   2.900   4.802   0.572  0.0503  0.5738 -0.8113
   36RES   C24110111   2.917   4.932   0.632 -0.0548 -0.3033 -0.2076
   36RES   C24210112   2.919   5.051   0.529 -0.7721 -0.4101 -0.2173
   36RES   C24310113   2.878   5.184   0.596  0.8816 -0.5784 -0.1502
   36RES   O24410114   2.818   5.271   0.508  0.3124 -0.1485  0.2390
   36RES   C24510115   2.769   5.386   0.566 -0.1327  1.1248  0.3547
   36RES   H24610116   3.007   4.936   0.694  0.1125  0.5773 -0.4966
   36RES   H24710117   2.831   4.954   0.695  0.6261  0.9185  0.3166
   36RES   H24810118   2.856   5.025   0.444 -0.2297  0.1848 -0.8031
   36RES   H24910119   2.816   5.155   0.681 -0.0893 -1.8302 -1.2814
   36RES   H25010120   2.967   5.237   0.632 -1.1874  2.2649  0.9556
   36RES   H25110121   2.851   5.453   0.592  1.7782 -0.8149 -0.4732
   36RES   H25210122   2.706   5.375   0.654 -1.9118  0.3540 -0.9744
   36RES   H25310123   2.703   5.430   0.491  2.6594 -2.1027 -4.2769
   36RES   O25410124   3.061   5.067   0.494 -0.5228 -0.4088 -0.4449
   36RES   C25510125   3.107   4.976   0.393  0.7820 -0.3839  0.1631
   36RES   C25610126   3.172   5.043   0.272  0.2866  0.2176  0.5942
   36RES   C25710127   3.218   4.919   0.185  0.4097  0.6691  0.4760
   36RES   O25810128   3.293   4.947   0.069 -0.0895  0.1799  0.2771
   36RES   C25910129   3.214   4.991   7.779  0.1560  0.0107 -0.3872
   36RES   H26010130   3.168   4.908   0.453 -0.6570  1.1522  3.5027
   36RES   H26110131   3.025   4.907   0.376  0.5051  0.2377 -1.0978
   36RES   H26210132   3.258   5.107   0.290  1.2022 -0.7333 -0.3674
   36RES   H26310133   3.280   4.859   0.252 -0.1328 -0.7596 -0.2874
   36RES   H26410134   3.139   4.849   0.157  1.8215 -0.8350  0.2002
   36RES   H26510135   3.143   4.910   7.763  1.7817 -1.2479 -1.3211
   36RES   H26610136   3.278   4.993   7.691  0.1769 -1.4302 -0.4186
   36RES   H26710137   3.164   5.084   7.805 -1.1002 -0.7308 -0.1225
   36RES   O26810138   3.075   5.121   0.202 -0.1055  0.0237  0.4061
   36RES   C26910139   3.077   5.257   0.233  0.8429  0.0636 -0.6453
   36RES   C27010140   2.947   5.298   0.170  0.3366  0.1710 -0.5605
   36RES   C27110141   2.938   5.311   0.023 -0.3981 -0.3052 -0.1651
   36RES   O27210142   2.819   5.383   7.812 -0.0396  0.4669  0.6064
   36RES   C27310143   2.810   5.427   7.679 -0.1129  0.0680 -0.0968
   36RES   H27410144   3.157   5.313   0.184  0.1865  1.0443 -0.6025
   36RES   H27510145   3.070   5.286   0.338  2.3234  0.7130 -0.7149
   36RES   H27610146   2.867   5.230   0.201  0.2772  1.5596  2.4792
   36RES   H27710147   2.954   5.224   7.777  0.1947 -0.2052 -0.1520
   36RES   H27810148   3.018   5.378   7.808 -1.0845  0.0242 -1.2033
   36RES   H27910149   2.819   5.343   7.610  2.2728  0.1831  0.0123
   36RES   H28010150   2.875   5.510   7.652 -0.5120 -0.3690 -2.5166
   36RES   H28110151   2.711   5.465   7.658 -0.2646  0.9714  2.0506
   36RES   H28210152   2.925   5.387   0.229  0.8396 -0.1061  0.0538
   37RES     O110153   7.358   2.186   4.963 -0.3124  0.0107  0.0831
   37RES     C210154   7.252   2.263   5.012 -0.4444  0.4482  0.1666
   37RES     C310155   7.244   2.397   4.933 -0.8918 -0.3697  0.1963
   37RES     C410156   7.098   2.452   4.942 -0.1226 -0.1185 -0.0295
   37RES     O510157   7.072   2.559   4.852 -0.1484  0.1327 -0.3800
   37RES     C610158   6.994   2.521   4.737  0.1109  0.2532 -0.2686
   37RES     H710159   7.166   2.200   4.991  0.6828 -1.6350  1.6825
   37RES     H810160   7.254   2.284   5.119 -1.1487 -2.0057  0.6692
   37RES     H910161   7.267   2.387   4.827  0.6424 -3.4160  0.7727
   37RES    H1010162   7.068   2.478   5.043  0.3326 -2.3793  0.7171
   37RES    H1110163   7.029   2.368   4.930 -0.2822  0.1976 -1.4057
   37RES    H1210164   6.896   2.485   4.768  0.7196  1.0199  2.7313
   37RES    H1310165   6.979   2.609   4.674 -0.0605  0.1891 -0.3175
   37RES    H1410166   7.045   2.447   4.675  2.5179  1.3046  0.3746
   37RES    H1510167   7.322   2.099   4.953 -0.7706  0.3051 -0.8621
   37RES    O1610168   7.322   2.492   4.995 -0.2196 -0.3045  0.3925
   37RES    C1710169   7.467   2.484   4.980 -0.2396  1.0385  0.1095
   37RES    C1810170   7.531   2.621   4.988  0.0100  0.5917  0.1861
   37RES    C1910171   7.684   2.612   5.023  0.4550  0.1924  0.2523
   37RES    O2010172   7.746   2.513   4.949  0.3513 -0.7369 -0.0320
   37RES    C2110173   0.072   2.499   4.968  0.9785 -0.2200  0.0931
   37RES    H2210174   7.502   2.441   4.885 -1.1330  0.2581  0.1253
   37RES    H2310175   7.518   2.416   5.048  0.5515  0.6544 -0.8414
   37RES    H2410176   7.488   2.683   5.068 -0.6830  1.1379 -0.6028
   37RES    H2510177   7.727   2.710   5.003 -2.4863  1.6689  0.9001
   37RES    H2610178   7.708   2.600   5.128  0.8792  1.4905  0.3099
   37RES    H2710179   0.109   2.421   4.902  1.4533 -1.6841  2.0537
   37RES    H2810180   0.098   2.477   5.072  0.2012 -1.6487 -0.0018
   37RES    H2910181   0.117   2.590   4.928 -0.5615 -0.5570 -2.5048
   37RES    O3010182   7.525   2.689   4.860  0.0266 -0.2827  0.1458
   37RES    C3110183   7.406   2.752   4.823 -0.2914  0.2050 -0.5286
   37RES    C3210184   7.382   2.880   4.898  0.0926  0.2181 -0.6686
   37RES    C3310185   7.269   2.959   4.833 -0.2856  0.8232  0.7162
   37RES    O3410186   7.212   3.041   4.935  0.2806 -0.4393 -0.5287
   37RES    C3510187   7.098   3.122   4.899 -0.0132 -0.2355  0.2588
   37RES    H3610188   7.414   2.773   4.717  2.1872 -0.3993 -0.5046
   37RES    H3710189   7.329   2.678   4.845 -2.3009  2.3063 -0.3337
   37RES    H3810190   7.366   2.857   5.003 -0.0950  1.7655 -0.3408
   37RES    H3910191   7.197   2.881   4.810  2.9266 -1.6455 -1.3908
   37RES    H4010192   7.306   3.011   4.744  1.1403 -0.8651  0.3067
   37RES    H4110193   7.119   3.169   4.802  1.9602 -0.5116  0.5334
   37RES    H4210194   7.063   3.203   4.962  1.9233  0.6362  0.2487
   37RES    H4310195   7.008   3.061   4.887 -2.0921  2.9330 -1.0452
   37RES    O4410196   7.512   2.954   4.883 -0.1469 -0.6952 -0.5198
   37RES    C4510197   7.513   3.070   4.967  0.7290  0.1998 -0.0321
   37RES    C4610198   7.541   3.031   5.113  0.4401  0.9488  0.2468
   37RES    C4710199   7.691   2.997   5.148  0.0184  0.3521 -0.0931
   37RES    O4810200   7.703   2.890   5.237 -0.1359 -0.0518  0.0441
   37RES    C4910201   0.014   2.843   5.255 -0.5231  0.4962 -0.5616
   37RES    H5010202   7.427   3.137   4.967  1.7654  1.5671  1.7665
   37RES    H5110203   7.599   3.129   4.935 -0.7101  1.7463 -1.1619
   37RES    H5210204   7.482   2.944   5.144 -0.7301  1.6559  0.0240
   37RES    H5310205   7.743   2.979   5.054  0.0638  2.0622 -0.4023
   37RES    H5410206   7.742   3.082   5.194 -0.9126  0.7408  0.2386
   37RES    H5510207   0.067   2.893   5.335  1.5035 -1.0039 -0.9183
   37RES    H5610208   0.076   2.846   5.165  0.9348 -1.8998  0.3202
   37RES    H5710209   0.029   2.741   5.292  2.7587  0.6135 -1.4310
   37RES    O5810210   7.508   3.127   5.206  0.3588 -0.0866  0.0158
   37RES    C5910211   7.368   3.138   5.234 -0.2183 -0.3066 -0.2276
   37RES    C6010212   7.343   3.256   5.326 -0.3141 -0.3122 -0.0886
   37RES    C6110213   7.203   3.243   5.390 -0.7755  0.4631 -0.6036
   37RES    O6210214   7.202   3.326   5.504  0.3167 -0.3828 -0.2746
   37RES    C6310215   7.103   3.286   5.593  0.5675 -0.0826 -0.7124
   37RES    H6410216   7.335   3.043   5.276 -3.4721  0.1788 -1.5290
   37RES    H6510217   7.318   3.150   5.138 -1.0936 -0.3361  0.2228
   37RES    H6610218   7.419   3.259   5.404  2.4408  0.9810 -2.7048
   37RES    H6710219   7.137   3.290   5.318  0.5832  2.4962 -0.5734
   37RES    H6810220   7.191   3.138   5.415  1.9935 -0.5264 -3.1431
   37RES    H6910221   7.086   3.360   5.672  2.8758  1.2384 -1.3909
   37RES    H7010222   7.149   3.199   5.640  0.4012  0.1694 -0.0747
   37RES    H7110223   7.014   3.252   5.541  1.0534 -1.7188 -0.4834
   37RES    O7210224   7.350   3.380   5.254  0.1874 -0.0081  0.3388
   37RES    C7310225   7.479   3.433   5.227  0.1752  0.1540  0.0216
   37RES    C7410226   7.535   3.528   5.339  0.0867 -0.2670  0.1421
   37RES    C7510227   7.639   3.624   5.273  0.0063 -0.4516 -0.0665
   37RES    O7610228   7.695   3.709   5.380  0.8616 -0.2696 -0.1413
   37RES    C7710229   7.751   3.832   5.326 -0.2072  0.5354 -0.4056
   37RES    H7810230   7.553   3.362   5.190  0.7890  0.9813 -0.3461
   37RES    H7910231   7.462   3.484   5.133  0.0335 -0.2893 -0.1913
   37RES    H8010232   7.453   3.588   5.378 -0.1822  0.2276 -1.1447
   37RES    H8110233   7.601   3.684   5.190  1.9905  0.7985 -0.0932
   37RES    H8210234   7.718   3.560   5.232  0.5408  1.1809 -1.6725
   37RES    H8310235   7.793   3.885   5.411 -0.8271  1.1116 -0.4480
   37RES    H8410236   7.679   3.904   5.287 -1.0002 -0.2724 -0.4417
   37RES    H8510237   0.018   3.812   5.259  1.3897  0.2896  1.6242
   37RES    O8610238   7.589   3.443   5.437  0.1541 -0.2783  0.4692
   37RES    C8710239   7.534   3.471   5.570  0.1270  0.2903  0.5667
   37RES    C8810240   7.633   3.407   5.672  0.3002  0.3892  0.6084
   37RES    C8910241   7.642   3.476   5.809 -0.1659  0.6838  0.0902
   37RES    O9010242   7.742   3.425   5.896 -0.4422 -0.0991  0.5322
   37RES    C9110243   7.715   3.298   5.950 -0.6061 -0.0604  0.4807
   37RES    H9210244   7.532   3.579   5.581 -1.2183  0.1304  2.0342
   37RES    H9310245   7.434   3.430   5.588  0.9357 -2.0321 -0.0398
   37RES    H9410246   7.735   3.416   5.635  0.6364 -0.6384  1.2620
   37RES    H9510247   7.658   3.582   5.788  0.6957  0.1987 -1.8153
   37RES    H9610248   7.548   3.472   5.865  0.1504  1.2454  0.6734
   37RES    H9710249   7.763   3.220   5.891  1.9035 -0.9951  3.6176
   37RES    H9810250   7.754   3.304   6.052 -0.7119 -0.4503  0.5460
   37RES    H9910251   7.610   3.276   5.970 -0.1659 -2.0288  0.7964
   37RES   O10010252   7.595   3.268   5.692 -0.2425  0.1099 -0.1237
   37RES   C10110253   7.658   3.171   5.612  0.2313  0.1808  0.6830
   37RES   C10210254   7.598   3.031   5.648 -0.6075  0.0165 -0.0991
   37RES   C10310255   7.443   3.036   5.664 -0.5299  1.0858 -0.4844
   37RES   O10410256   7.405   2.913   5.609 -0.7275 -0.1792  0.3333
   37RES   C10510257   7.272   2.886   5.606 -0.6366 -0.8652  0.5253
   37RES   H10610258   7.766   3.176   5.614  0.2618 -0.3604  0.6983
   37RES   H10710259   7.639   3.196   5.508  1.0277 -1.7480  0.0417
   37RES   H10810260   7.629   2.959   5.572 -1.2397  0.2634 -0.5942
   37RES   H10910261   7.389   3.111   5.607  0.2890  0.4457 -2.1343
   37RES   H11010262   7.410   3.055   5.766  0.2157  0.9207 -0.2025
   37RES   H11110263   7.251   2.779   5.604  0.2354 -1.0255 -0.0134
   37RES   H11210264   7.220   2.935   5.523 -3.9939  0.5762  3.3201
   37RES   H11310265   7.227   2.915   5.701  0.1942  0.9049  0.3999
   37RES   O11410266   7.654   2.985   5.772  0.3144 -0.4454  0.3005
   37RES   C11510267   7.628   2.850   5.805 -0.4675 -0.1544 -0.0112
   37RES   C11610268   7.741   2.788   5.895  0.9217 -0.7199  0.1520
   37RES   C11710269   7.684   2.698   6.004  0.5686 -1.0959  0.4241
   37RES   O11810270   7.797   2.676   6.090 -0.6968 -0.5629 -0.1879
   37RES   C11910271   7.772   2.589   6.199  0.3908  0.0740 -0.2429
   37RES   H12010272   7.531   2.855   5.854 -1.2075 -1.2217 -1.3340
   37RES   H12110273   7.604   2.790   5.717  0.7007  0.7792 -1.0005
   37RES   H12210274   7.810   2.865   5.929 -0.0096  0.7921 -1.2635
   37RES   H12310275   7.609   2.735   6.075  0.3355 -0.0129 -0.3847
   37RES   H12410276   7.649   2.602   5.965 -0.9824 -0.6135  0.5910
   37RES   H12510277   0.034   2.537   6.253  0.6791 -2.4066 -2.8967
   37RES   H12610278   7.713   2.505   6.162 -0.4439  0.8369 -0.6658
   37RES   H12710279   7.714   2.646   6.271 -1.6460 -1.0092 -0.9704
   37RES   O12810280   7.809   2.696   5.810 -0.1424 -0.5169  0.0242
   37RES   C12910281   0.094   2.759   5.729  0.2541 -0.4606 -1.0031
   37RES   C13010282   0.139   2.648   5.629 -0.1585  0.1367  0.2547
   37RES   C13110283   0.252   2.708   5.538  0.5648 -0.4651  0.0447
   37RES   O13210284   0.292   2.623   5.430  0.1130  0.0527 -0.0013
   37RES   C13310285   0.373   2.512   5.454 -0.1017 -0.1730 -1.1064
   37RES   H13410286   0.073   2.851   5.674 -0.6095  0.2002  0.3925
   37RES   H13510287   0.177   2.791   5.793  0.7660  0.9242 -2.3157
   37RES   H13610288   0.179   2.562   5.683 -3.2609 -0.9273  0.9684
   37RES   H13710289   0.346   2.715   5.592  1.2101 -3.7407 -0.5579
   37RES   H13810290   0.230   2.807   5.498  0.8280 -0.6078 -0.4571
   37RES   H13910291   0.313   2.422   5.469 -0.7989  0.6806  1.5028
   37RES   H14010292   0.442   2.507   5.369  0.8095 -0.2669 -0.3619
   37RES   H14110293   0.436   2.522   5.542 -0.1050  0.1188 -1.1360
   37RES   O14210294   0.038   2.617   5.535  0.0948  0.4981 -0.7355
   37RES   C14310295   7.772   2.509   5.565 -0.4953 -0.2750  0.2706
   37RES   C14410296   7.668   2.497   5.445 -0.3772 -0.0337  0.2436
   37RES   C14510297   7.560   2.603   5.453  0.0561  0.7566  0.2110
   37RES   O14610298   7.468   2.583   5.342  0.1867  0.0167  0.0998
   37RES   C14710299   7.387   2.703   5.322 -0.1974  0.2519  0.2597
   37RES   H14810300   0.006   2.413   5.576 -1.7625 -0.9679  0.2810
   37RES   H14910301   7.723   2.535   5.659  0.0335 -1.0326  0.7657
   37RES   H15010302   7.721   2.499   5.350 -2.1029 -1.7082 -0.7943
   37RES   H15110303   7.608   2.700   5.454 -0.2424  0.9536 -2.1714
   37RES   H15210304   7.507   2.578   5.545  0.1837 -2.3293 -0.4759
   37RES   H15310305   7.312   2.674   5.248  0.4978  1.9253 -1.1283
   37RES   H15410306   7.448   2.790   5.301  2.6813 -1.0606  2.7930
   37RES   H15510307   7.326   2.729   5.408  0.5962 -1.6954  1.4467
   37RES   O15610308   7.609   2.367   5.453 -0.2351  0.1415  0.6127
   37RES   C15710309   7.603   2.296   5.332  0.0014  0.6587 -0.2199
   37RES   C15810310   7.741   2.234   5.281 -0.0804  0.8657 -0.3421
   37RES   C15910311   7.724   2.182   5.136  0.2988  0.6063 -1.4229
   37RES   O16010312   0.033   2.161   5.064 -0.2269 -1.0811 -0.0686
   37RES   C16110313   0.058   2.029   5.017 -0.6761  0.6952 -0.3217
   37RES   H16210314   7.527   2.218   5.329 -0.7648  1.4341 -1.2534
   37RES   H16310315   7.563   2.374   5.267 -1.7877 -0.2193 -0.1761
   37RES   H16410316   7.804   2.323   5.273 -0.2969  1.0973  0.4879
   37RES   H16510317   7.679   2.083   5.150  1.9484 -0.0199 -0.5026
   37RES   H16610318   7.647   2.234   5.078 -2.9083  1.6002  3.4374
   37RES   H16710319   7.780   1.983   4.987 -0.3020 -1.1589  1.2276
   37RES   H16810320   0.107   1.971   5.095  0.5784  0.9306 -0.9319
   37RES   H16910321   0.133   2.043   4.940  0.1678  1.6172  0.6479
   37RES   O17010322   7.787   2.128   5.367 -0.0277 -0.5294  0.0883
   37RES   C17110323   0.113   2.140   5.390 -0.3458  0.3176 -0.0836
   37RES   C17210324   0.165   2.018   5.464 -0.1030  0.1723 -0.1993
   37RES   C17310325   0.279   2.057   5.556 -0.5246  0.5099  0.8344
   37RES   O17410326   0.293   1.948   5.655  0.2957  0.6615  0.1885
   37RES   C17510327   0.388   1.975   5.752  0.7659  0.0594 -0.0903
   37RES   H17610328   0.132   2.230   5.448  1.2859  0.4901 -0.8539
   37RES   H17710329   0.177   2.164   5.305  0.9795 -0.9739  0.5179
   37RES   H17810330   0.088   1.962   5.518 -0.6571  1.9641  0.9359
   37RES   H17910331   0.370   2.085   5.503 -1.0908  0.0604 -0.4215
   37RES   H18010332   0.244   2.147   5.607 -0.0474  0.6403  0.9310
   37RES   H18110333   0.394   1.894   5.825 -2.1968 -0.7568 -0.6665
   37RES   H18210334   0.368   2.074   5.791  0.7565  0.0012  0.0524
   37RES   H18310335   0.486   1.985   5.706  0.9147  1.5720  0.5376
   37RES   O18410336   0.202   1.937   5.361 -0.0352 -0.6041  0.1425
   37RES   C18510337   0.216   1.796   5.393  0.2814 -0.4362  0.0780
   37RES   C18610338   0.242   1.702   5.273 -0.7623  0.7700 -0.2492
   37RES   C18710339   0.227   1.554   5.310 -0.1803  0.3833 -0.5528
   37RES   O18810340   0.193   1.487   5.193  0.1462  0.2863 -0.1191
   37RES   C18910341   0.166   1.346   5.210  0.3578  0.8561  0.2434
   37RES   H19010342   0.125   1.767   5.447 -0.0850  0.6622  0.0517
   37RES   H19110343   0.296   1.778   5.465  0.4783  0.9760  0.2183
   37RES   H19210344   0.170   1.719   5.193  2.1589 -1.6146 -3.5839
   37RES   H19310345   0.149   1.536   5.383 -0.1790  1.7672 -0.1838
   37RES   H19410346   0.328   1.527   5.340 -0.2213  1.2531  0.4281
   37RES   H19510347   0.077   1.318   5.267  0.5829  0.8091  0.5755
   37RES   H19610348   0.176   1.292   5.116  0.7543 -2.8635  2.3498
   37RES   H19710349   0.250   1.310   5.269  0.1881 -0.5115 -0.3388
   37RES   O19810350   0.373   1.736   5.226  1.1156  0.7485  0.1335
   37RES   C19910351   0.376   1.792   5.098 -0.2672  0.5255  0.4124
   37RES   C20010352   0.342   1.700   4.975  0.3370 -0.6998 -0.4255
   37RES   C20110353   0.414   1.750   4.852 -0.6451  0.3569  1.1135
   37RES   O20210354   0.430   1.634   4.764  0.1840 -0.1446 -0.7599
   37RES   C20310355   0.546   1.636   4.684  0.8963  0.0413  0.1154
   37RES   H20410356   0.483   1.815   5.098 -0.2930  0.6661 -0.5612
   37RES   H20510357   0.327   1.889   5.096 -1.6006 -0.1767 -1.6887
   37RES   H20610358   0.372   1.599   5.006 -2.0757 -1.6013 -0.9392
   37RES   H20710359   0.363   1.830   4.799 -1.2792 -0.6539  0.1810
   37RES   H20810360   0.513   1.780   4.886 -1.2080  1.1191  2.0973
   37RES   H20910361   0.633   1.654   4.747  2.1812 -2.0505 -1.0352
   37RES   H21010362   0.531   1.714   4.609  1.8829  0.8555  0.7591
   37RES   H21110363   0.539   1.537   4.638  1.5405  0.3240 -0.6021
   37RES   O21210364   0.200   1.717   4.960 -0.2476  0.3992 -0.1483
   37RES   C21310365   0.129   1.621   4.878  0.6763 -0.8362  0.0297
   37RES   C21410366   7.787   1.642   4.893  0.4414 -0.0926  0.3591
   37RES   C21510367   7.718   1.569   5.015  0.0233  0.3528  0.3012
   37RES   O21610368   7.580   1.569   5.009 -0.0247 -0.3780 -0.3878
   37RES   C21710369   7.515   1.505   5.114  0.2830  0.2982 -0.1064
   37RES   H21810370   0.165   1.520   4.897  1.3823 -0.3422  1.3954
   37RES   H21910371   0.158   1.644   4.776 -0.7720 -1.5105 -0.5436
   37RES   H22010372   7.761   1.746   4.875  0.9420  0.1672  1.1539
   37RES   H22110373   7.756   1.468   5.027 -0.3406  0.0318 -1.2226
   37RES   H22210374   7.738   1.620   5.109  0.6688  2.0539 -0.7261
   37RES   H22310375   7.572   1.418   5.144  0.9570 -0.2345 -2.8095
   37RES   H22410376   7.419   1.468   5.077 -0.7244  0.5244  2.2218
   37RES   H22510377   7.497   1.570   5.200 -2.6501  0.2621 -0.6208
   37RES   O22610378   7.728   1.564   4.788  0.9282 -0.0647  0.5717
   37RES   C22710379   7.717   1.624   4.660 -0.3340 -0.0004  0.3389
   37RES   C22810380   7.722   1.509   4.552  0.2479 -0.6960 -0.4276
   37RES   C22910381   7.677   1.564   4.414 -0.0491 -0.3362 -0.1541
   37RES   O23010382   7.689   1.458   4.321 -0.3969 -0.0433  0.0302
   37RES   C23110383   7.658   1.501   4.189  0.3622 -0.4037 -0.2920
   37RES   H23210384   7.799   1.694   4.645 -1.5040  1.3771  0.3339
   37RES   H23310385   7.634   1.693   4.671  0.2537  0.3890  2.5859
   37RES   H23410386   7.667   1.419   4.579  0.8324 -1.3164 -1.3274
   37RES   H23510387   7.734   1.654   4.392 -1.3078  0.1424 -1.5646
   37RES   H23610388   7.581   1.614   4.404 -0.0706 -0.4692 -0.6586
   37RES   H23710389   7.715   1.592   4.169 -0.0521  0.3010  1.5942
   37RES   H23810390   7.559   1.545   4.175 -0.0243 -1.6726 -1.6546
   37RES   H23910391   7.674   1.420   4.118  0.8061  0.5952 -1.3535
   37RES   O24010392   0.043   1.477   4.539 -0.2056 -0.2578  0.6461
   37RES   C24110393   0.080   1.359   4.598  0.0129  0.1484 -0.0545
   37RES   C24210394   0.227   1.333   4.566 -0.1150 -0.0142 -0.7739
   37RES   C24310395   0.272   1.253   4.685 -0.6177  0.3546  0.1319
   37RES   O24410396   0.408   1.226   4.698  0.0897 -0.3354  0.0789
   37RES   C24510397   0.456   1.119   4.622 -0.4546  0.0453 -0.8602
   37RES   H24610398   0.011   1.276   4.581 -0.7037  0.6048  0.5707
   37RES   H24710399   0.075   1.382   4.705  0.7979  1.1301 -0.2223
   37RES   H24810400   0.279   1.429   4.570 -0.7533  0.2691  1.5862
   37RES   H24910401   0.254   1.319   4.770 -0.1903  0.5097  0.1029
   37RES   H25010402   0.213   1.161   4.681 -1.9140  1.1813 -0.0424
   37RES   H25110403   0.422   1.027   4.668  0.4884 -0.1619 -0.5742
   37RES   H25210404   0.564   1.103   4.628 -1.0429 -3.1030  3.2919
   37RES   H25310405   0.432   1.132   4.516 -0.8138 -0.5025 -0.8491
   37RES   O25410406   0.257   1.263   4.441  0.2912  0.1881 -0.1032
   37RES   C25510407   0.222   1.333   4.322  0.5157 -0.1192  0.1986
   37RES   C25610408   0.237   1.252   4.194  0.3109  0.8054  0.3985
   37RES   C25710409   0.161   1.323   4.083  0.0676 -0.2983 -0.2085
   37RES   O25810410   0.156   1.463   4.098  0.0266 -0.3433 -0.3414
   37RES   C25910411   0.096   1.528   3.978  0.5374  0.2223  0.0668
   37RES   H26010412   0.117   1.362   4.318  0.0373 -1.8893 -1.3168
   37RES   H26110413   0.275   1.428   4.318 -1.0421  0.8240  1.3360
   37RES   H26210414   0.182   1.158   4.191  0.9209  0.4738 -0.7128
   37RES   H26310415   0.191   1.289   3.985  1.9719  2.5876 -0.6849
   37RES   H26410416   0.057   1.294   4.101  0.4419 -0.4672  1.7850
   37RES   H26510417   0.027   1.463   3.925  2.7509 -1.7503 -0.4932
   37RES   H26610418   0.172   1.555   3.904  1.1278  0.2341  0.6747
   37RES   H26710419   0.046   1.619   4.010  1.7693  0.5685  1.0390
   37RES   O26810420   0.373   1.254   4.150 -0.0263 -0.3164 -0.1119
   37RES   C26910421   0.458   1.161   4.218 -0.4715  0.8257 -0.6997
   37RES   C27010422   0.593   1.160   4.150  0.1031  0.1248  0.4907
   37RES   C27110423   0.695   1.095   4.241 -1.3432 -0.4469  0.3199
   37RES   O27210424   0.689   0.958   4.250  0.7429  0.1742 -0.4946
   37RES   C27310425   0.721   0.905   4.373  0.6027 -0.7435  0.0663
   37RES   H27410426   0.421   1.059   4.217  1.6478  0.0257 -0.6347
   37RES   H27510427   0.460   1.200   4.320 -1.0957  1.0511 -0.7751
   37RES   H27610428   0.591   1.121   4.048 -0.9669 -0.8487  0.8731
   37RES   H27710429   0.688   1.145   4.338  0.7539 -1.3721  0.9819
   37RES   H27810430   0.796   1.122   4.209 -0.6723 -0.5097  2.2992
   37RES   H27910431   0.650   0.951   4.441 -0.8175 -1.8640 -0.6328
   37RES   H28010432   0.820   0.907   4.418  0.3774 -0.5146  0.5549
   37RES   H28110433   0.695   0.799   4.376 -1.1262 -0.3517 -0.8251
   37RES   H28210434   0.612   1.266   4.138  1.4142 -0.2209 -0.6682
   38RES     O110435   4.896   1.686   4.644  0.1765 -0.3470 -0.0615
   38RES     C210436   4.970   1.799   4.608  0.0057  0.0312 -0.4175
   38RES     C310437   4.879   1.929   4.595 -0.5382 -0.5634 -0.4993
   38RES     C410438   4.847   1.995   4.734  0.0697 -1.2708  0.3987
   38RES     O510439   4.738   2.093   4.721  0.3720  0.1027 -0.3303
   38RES     C610440   4.785   2.229   4.741  0.2356  0.2451 -0.3691
   38RES     H710441   5.056   1.805   4.675 -0.8618  1.2211  0.6165
   38RES     H810442   5.008   1.772   4.510 -0.6890  1.4157 -1.0987
   38RES     H910443   4.782   1.906   4.551 -1.6788  2.3356  0.3747
   38RES    H1010444   4.931   2.044   4.784  0.1288 -2.1650  1.1831
   38RES    H1110445   4.802   1.914   4.791  0.0158 -0.9254  0.8464
   38RES    H1210446   4.859   2.262   4.667  1.6739  0.7625  1.2473
   38RES    H1310447   4.706   2.304   4.750 -0.5302 -0.8509  2.4502
   38RES    H1410448   4.843   2.237   4.834  0.1435 -0.3833 -0.2548
   38RES    H1510449   4.838   1.670   4.571  2.2561  0.4574 -1.9431
   38RES    O1610450   4.943   2.027   4.521 -0.1437  0.5133  0.5002
   38RES    C1710451   4.952   2.011   4.379 -0.3135  0.3510  0.0177
   38RES    C1810452   4.986   2.137   4.296 -0.1752 -0.1671 -0.0286
   38RES    C1910453   5.050   2.096   4.156 -0.2119  0.7665  0.0739
   38RES    O2010454   4.965   2.007   4.083 -0.2502 -0.3259 -0.3113
   38RES    C2110455   5.030   1.954   3.968 -0.5836 -0.0791 -0.1275
   38RES    H2210456   4.851   1.975   4.359  0.1673 -1.2518  0.4285
   38RES    H2310457   5.020   1.929   4.356 -2.3806 -1.8593  1.5774
   38RES    H2410458   5.051   2.206   4.350 -1.5812  0.6262  0.6773
   38RES    H2510459   5.056   2.187   4.097 -3.9251 -0.2096 -1.9666
   38RES    H2610460   5.155   2.066   4.166 -0.0662  1.4336  0.5804
   38RES    H2710461   5.119   1.894   3.991 -0.3897 -0.5495 -2.0326
   38RES    H2810462   5.054   2.034   3.897 -2.7383  3.1717  2.6322
   38RES    H2910463   4.951   1.893   3.926 -0.3339 -0.4843 -0.0155
   38RES    O3010464   4.867   2.213   4.270 -0.0031  0.1712  0.1021
   38RES    C3110465   4.805   2.280   4.376 -0.9039 -0.0732  0.3920
   38RES    C3210466   4.668   2.346   4.327 -0.0857  0.7178  0.2097
   38RES    C3310467   4.599   2.408   4.456  0.0942  0.0709 -0.8036
   38RES    O3410468   4.483   2.488   4.431 -0.3557  0.0921  0.5400
   38RES    C3510469   4.452   2.569   4.549 -0.1542 -0.7008 -0.1996
   38RES    H3610470   4.777   2.211   4.456  1.3237 -1.0844  0.3621
   38RES    H3710471   4.878   2.346   4.424  0.2219 -0.7804 -0.3232
   38RES    H3810472   4.692   2.412   4.244  1.0910 -0.3993 -0.3614
   38RES    H3910473   4.666   2.476   4.508 -0.9945 -0.7233  1.7807
   38RES    H4010474   4.573   2.323   4.520 -0.3212 -0.9381 -2.2831
   38RES    H4110475   4.527   2.645   4.568 -0.7256  0.0675 -0.9807
   38RES    H4210476   4.438   2.500   4.633 -1.6286 -0.0265  0.1307
   38RES    H4310477   4.366   2.631   4.522  2.0821  2.2703 -0.6522
   38RES    O4410478   4.594   2.236   4.289  0.1970 -0.4341  0.3085
   38RES    C4510479   4.477   2.263   4.212 -1.1573  0.3483  0.7322
   38RES    C4610480   4.417   2.130   4.170 -0.1649  0.2117  0.1319
   38RES    C4710481   4.257   2.130   4.157 -0.1116 -0.1070 -0.4308
   38RES    O4810482   4.200   2.001   4.160  0.2336  0.3696  0.4039
   38RES    C4910483   4.172   1.942   4.025 -0.0557  0.0621  0.5633
   38RES    H5010484   4.516   2.323   4.130 -1.1426 -1.0745 -0.3268
   38RES    H5110485   4.401   2.327   4.258 -0.9924 -0.1882  1.7632
   38RES    H5210486   4.445   2.053   4.242  2.8731  0.1989 -0.9874
   38RES    H5310487   4.224   2.172   4.252  0.9521 -0.3455  0.0442
   38RES    H5410488   4.216   2.197   4.081  0.6438  1.0185  0.1428
   38RES    H5510489   4.075   1.893   4.021  0.9130 -1.8099 -0.3152
   38RES    H5610490   4.250   1.870   3.999  1.0817  1.6960 -0.6954
   38RES    H5710491   4.160   2.020   3.949  0.9979  1.2765  1.6097
   38RES    O5810492   4.459   2.101   4.036 -0.0816  0.2759 -0.2501
   38RES    C5910493   4.598   2.074   4.012  0.3679 -0.1180 -0.4619
   38RES    C6010494   4.626   2.058   3.860 -0.3611 -0.1373 -0.0642
   38RES    C6110495   4.560   2.172   3.779  1.1143  0.1259  0.6578
   38RES    O6210496   4.594   2.157   3.641  0.0025 -0.2057  0.0439
   38RES    C6310497   4.567   2.278   3.565 -0.6213 -0.2163 -0.7883
   38RES    H6410498   4.625   1.978   4.055  2.9370  0.8536  0.1901
   38RES    H6510499   4.660   2.147   4.064  0.8522  0.4222 -1.7522
   38RES    H6610500   4.731   2.062   3.832 -1.1464  2.7007 -2.8864
   38RES    H6710501   4.454   2.183   3.800  0.6334 -0.9480 -1.0798
   38RES    H6810502   4.590   2.271   3.812  0.7259  0.6805 -0.6185
   38RES    H6910503   4.463   2.311   3.574 -0.3542  1.2925 -2.7977
   38RES    H7010504   4.588   2.264   3.459 -0.1245  0.7141 -0.8228
   38RES    H7110505   4.626   2.363   3.602 -0.0237 -0.4017 -1.3129
   38RES    O7210506   4.603   1.921   3.822  0.2874  0.2291 -0.2870
   38RES    C7310507   4.470   1.871   3.837 -0.6039 -0.6789 -1.0648
   38RES    C7410508   4.454   1.728   3.782  0.1653  0.0105 -0.5800
   38RES    C7510509   4.428   1.721   3.628 -0.6158  0.0090  0.4300
   38RES    O7610510   4.428   1.590   3.586 -0.2644  0.2231 -0.0725
   38RES    C7710511   4.422   1.569   3.447  0.2153 -1.2995  0.2381
   38RES    H7810512   4.454   1.867   3.945  1.4256  1.0295 -0.6801
   38RES    H7910513   4.391   1.935   3.797 -2.8108 -1.4446  1.8186
   38RES    H8010514   4.548   1.676   3.804 -0.4656  0.0924  2.6710
   38RES    H8110515   4.495   1.790   3.577 -0.3712  1.1976  2.3025
   38RES    H8210516   4.331   1.765   3.607 -0.2142  0.9768  0.5796
   38RES    H8310517   4.411   1.464   3.420 -0.6686 -1.3355  0.7429
   38RES    H8410518   4.500   1.621   3.391 -0.4344 -0.3056  0.2498
   38RES    H8510519   4.331   1.614   3.408  1.7906  1.6905 -0.2005
   38RES    O8610520   4.357   1.665   3.859 -0.2443 -0.2108 -0.1425
   38RES    C8710521   4.370   1.517   3.862  0.3862 -0.0695  0.2477
   38RES    C8810522   4.230   1.461   3.812 -0.7101  0.1993  0.0441
   38RES    C8910523   4.243   1.330   3.738 -0.0661  0.2461 -0.3959
   38RES    O9010524   4.115   1.304   3.684 -0.2680  0.2030 -0.2798
   38RES    C9110525   4.019   1.236   3.758  0.2757 -0.1496  0.0692
   38RES    H9210526   4.452   1.477   3.803  0.6694  1.1930 -0.2247
   38RES    H9310527   4.371   1.489   3.968 -0.2107 -2.0579 -0.2629
   38RES    H9410528   4.174   1.524   3.742 -2.2332  0.3735  1.3960
   38RES    H9510529   4.323   1.350   3.667  2.6179 -0.5786  2.3104
   38RES    H9610530   4.282   1.251   3.802 -0.2214 -1.3143 -2.1562
   38RES    H9710531   3.916   1.256   3.728 -0.0923 -1.1748  0.6328
   38RES    H9810532   4.038   1.130   3.741 -2.2253 -0.7510  0.8678
   38RES    H9910533   4.002   1.255   3.863 -1.3335 -0.5636 -0.1114
   38RES   O10010534   4.150   1.443   3.922  0.2395 -0.4100 -0.0035
   38RES   C10110535   4.065   1.556   3.962 -0.1372 -0.4189  0.4328
   38RES   C10210536   3.987   1.518   4.089 -0.0068  1.2344 -0.8620
   38RES   C10310537   3.871   1.617   4.123  0.7587  0.4482 -0.4890
   38RES   O10410538   3.756   1.550   4.192  0.5111  0.3339 -0.3913
   38RES   C10510539   3.781   1.537   4.330  0.4196  0.5583 -0.2769
   38RES   H10610540   3.995   1.569   3.879 -0.8116 -0.9211  0.9145
   38RES   H10710541   4.127   1.645   3.971 -0.7007  0.1971 -1.5368
   38RES   H10810542   3.944   1.420   4.070  0.0423  1.3414 -1.5482
   38RES   H10910543   3.836   1.661   4.029 -1.9388  0.7641  0.6461
   38RES   H11010544   3.912   1.700   4.180 -0.3500  0.3749  0.4162
   38RES   H11110545   3.695   1.483   4.369  0.6914  0.7541  0.5973
   38RES   H11210546   3.775   1.633   4.380  2.6760  0.5765  0.0119
   38RES   H11310547   3.871   1.481   4.356  0.7378  0.2511 -1.9550
   38RES   O11410548   4.076   1.517   4.195  0.7849 -0.5272  0.6282
   38RES   C11510549   4.149   1.396   4.217  0.6330 -0.0778  0.0578
   38RES   C11610550   4.276   1.420   4.307  0.0009  0.6611  0.1177
   38RES   C11710551   4.334   1.289   4.344  0.5047  0.4734  0.4233
   38RES   O11810552   4.423   1.311   4.447 -0.2081 -0.1196  0.4884
   38RES   C11910553   4.487   1.200   4.505 -0.3360  0.8635 -0.4048
   38RES   H12010554   4.084   1.318   4.257  2.1885 -2.4461 -1.8607
   38RES   H12110555   4.181   1.355   4.121 -0.6612 -1.7470  0.3264
   38RES   H12210556   4.240   1.463   4.400 -0.7247 -1.9346  1.0799
   38RES   H12310557   4.256   1.220   4.374  0.5337 -0.0042 -0.5556
   38RES   H12410558   4.384   1.254   4.253 -0.7076 -0.7375  0.2210
   38RES   H12510559   4.531   1.233   4.599  2.4588  3.0081 -2.3759
   38RES   H12610560   4.558   1.155   4.435 -0.9652 -2.4168  0.9599
   38RES   H12710561   4.414   1.124   4.533  1.4682  0.2379  2.7256
   38RES   O12810562   4.375   1.491   4.233  0.1004  0.1195 -0.0780
   38RES   C12910563   4.347   1.637   4.214  0.3426  0.1392 -0.1974
   38RES   C13010564   4.478   1.719   4.250 -0.1812  0.1518 -0.6502
   38RES   C13110565   4.601   1.675   4.171 -0.3182  0.2563  0.0617
   38RES   O13210566   4.703   1.757   4.198 -0.1312 -0.1817  0.0545
   38RES   C13310567   4.827   1.709   4.145  0.3768 -0.2832 -0.2687
   38RES   H13410568   4.316   1.654   4.111 -3.0593  1.3048  0.9496
   38RES   H13510569   4.263   1.673   4.272  1.3083 -1.1065  2.0571
   38RES   H13610570   4.456   1.820   4.214 -2.5745  0.0910  0.5670
   38RES   H13710571   4.580   1.674   4.064  0.6041 -0.3567 -0.1161
   38RES   H13810572   4.634   1.580   4.212  1.2462  1.3592  1.3977
   38RES   H13910573   4.905   1.777   4.177  0.3615 -0.2075 -0.3953
   38RES   H14010574   4.857   1.616   4.193  0.4424  0.0063  0.2555
   38RES   H14110575   4.831   1.702   4.036  0.0361  1.7405 -0.4250
   38RES   O14210576   4.512   1.716   4.388  0.0375  0.5642 -0.0843
   38RES   C14310577   4.510   1.845   4.450 -0.3827 -0.0924  0.8450
   38RES   C14410578   4.371   1.887   4.499 -0.0071 -0.4703  0.5291
   38RES   C14510579   4.383   2.042   4.542  0.4375  0.8223  0.0145
   38RES   O14610580   4.261   2.076   4.603 -0.3767  0.0442  0.2201
   38RES   C14710581   4.263   2.192   4.690 -0.1243 -0.1904 -0.7133
   38RES   H14810582   4.571   1.836   4.540  0.0841 -1.4285  0.4199
   38RES   H14910583   4.559   1.924   4.393  0.5361 -0.2618  1.3794
   38RES   H15010584   4.305   1.867   4.415  1.1555  0.6510 -0.6725
   38RES   H15110585   4.403   2.110   4.459  0.8413  0.0628 -0.5135
   38RES   H15210586   4.463   2.048   4.616  2.0795 -0.6978 -1.5816
   38RES   H15310587   4.277   2.280   4.628 -0.9520 -1.0494 -2.1541
   38RES   H15410588   4.334   2.186   4.773 -2.4770  0.4368  1.4088
   38RES   H15510589   4.162   2.205   4.730 -0.4340 -1.5109 -1.0346
   38RES   O15610590   4.351   1.814   4.617 -0.0727 -0.2467 -0.5214
   38RES   C15710591   4.278   1.695   4.597  1.0294  0.3983  0.0295
   38RES   C15810592   4.188   1.641   4.706 -0.3905 -0.0490  0.1094
   38RES   C15910593   4.151   1.499   4.657  0.1679  0.2659 -0.1710
   38RES   O16010594   4.094   1.434   4.776  0.1674  0.3729 -0.0804
   38RES   C16110595   4.158   1.312   4.821 -0.2153  0.0353 -0.0206
   38RES   H16210596   4.224   1.701   4.503 -1.5868 -0.8220  1.4127
   38RES   H16310597   4.356   1.619   4.587  1.9333  1.1082  1.4774
   38RES   H16410598   4.236   1.645   4.804 -2.0896 -0.9520  0.9975
   38RES   H16510599   4.092   1.496   4.566 -1.4960  3.3027  0.7496
   38RES   H16610600   4.244   1.444   4.642 -0.3939 -1.0715  1.1155
   38RES   H16710601   4.150   1.246   4.735 -0.0768 -1.4281  1.0652
   38RES   H16810602   4.107   1.257   4.901  0.3188 -0.2293  0.1392
   38RES   H16910603   4.265   1.324   4.837  0.3309 -0.3341 -3.1385
   38RES   O17010604   4.067   1.720   4.721 -0.0299 -0.0371  0.1081
   38RES   C17110605   4.096   1.846   4.780  0.4266 -0.5744  0.1982
   38RES   C17210606   3.992   1.891   4.877  0.6684 -0.5868 -0.1983
   38RES   C17310607   3.986   2.046   4.892  0.2614  0.0285 -0.2244
   38RES   O17410608   3.867   2.092   4.950  0.1900 -0.2472  1.0116
   38RES   C17510609   3.839   2.063   5.088 -0.0880  0.5342  0.9810
   38RES   H17610610   4.125   1.911   4.697  1.0429 -0.9224  0.1336
   38RES   H17710611   4.189   1.841   4.836  0.7263  3.5971  0.2353
   38RES   H17810612   3.891   1.858   4.853 -0.1972  1.0002  1.1213
   38RES   H17910613   4.063   2.074   4.964 -0.7070 -0.4611  1.0187
   38RES   H18010614   4.000   2.088   4.792  0.5650  0.7937  0.1359
   38RES   H18110615   3.910   2.116   5.152  0.3106 -1.1495  1.9434
   38RES   H18210616   3.836   1.959   5.119  2.2783  0.8468  2.3443
   38RES   H18310617   3.744   2.108   5.115  0.0378  1.2007  0.3574
   38RES   O18410618   4.025   1.840   5.006  0.4332  0.1605  0.3091
   38RES   C18510619   3.988   1.708   5.027 -0.4837  0.2220  0.0462
   38RES   C18610620   4.019   1.677   5.169 -0.0295 -0.3778 -0.1130
   38RES   C18710621   4.002   1.525   5.205  0.4582  0.3759 -0.2804
   38RES   O18810622   3.877   1.483   5.159 -0.0694 -0.7715  0.3012
   38RES   C18910623   3.864   1.342   5.115 -0.7925 -0.4221 -0.0875
   38RES   H19010624   4.042   1.642   4.959  1.3478  0.7473  0.9677
   38RES   H19110625   3.882   1.688   5.008 -0.1081 -0.6297 -1.2460
   38RES   H19210626   4.126   1.693   5.180 -0.4872  1.1214  2.6236
   38RES   H19310627   4.024   1.522   5.311 -0.8501  2.4506  0.0951
   38RES   H19410628   4.074   1.472   5.143  2.9058  0.7572  2.1309
   38RES   H19510629   3.886   1.267   5.190 -0.4632  0.8569  1.1261
   38RES   H19610630   3.763   1.321   5.079 -1.3540  0.2922  1.0612
   38RES   H19710631   3.927   1.313   5.031  0.3508  0.2342  0.5231
   38RES   O19810632   3.935   1.744   5.260 -0.7268 -0.2740 -0.1011
   38RES   C19910633   3.980   1.866   5.321  0.1850  0.3118  0.3317
   38RES   C20010634   4.086   1.845   5.431  0.2643  0.0617 -0.6624
   38RES   C20110635   4.068   1.932   5.559  0.0852  0.2577 -0.2295
   38RES   O20210636   4.163   1.881   5.651  0.0109 -0.1141  0.0171
   38RES   C20310637   4.150   1.945   5.780 -0.0836  0.0762 -0.5503
   38RES   H20410638   3.883   1.898   5.357  0.1953  0.1226  0.5274
   38RES   H20510639   4.018   1.943   5.254  0.4334 -2.1237 -2.4344
   38RES   H20610640   4.068   1.741   5.456  2.0131  0.5145  2.6951
   38RES   H20710641   4.085   2.037   5.535  2.3493  0.0263  0.3379
   38RES   H20810642   3.965   1.913   5.591  0.9424 -2.0687  1.2705
   38RES   H20910643   4.045   1.942   5.808  0.0380  0.4959 -0.0554
   38RES   H21010644   4.178   2.049   5.794 -0.4263 -0.2348  3.0710
   38RES   H21110645   4.217   1.895   5.850 -0.3064 -1.8792 -1.7038
   38RES   O21210646   4.211   1.867   5.365 -0.4662  0.0454 -0.1251
   38RES   C21310647   4.319   1.770   5.356  0.4537  0.0158 -0.0513
   38RES   C21410648   4.432   1.811   5.260  0.4851 -0.2820 -0.9075
   38RES   C21510649   4.374   1.855   5.120 -0.5439 -0.2741 -0.1184
   38RES   O21610650   4.469   1.938   5.063 -0.5748  0.0283 -0.3111
   38RES   C21710651   4.463   1.952   4.923  0.3619 -0.1366 -0.2369
   38RES   H21810652   4.297   1.670   5.319  0.5992 -1.3097  3.2469
   38RES   H21910653   4.353   1.761   5.460 -1.3474  0.9537  0.6449
   38RES   H22010654   4.479   1.896   5.308 -1.3415 -0.6735  1.7230
   38RES   H22110655   4.361   1.760   5.068  1.1809 -0.4620 -0.2447
   38RES   H22210656   4.275   1.899   5.118 -1.0132 -1.3012  0.5334
   38RES   H22310657   4.376   2.012   4.895  1.2767  0.0260 -2.8509
   38RES   H22410658   4.442   1.859   4.872  2.5519 -0.0871 -1.2809
   38RES   H22510659   4.555   1.983   4.874  0.7987 -0.8196  0.1436
   38RES   O22610660   4.527   1.703   5.257 -0.2482 -0.4958 -0.5220
   38RES   C22710661   4.658   1.728   5.198  0.0850 -0.5858 -0.2837
   38RES   C22810662   4.715   1.605   5.124 -0.2856  0.3289 -0.2175
   38RES   C22910663   4.663   1.609   4.977 -0.1200 -0.5500 -0.2471
   38RES   O23010664   4.703   1.481   4.916  0.0815 -0.1141 -0.2073
   38RES   C23110665   4.638   1.445   4.794 -0.1980  0.7027 -0.0300
   38RES   H23210666   4.727   1.759   5.275  0.9349 -1.0903 -0.8379
   38RES   H23310667   4.652   1.811   5.128  0.3311  0.2169  0.6418
   38RES   H23410668   4.668   1.513   5.159  1.4029  0.1578  1.7071
   38RES   H23510669   4.699   1.683   4.906  2.5565 -0.6353  1.0027
   38RES   H23610670   4.555   1.619   4.987 -0.1713 -0.8892 -0.4397
   38RES   H23710671   4.687   1.362   4.743  0.1110  0.7802  0.1373
   38RES   H23810672   4.631   1.530   4.727 -2.6616 -0.2231 -1.0074
   38RES   H23910673   4.540   1.409   4.825 -0.5785  1.1772 -0.6827
   38RES   O24010674   4.856   1.588   5.137 -0.0306  0.0756 -0.2967
   38RES   C24110675   4.928   1.696   5.084  0.4766 -0.3958  0.7484
   38RES   C24210676   5.063   1.697   5.161  0.8428 -0.6796 -0.9139
   38RES   C24310677   5.143   1.832   5.134  0.8289  0.3829 -1.0321
   38RES   O24410678   5.276   1.798   5.121 -0.1910 -0.8766  1.1879
   38RES   C24510679   5.357   1.915   5.100 -0.4751  0.2101  0.0893
   38RES   H24610680   4.876   1.791   5.097 -0.7322 -0.4546 -3.0886
   38RES   H24710681   4.953   1.682   4.979 -0.0241  2.1204  0.2621
   38RES   H24810682   5.123   1.610   5.132  1.5765 -0.0649 -1.2544
   38RES   H24910683   5.107   1.878   5.041  0.2761 -2.1619 -2.1079
   38RES   H25010684   5.119   1.901   5.215 -1.7268 -0.9378 -0.6042
   38RES   H25110685   5.337   1.996   5.170 -1.1715 -0.6144  0.8518
   38RES   H25210686   5.340   1.954   5.000  1.2824 -0.2373 -0.3972
   38RES   H25310687   5.460   1.879   5.100 -0.2629  0.7447  2.0197
   38RES   O25410688   5.047   1.700   5.300 -0.0149  0.1849 -0.8088
   38RES   C25510689   5.142   1.617   5.371  0.2275 -0.6935  0.6200
   38RES   C25610690   5.096   1.595   5.523 -0.5655 -0.5499  0.1894
   38RES   C25710691   4.976   1.505   5.533  0.7402 -0.1121 -0.0691
   38RES   O25810692   4.899   1.527   5.657 -0.1268 -0.0237  0.4120
   38RES   C25910693   4.792   1.434   5.662  0.3030  0.5857  0.2435
   38RES   H26010694   5.169   1.525   5.319  0.2803 -0.0520 -0.4986
   38RES   H26110695   5.231   1.678   5.383 -0.8080  0.9069  0.3697
   38RES   H26210696   5.072   1.692   5.568 -0.2907 -0.7242  0.7132
   38RES   H26310697   4.900   1.540   5.462 -1.6456 -2.9246  0.9977
   38RES   H26410698   5.006   1.401   5.525  2.9775  0.5749 -1.0662
   38RES   H26510699   4.824   1.330   5.659 -0.7556  0.2711 -0.3633
   38RES   H26610700   4.724   1.447   5.578 -0.0280 -0.2594  0.3767
   38RES   H26710701   4.737   1.445   5.756  0.8733 -1.0770  0.7727
   38RES   O26810702   5.214   1.539   5.597 -0.3649  0.0777  0.1311
   38RES   C26910703   5.201   1.519   5.732  0.4107  0.1549  0.6936
   38RES   C27010704   5.337   1.470   5.798  0.5838 -0.2633 -0.3173
   38RES   C27110705   5.317   1.469   5.952  0.0785  0.0937 -0.3789
   38RES   O27210706   5.257   1.344   5.987  0.1487  0.3372  0.0215
   38RES   C27310707   5.281   1.318   6.117  0.1782 -0.0399 -0.0209
   38RES   H27410708   5.126   1.443   5.754  0.9161  0.1992  2.6708
   38RES   H27510709   5.166   1.615   5.769 -1.0983 -0.7327  1.6195
   38RES   H27610710   5.377   1.377   5.756  2.8156 -0.0546  1.2361
   38RES   H27710711   5.255   1.549   5.991 -0.3551  0.8222 -2.4782
   38RES   H27810712   5.414   1.482   6.000  1.0647  2.7707 -2.8905
   38RES   H27910713   5.257   1.215   6.141  0.0788  0.1238  0.5996
   38RES   H28010714   5.220   1.372   6.189  1.9625  0.1868  1.3783
   38RES   H28110715   5.386   1.333   6.143 -0.2305  1.1179  1.0167
   38RES   H28210716   5.426   1.530   5.777 -0.1354  1.4187  1.3287
   39RES     O110717   1.865   6.005   3.690 -0.0101 -0.8025  0.8036
   39RES     C210718   1.930   5.971   3.818  0.4118  0.2537 -0.4545
   39RES     C310719   1.851   6.038   3.924 -0.4930  0.3325  0.2646
   39RES     C410720   1.902   5.997   4.072 -0.1306 -0.2024 -0.2457
   39RES     O510721   1.798   6.025   4.168 -0.1995 -0.2553  0.4574
   39RES     C610722   1.823   5.957   4.290 -0.6683 -0.1091  0.5703
   39RES     H710723   1.931   5.865   3.843  1.0755  0.7000  1.5155
   39RES     H810724   2.034   6.005   3.815  0.3154  0.5111 -1.1159
   39RES     H910725   1.749   6.000   3.912 -0.1040 -1.0973  1.2627
   39RES    H1010726   1.994   6.051   4.094  0.3385 -0.5416 -1.3385
   39RES    H1110727   1.930   5.892   4.078  2.0008  0.3106 -0.6148
   39RES    H1210728   1.837   5.849   4.291  0.4100  0.0138 -0.3673
   39RES    H1310729   1.912   5.999   4.339  0.9143 -2.8356  0.1305
   39RES    H1410730   1.730   5.979   4.342 -2.0415 -0.2416 -1.7869
   39RES    H1510731   1.808   6.079   3.703  1.3729  0.8551 -2.0116
   39RES    O1610732   1.874   6.170   3.919 -0.0082  0.4555 -0.2858
   39RES    C1710733   1.754   6.241   3.939 -0.1474 -0.6651 -0.0481
   39RES    C1810734   1.713   6.328   3.813  0.6988  0.1485  0.1454
   39RES    C1910735   1.822   6.434   3.778 -0.0460  0.7391 -0.0468
   39RES    O2010736   1.763   6.532   3.689 -0.7542  0.3679 -0.0288
   39RES    C2110737   1.863   6.614   3.629 -0.2002 -0.7909  0.4406
   39RES    H2210738   1.757   6.318   4.016  0.2139 -0.9647  0.2393
   39RES    H2310739   1.671   6.177   3.971 -1.1809  0.1532 -1.0606
   39RES    H2410740   1.630   6.381   3.858 -0.9901 -1.3023 -1.1495
   39RES    H2510741   1.869   6.479   3.865  3.6729 -1.9357 -0.5390
   39RES    H2610742   1.904   6.378   3.733 -0.2399 -0.7714  1.4128
   39RES    H2710743   1.889   6.691   3.702  0.4432 -0.0638 -0.5538
   39RES    H2810744   1.815   6.669   3.548  1.4517  1.1780  0.7549
   39RES    H2910745   1.958   6.575   3.593 -0.3013 -2.0917  1.5414
   39RES    O3010746   1.683   6.238   3.702  0.1862 -0.0918  0.2076
   39RES    C3110747   1.611   6.296   3.594 -0.2939  0.0324 -0.4197
   39RES    C3210748   1.562   6.187   3.497  0.5586  0.2357  0.2770
   39RES    C3310749   1.498   6.251   3.381  0.4998  0.3316  0.7214
   39RES    O3410750   1.495   6.158   3.278  0.6124  0.4464 -0.1344
   39RES    C3510751   1.438   6.207   3.156 -0.3770  0.2585  0.3275
   39RES    H3610752   1.530   6.364   3.624  0.6490  1.0845 -0.2274
   39RES    H3710753   1.674   6.360   3.533  1.5600  1.1936  2.5761
   39RES    H3810754   1.646   6.128   3.460  1.4343  1.5103  0.1829
   39RES    H3910755   1.550   6.339   3.342 -1.5041  2.3994  2.5685
   39RES    H4010756   1.394   6.271   3.408  0.0114 -1.4450  0.2281
   39RES    H4110757   1.341   6.252   3.179  0.3401  0.7189  2.6851
   39RES    H4210758   1.428   6.129   3.082 -1.0446  0.5487  0.1079
   39RES    H4310759   1.499   6.287   3.114  0.9446 -1.1653 -0.5048
   39RES    O4410760   1.469   6.109   3.572 -0.1830  0.4476  0.4056
   39RES    C4510761   1.456   5.975   3.525  0.2526  0.6495  0.0871
   39RES    C4610762   1.360   5.897   3.617 -0.1150  0.8228 -0.2761
   39RES    C4710763   1.319   5.757   3.555  0.3198 -0.5641 -0.0566
   39RES    O4810764   1.189   5.713   3.591  0.0887  0.9626 -0.9193
   39RES    C4910765   1.176   5.667   3.728 -0.0432 -0.4661 -0.2777
   39RES    H5010766   1.553   5.924   3.520  0.7266  1.7075 -2.9839
   39RES    H5110767   1.415   5.967   3.424 -0.6186 -1.0524  0.5455
   39RES    H5210768   1.266   5.950   3.633 -0.7559 -0.3789 -0.0104
   39RES    H5310769   1.311   5.766   3.446 -1.4705  0.9757  0.1786
   39RES    H5410770   1.395   5.686   3.588  2.1909  2.6039  2.6746
   39RES    H5510771   1.068   5.668   3.743  0.0622  0.1667  0.4831
   39RES    H5610772   1.212   5.738   3.803  0.1641 -0.2814 -0.5503
   39RES    H5710773   1.225   5.571   3.741  1.8286  0.5538  0.4400
   39RES    O5810774   1.424   5.868   3.733 -0.0397 -0.2994 -0.0045
   39RES    C5910775   1.451   5.980   3.828 -0.6202 -0.0147  0.6649
   39RES    C6010776   1.464   5.914   3.977 -0.4377 -0.8291  0.1300
   39RES    C6110777   1.451   6.015   4.096 -0.0681  0.3380  0.0853
   39RES    O6210778   1.352   5.965   4.184 -0.1187 -0.3210 -0.6985
   39RES    C6310779   1.301   6.055   4.285 -0.2629  0.5312  0.2909
   39RES    H6410780   1.362   6.044   3.827 -1.3427 -1.0055  0.0203
   39RES    H6510781   1.550   6.022   3.810 -1.1955  1.0768  0.0051
   39RES    H6610782   1.378   5.847   3.982  0.7654 -2.3568  0.5519
   39RES    H6710783   1.529   6.038   4.168 -0.6835 -1.4500  1.3636
   39RES    H6810784   1.413   6.108   4.055 -1.3366  0.4670  1.5097
   39RES    H6910785   1.193   6.045   4.282 -0.3169  0.6357  1.4962
   39RES    H7010786   1.331   6.157   4.261 -1.8294  0.8387 -0.4006
   39RES    H7110787   1.318   6.016   4.385  1.4133  0.0580 -0.1607
   39RES    O7210788   1.584   5.838   3.995 -0.1550  0.1197 -0.0372
   39RES    C7310789   1.579   5.725   4.078  0.2047  0.9026 -0.2152
   39RES    C7410790   1.548   5.604   3.982 -0.1226  0.1430  0.3901
   39RES    C7510791   1.554   5.467   4.054  0.4196  0.1898 -0.5319
   39RES    O7610792   1.517   5.367   3.960  0.8046 -0.1828 -0.5899
   39RES    C7710793   1.523   5.238   4.020 -0.5979  0.0305 -0.0710
   39RES    H7810794   1.676   5.721   4.127 -0.6113 -0.1998  1.3629
   39RES    H7910795   1.501   5.731   4.154  1.2942 -2.4366  1.2454
   39RES    H8010796   1.454   5.622   3.931  1.0665  0.9644 -1.5308
   39RES    H8110797   1.475   5.462   4.129 -1.0467 -2.0821 -2.1405
   39RES    H8210798   1.650   5.450   4.103 -0.4995 -0.9490  0.9186
   39RES    H8310799   1.475   5.239   4.118 -0.3873  0.8334  0.0306
   39RES    H8410800   1.629   5.216   4.032  0.3348  3.0061 -2.3633
   39RES    H8510801   1.472   5.171   3.951  0.7171 -0.9011 -0.1545
   39RES    O8610802   1.667   5.594   3.910  0.4801 -0.2928 -0.1988
   39RES    C8710803   1.661   5.616   3.771  0.2766  0.5130  0.3320
   39RES    C8810804   1.798   5.573   3.701  0.8096  0.1310  0.2764
   39RES    C8910805   1.823   5.426   3.727  0.3571 -0.1882 -0.5413
   39RES    O9010806   1.963   5.403   3.742  0.2525 -0.6924  1.0604
   39RES    C9110807   1.984   5.262   3.757  0.4689 -0.0851 -0.2955
   39RES    H9210808   1.596   5.541   3.727 -2.3445  3.4502 -0.9252
   39RES    H9310809   1.621   5.713   3.743  1.3850  0.2598 -2.2528
   39RES    H9410810   1.878   5.632   3.746  1.4148 -0.3522 -0.1541
   39RES    H9510811   1.782   5.399   3.824  1.6788 -1.4099 -0.3047
   39RES    H9610812   1.786   5.371   3.641 -1.0112 -1.3917  0.8001
   39RES    H9710813   2.092   5.252   3.770  0.4283 -0.0944  0.0634
   39RES    H9810814   1.926   5.226   3.843 -2.2016  3.4642 -0.5002
   39RES    H9910815   1.959   5.212   3.664 -2.3093  1.4713 -0.4489
   39RES   O10010816   1.797   5.609   3.559 -0.2284  0.2431  0.2377
   39RES   C10110817   1.809   5.745   3.525 -0.6710  0.1365 -0.6573
   39RES   C10210818   1.808   5.751   3.368  0.5978 -0.5934 -0.2029
   39RES   C10310819   1.813   5.902   3.316  0.1106  0.1457  0.3010
   39RES   O10410820   1.866   5.911   3.190  0.2917  0.4116  0.2026
   39RES   C10510821   1.907   6.044   3.160  0.1444 -0.0711 -0.0222
   39RES   H10610822   1.907   5.778   3.558 -1.4134  0.3093  1.4264
   39RES   H10710823   1.734   5.808   3.572 -2.4094 -1.3160 -1.4317
   39RES   H10810824   1.887   5.686   3.329  1.3525 -0.4827  1.1267
   39RES   H10910825   1.884   5.952   3.382  0.2474 -0.1549  0.3800
   39RES   H11010826   1.720   5.959   3.322 -1.3561 -2.1595 -0.2579
   39RES   H11110827   1.816   6.105   3.157 -1.1451 -1.9277  0.4582
   39RES   H11210828   1.937   6.048   3.055 -1.2634  1.2452 -0.4078
   39RES   H11310829   1.977   6.087   3.232 -0.8074 -0.2447  1.0170
   39RES   O11410830   1.690   5.689   3.346 -0.1215 -0.4421  0.7703
   39RES   C11510831   1.668   5.629   3.224  0.7119  0.7265 -0.0393
   39RES   C11610832   1.520   5.580   3.227 -0.1806  0.0615  0.2924
   39RES   C11710833   1.456   5.599   3.084 -0.6343  0.6754 -0.6455
   39RES   O11810834   1.317   5.572   3.095  0.0919  0.1824  0.1097
   39RES   C11910835   1.284   5.432   3.097  0.6833 -0.0874 -0.5440
   39RES   H12010836   1.678   5.711   3.153 -1.0683 -0.1085 -1.2942
   39RES   H12110837   1.745   5.561   3.187  0.3491 -0.2315  0.9272
   39RES   H12210838   1.468   5.655   3.286  1.9508 -0.7656  3.3359
   39RES   H12310839   1.470   5.703   3.054 -0.8063  0.9621  0.2504
   39RES   H12410840   1.503   5.546   3.001 -0.7482 -0.1238 -0.2035
   39RES   H12510841   1.289   5.384   3.194  0.9077 -0.8100 -0.9054
   39RES   H12610842   1.343   5.375   3.025 -1.5991 -2.6308 -0.4617
   39RES   H12710843   1.182   5.434   3.058  0.3532  0.4344  0.3474
   39RES   O12810844   1.510   5.452   3.288 -0.1933 -0.9359 -0.2219
   39RES   C12910845   1.541   5.451   3.431  0.4374 -0.1257 -0.2840
   39RES   C13010846   1.476   5.326   3.487  0.7025 -0.6189 -0.0547
   39RES   C13110847   1.393   5.341   3.617  0.4463  0.6612 -0.2311
   39RES   O13210848   1.320   5.224   3.632  0.6295  0.2033  0.2022
   39RES   C13310849   1.247   5.230   3.750 -0.8967  0.4859  0.7480
   39RES   H13410850   1.649   5.450   3.446  0.2073  0.4106  1.5272
   39RES   H13510851   1.493   5.542   3.467  0.2576 -0.5586  0.5831
   39RES   H13610852   1.396   5.301   3.417 -1.1170  1.9613  1.0144
   39RES   H13710853   1.321   5.423   3.613  0.3661  0.6649  1.0384
   39RES   H13810854   1.463   5.365   3.697 -1.1070 -1.9219  1.9705
   39RES   H13910855   1.206   5.133   3.781  0.0770  0.5405  2.3029
   39RES   H14010856   1.330   5.233   3.821  0.7805 -2.5733 -0.9608
   39RES   H14110857   1.180   5.315   3.750 -0.0990  1.1198 -0.1492
   39RES   O14210858   1.567   5.219   3.496  0.5919 -0.1995  0.0688
   39RES   C14310859   1.638   5.172   3.381  0.0002 -0.1506 -0.3015
   39RES   C14410860   1.644   5.021   3.384 -0.3252  0.4492  0.6930
   39RES   C14510861   1.742   4.961   3.289 -0.1052 -0.4789 -0.2865
   39RES   O14610862   1.693   4.988   3.163  0.0913  0.0414 -0.3856
   39RES   C14710863   1.776   4.944   3.057  0.4872  0.9337  0.0489
   39RES   H14810864   1.592   5.215   3.292  0.6252 -1.2244 -1.1530
   39RES   H14910865   1.737   5.217   3.383  1.6217 -3.6458  0.4986
   39RES   H15010866   1.680   5.000   3.485  0.1317 -0.2676  0.3821
   39RES   H15110867   1.759   4.854   3.298  1.0711 -0.4585 -1.9579
   39RES   H15210868   1.841   5.005   3.301 -0.9314  0.9000  1.6805
   39RES   H15310869   1.859   5.011   3.040  0.7576  0.2167 -1.4926
   39RES   H15410870   1.722   4.931   2.964  0.3968 -2.5222  0.5096
   39RES   H15510871   1.821   4.845   3.070 -1.6542  0.0281  0.8587
   39RES   O15610872   1.515   4.962   3.367 -0.2697  0.4863 -0.1650
   39RES   C15710873   1.423   4.981   3.469  0.3907 -0.6287  0.0018
   39RES   C15810874   1.307   4.873   3.470 -0.0634 -1.0930 -0.2481
   39RES   C15910875   1.180   4.934   3.555 -0.1688  0.2441  0.1581
   39RES   O16010876   1.061   4.858   3.528 -0.2775  1.2033  0.1184
   39RES   C16110877   0.944   4.908   3.594 -0.0292  0.6001  0.3418
   39RES   H16210878   1.470   4.978   3.567 -0.2079  0.1953  0.3174
   39RES   H16310879   1.372   5.077   3.461  1.1793 -0.0831  1.3106
   39RES   H16410880   1.277   4.869   3.365  1.9024  0.9464 -0.9397
   39RES   H16510881   1.197   4.948   3.662 -1.0002 -1.5519  0.5506
   39RES   H16610882   1.163   5.030   3.507 -2.2576 -1.0596 -1.8056
   39RES   H16710883   0.953   4.895   3.702 -0.1216 -3.0626 -0.0408
   39RES   H16810884   0.850   4.855   3.573  0.6520 -0.0218 -1.2505
   39RES   H16910885   0.922   5.010   3.563  0.2439  0.4086 -0.5088
   39RES   O17010886   1.371   4.760   3.528 -0.5060  0.2627  0.0837
   39RES   C17110887   1.286   4.653   3.524  0.4426  0.0310 -0.3574
   39RES   C17210888   1.372   4.529   3.536 -0.1475  0.3650  0.5887
   39RES   C17310889   1.274   4.406   3.530  0.2436 -0.4054  0.9903
   39RES   O17410890   1.200   4.407   3.644  0.6677  0.1807 -0.3699
   39RES   C17510891   1.093   4.312   3.649 -1.1909 -0.4247 -0.3374
   39RES   H17610892   1.248   4.645   3.421 -0.6231  1.2642 -0.0678
   39RES   H17710893   1.194   4.656   3.582 -0.6477  1.7859 -2.0954
   39RES   H17810894   1.442   4.530   3.453 -2.0518  1.2957 -1.0353
   39RES   H17910895   1.209   4.431   3.446  0.6670 -1.2030  0.4127
   39RES   H18010896   1.339   4.318   3.522  1.5636  0.8004 -2.3083
   39RES   H18110897   1.120   4.207   3.639 -0.7662 -0.2884 -0.6150
   39RES   H18210898   1.013   4.336   3.580 -1.0085  3.0057  0.5887
   39RES   H18310899   1.057   4.320   3.752  0.9223 -1.7963  0.5500
   39RES   O18410900   1.458   4.546   3.651 -0.6720 -0.0265 -0.0299
   39RES   C18510901   1.568   4.452   3.666  1.2564 -0.1748  0.2743
   39RES   C18610902   1.631   4.478   3.802  0.1043  0.5111 -0.6662
   39RES   C18710903   1.784   4.469   3.794 -0.1580  0.0074 -0.0959
   39RES   O18810904   1.843   4.568   3.885  0.6744 -0.2095 -0.4351
   39RES   C18910905   1.825   4.513   4.016 -0.0763 -0.0396  0.3339
   39RES   H19010906   1.637   4.462   3.582 -1.2359 -0.3850 -1.8828
   39RES   H19110907   1.532   4.349   3.654  0.5069 -0.1881  2.4050
   39RES   H19210908   1.596   4.575   3.837 -2.5827 -1.2574  1.8505
   39RES   H19310909   1.813   4.521   3.702 -0.1258 -1.0921 -0.7151
   39RES   H19410910   1.832   4.373   3.772 -0.8534  0.0086 -1.7424
   39RES   H19510911   1.725   4.536   4.055 -0.4999 -2.6174  0.8225
   39RES   H19610912   1.845   4.406   4.023 -0.3961 -0.0173  1.6621
   39RES   H19710913   1.889   4.575   4.078  0.5924  1.0213 -1.3883
   39RES   O19810914   1.598   4.376   3.893  0.2674  0.1751 -0.4729
   39RES   C19910915   1.462   4.373   3.947  0.4007 -0.0926  0.2721
   39RES   C20010916   1.451   4.249   4.035  0.2883 -0.1971 -0.1784
   39RES   C20110917   1.578   4.227   4.128  0.1970  1.0283  0.1584
   39RES   O20210918   1.559   4.145   4.238  0.2889  0.0418 -0.4775
   39RES   C20310919   1.679   4.112   4.308 -0.2265 -0.4074  0.1238
   39RES   H20410920   1.395   4.360   3.862  0.7448  1.8791 -0.3139
   39RES   H20510921   1.450   4.468   4.000 -2.5375 -2.2050  3.7009
   39RES   H20610922   1.358   4.261   4.092 -0.2464 -1.0771 -0.8477
   39RES   H20710923   1.666   4.207   4.068  0.8142 -0.1020  1.4103
   39RES   H20810924   1.597   4.322   4.176 -2.0781 -0.0769  3.4299
   39RES   H20910925   1.735   4.055   4.234 -1.6744 -3.7160  1.4996
   39RES   H21010926   1.657   4.052   4.396 -0.7640 -0.3865  0.0101
   39RES   H21110927   1.725   4.207   4.334 -0.4142 -0.2543 -0.1017
   39RES   O21210928   1.431   4.134   3.959  0.0075  0.3964  0.6636
   39RES   C21310929   1.309   4.125   3.883  0.2502 -0.1629 -0.3304
   39RES   C21410930   1.231   3.991   3.903 -0.6697 -0.0575  0.6707
   39RES   C21510931   1.146   3.937   3.789  1.0071 -0.0047 -0.2011
   39RES   O21610932   1.152   3.802   3.780  0.3480 -0.3115  0.6767
   39RES   C21710933   1.069   3.728   3.871  0.1016 -0.8175 -0.3956
   39RES   H21810934   1.322   4.137   3.776 -0.8980  4.0489 -0.0928
   39RES   H21910935   1.241   4.207   3.905 -0.3805 -0.9519  0.7279
   39RES   H22010936   1.309   3.916   3.917  0.7752  1.4296  0.5902
   39RES   H22110937   1.043   3.973   3.787  0.5584 -1.3062 -0.9079
   39RES   H22210938   1.184   3.985   3.699 -1.3838  1.7780 -0.3141
   39RES   H22310939   1.080   3.625   3.835  0.7153 -2.2217  3.5408
   39RES   H22410940   0.964   3.755   3.866  0.2933  0.3166  1.2847
   39RES   H22510941   1.112   3.724   3.971  0.5184 -0.3746 -0.5527
   39RES   O22610942   1.152   3.992   4.022 -0.1723 -0.4156 -0.1057
   39RES   C22710943   1.219   3.956   4.138 -0.1340  0.3197  0.1677
   39RES   C22810944   1.166   4.016   4.266  0.3118 -0.1364 -0.4879
   39RES   C22910945   1.231   3.951   4.390  0.3330 -0.0336 -0.3263
   39RES   O23010946   1.171   3.996   4.505 -0.8141 -0.2577 -0.4455
   39RES   C23110947   1.258   3.953   4.611 -0.5407  0.7047  0.0477
   39RES   H23210948   1.327   3.976   4.136 -0.5213  2.5591  0.7138
   39RES   H23310949   1.208   3.849   4.154  1.0574  0.2277  0.4375
   39RES   H23410950   1.060   3.993   4.263 -0.1983  1.4313  2.9805
   39RES   H23510951   1.340   3.959   4.388  0.4759 -1.7051  0.3308
   39RES   H23610952   1.211   3.845   4.385  2.0293 -0.4625  1.1377
   39RES   H23710953   1.290   3.850   4.602 -1.5420  0.3926 -0.0075
   39RES   H23810954   1.211   3.958   4.709  0.1137 -1.5482  0.4844
   39RES   H23910955   1.341   4.023   4.620 -1.1499  1.6201 -1.1758
   39RES   O24010956   1.202   4.157   4.248 -0.3311 -0.5242  0.1378
   39RES   C24110957   1.116   4.245   4.317 -0.1619  0.3408 -0.2313
   39RES   C24210958   1.173   4.388   4.306  0.0684 -0.1144 -0.2476
   39RES   C24310959   1.313   4.393   4.370 -0.4025 -0.1324  0.1193
   39RES   O24410960   1.346   4.529   4.395  0.1841 -0.6833 -0.8559
   39RES   C24510961   1.378   4.626   4.296 -0.4272  0.1577 -0.4586
   39RES   H24610962   1.112   4.218   4.422  0.2438 -0.8184 -0.5088
   39RES   H24710963   1.017   4.232   4.272 -1.2299 -0.3219  2.2243
   39RES   H24810964   1.117   4.457   4.369  0.9885  1.2138 -0.8469
   39RES   H24910965   1.315   4.344   4.467  0.9888  0.4338  0.4039
   39RES   H25010966   1.393   4.347   4.311 -1.6838  0.5692 -2.2380
   39RES   H25110967   1.411   4.712   4.353 -0.3879 -1.4882  2.0863
   39RES   H25210968   1.287   4.660   4.246 -2.2989 -2.2260  1.1404
   39RES   H25310969   1.449   4.602   4.217 -0.9242  0.6074 -1.0437
   39RES   O25410970   1.206   4.438   4.178  0.1669 -0.5730 -0.2348
   39RES   C25510971   1.092   4.484   4.100  1.1068 -0.3219 -0.1747
   39RES   C25610972   1.135   4.547   3.972 -0.5479  0.1589  0.2846
   39RES   C25710973   1.024   4.618   3.897 -0.6273  0.6942 -0.0589
   39RES   O25810974   0.916   4.523   3.874  0.1368  0.4608  0.2509
   39RES   C25910975   0.798   4.576   3.809 -0.8363  0.0574  0.1337
   39RES   H26010976   1.028   4.398   4.076  0.9550 -0.8303  1.9168
   39RES   H26110977   1.040   4.549   4.170 -0.7067 -0.7338 -1.0944
   39RES   H26210978   1.185   4.475   3.907 -5.3043 -1.9976 -1.2362
   39RES   H26310979   0.989   4.706   3.950  1.8763  0.9657  1.2282
   39RES   H26410980   1.056   4.667   3.805  1.3489 -1.9975 -0.8746
   39RES   H26510981   0.709   4.521   3.840  0.1081 -1.1319  0.7678
   39RES   H26610982   0.797   4.574   3.700 -0.7470  0.3505  0.1277
   39RES   H26710983   0.775   4.675   3.847  0.2729  0.4812 -0.2969
   39RES   O26810984   1.227   4.648   4.015 -0.1919 -0.4223 -0.5136
   39RES   C26910985   1.309   4.696   3.912 -0.5944 -0.1978  0.1542
   39RES   C27010986   1.423   4.780   3.961  0.4194  0.0511  0.7966
   39RES   C27110987   1.494   4.857   3.844  0.3770  0.0873  0.0019
   39RES   O27210988   1.596   4.930   3.905 -0.3505  0.3610  0.0796
   39RES   C27310989   1.652   5.012   3.808  0.5266 -0.9035 -0.1892
   39RES   H27410990   1.250   4.757   3.843 -0.8123 -0.2439  0.2986
   39RES   H27510991   1.346   4.619   3.845 -0.8264 -1.1868  1.1551
   39RES   H27610992   1.385   4.852   4.034  2.1022  1.5379  0.2460
   39RES   H27710993   1.423   4.921   3.792  0.9748 -0.5306 -1.5957
   39RES   H27810994   1.527   4.789   3.765  1.7296 -0.4720  1.0158
   39RES   H27910995   1.685   4.967   3.715 -0.5967  0.8847 -1.4792
   39RES   H28010996   1.743   5.066   3.833 -0.2725  0.9888 -1.2647
   39RES   H28110997   1.577   5.085   3.777 -0.9560 -2.8312 -1.2630
   39RES   H28210998   1.496   4.718   4.012  1.1860  1.2518  1.1879
   40RES     O110999   3.657   0.034   3.956  0.9188  0.2149  0.8646
   40RES     C211000   3.754   0.134   3.947  0.2809 -0.3350 -0.5485
   40RES     C311001   3.867   0.084   3.852  0.0235 -0.1291 -0.3975
   40RES     C411002   3.974   0.202   3.823  0.9058 -0.2555 -0.3332
   40RES     O511003   3.925   0.322   3.744 -0.7279 -0.0303 -0.2308
   40RES     C611004   3.870   0.289   3.619 -0.3302  0.1945  0.1442
   40RES     H711005   3.709   0.220   3.897  0.2943 -0.3519 -0.5899
   40RES     H811006   3.798   0.152   4.045  2.2772 -2.2002 -1.0593
   40RES     H911007   3.834   0.040   3.758 -1.9783 -1.0455  0.6953
   40RES    H1011008   4.059   0.155   3.773  0.2876  1.0483 -2.6829
   40RES    H1111009   4.011   0.230   3.922 -0.7424 -2.9678  1.1000
   40RES    H1211010   3.934   0.216   3.570 -0.6623 -1.3247  1.8905
   40RES    H1311011   3.777   0.239   3.648 -0.5030  0.8700  0.7714
   40RES    H1411012   3.851   0.379   3.562 -0.6020 -0.8101 -1.3852
   40RES    H1511013   3.707   7.771   3.957  0.5208 -0.0560 -0.4924
   40RES    O1611014   3.935   7.800   3.937 -0.4009  0.1731 -0.2520
   40RES    C1711015   4.023   7.709   3.872 -0.1646 -0.4136  0.0790
   40RES    C1811016   3.942   7.597   3.802 -0.0612  0.5531 -0.4237
   40RES    C1911017   3.839   7.519   3.888 -0.1832 -0.6409  0.6518
   40RES    O2011018   3.724   7.600   3.928  0.0743 -0.0044 -0.1269
   40RES    C2111019   3.642   7.506   4.004  0.0871 -0.2526  0.2131
   40RES    H2211020   4.081   7.662   3.952  2.6213  0.8983 -1.1008
   40RES    H2311021   4.102   7.756   3.812  0.0889 -1.2059 -0.2143
   40RES    H2411022   4.019   7.520   3.796 -1.9050 -1.5948  2.4116
   40RES    H2511023   3.813   7.427   3.836  2.8904  0.2904 -2.7001
   40RES    H2611024   3.887   7.477   3.977 -0.0983 -0.5677  0.6410
   40RES    H2711025   3.543   7.546   4.027 -0.4286 -2.0223  1.0831
   40RES    H2811026   3.691   7.478   4.097  2.0947  0.1305 -0.6839
   40RES    H2911027   3.625   7.416   3.945 -1.0219 -0.7308  1.2547
   40RES    O3011028   3.912   7.622   3.664  0.0543 -0.4662  0.5209
   40RES    C3111029   4.014   7.688   3.591 -0.2269 -0.0768  0.0801
   40RES    C3211030   3.986   7.693   3.439 -0.2415  0.2069 -0.0492
   40RES    C3311031   4.109   7.736   3.363  0.3675  0.2452  0.2230
   40RES    O3411032   4.172   0.034   3.420  0.7082  0.0659 -0.6312
   40RES    C3511033   4.285   0.074   3.345  0.9539  0.5388 -0.2148
   40RES    H3611034   4.028   7.794   3.613 -1.7313  0.9290 -3.4087
   40RES    H3711035   4.113   7.645   3.599 -0.2504 -0.1420  0.0131
   40RES    H3811036   3.949   7.596   3.405  0.4768 -0.1743  0.2435
   40RES    H3911037   4.080   7.751   3.259 -0.3501  1.1348  0.5337
   40RES    H4011038   4.186   7.661   3.351  0.5033  0.5917 -1.2399
   40RES    H4111039   4.236   0.102   3.252 -0.6619 -0.3790  0.3354
   40RES    H4211040   4.354   7.815   3.309 -1.2965 -2.2824  1.2464
   40RES    H4311041   4.334   0.154   3.400 -0.1177  0.5536  0.7459
   40RES    O4411042   3.886   7.798   3.426 -0.3090  0.4614 -0.4258
   40RES    C4511043   3.807   7.787   3.308 -0.7357 -0.0096  0.3621
   40RES    C4611044   3.686   0.063   3.325  0.1784  0.0819  0.3118
   40RES    C4711045   3.615   0.039   3.466  0.0686 -0.3921 -0.0263
   40RES    O4811046   3.497   0.104   3.488 -0.1215  0.2339 -0.7020
   40RES    C4911047   3.454   0.090   3.623 -0.3097 -0.8477  0.7169
   40RES    H5011048   3.772   7.687   3.282 -1.8501  0.4224  0.1717
   40RES    H5111049   3.868   0.005   3.224  0.0087  1.4943  1.5206
   40RES    H5211050   3.621   0.044   3.240 -1.6773  0.3441  1.6308
   40RES    H5311051   3.590   7.752   3.489 -1.2801  0.6180  3.3750
   40RES    H5411052   3.691   0.061   3.541 -1.1484 -0.3972  1.2111
   40RES    H5511053   3.530   0.114   3.698 -1.0914  1.8739  0.7068
   40RES    H5611054   3.412   7.807   3.625 -1.0283 -0.6340 -2.0194
   40RES    H5711055   3.367   0.154   3.637 -1.0408 -1.3508 -1.3513
   40RES    O5811056   3.738   0.187   3.321 -0.6858  0.1672 -0.3193
   40RES    C5911057   3.663   0.291   3.271 -0.4696  0.2929 -0.5166
   40RES    C6011058   3.743   0.422   3.264  0.0976 -0.2719 -0.2096
   40RES    C6111059   3.645   0.529   3.214 -0.7008  0.2208 -0.6021
   40RES    O6211060   3.705   0.655   3.236  0.0596 -0.1323 -0.5012
   40RES    C6311061   3.624   0.771   3.211  0.2439 -0.3662 -0.2220
   40RES    H6411062   3.588   0.310   3.348  1.1676 -1.7341  1.6739
   40RES    H6511063   3.614   0.259   3.180  1.5936 -1.2591 -1.1265
   40RES    H6611064   3.788   0.449   3.360 -0.0306  1.5761 -0.6346
   40RES    H6711065   3.608   0.497   3.117  2.0885 -2.6229 -0.8197
   40RES    H6811066   3.552   0.527   3.270 -1.4369 -1.0919 -1.8460
   40RES    H6911067   3.576   0.762   3.114  0.2737 -1.3259 -0.1461
   40RES    H7011068   3.687   0.860   3.201  0.5645 -0.5805 -0.1015
   40RES    H7111069   3.556   0.785   3.296  2.7093 -1.5315  2.0315
   40RES    O7211070   3.838   0.392   3.166 -0.7263  0.2954  0.3828
   40RES    C7311071   3.925   0.503   3.132  0.3331 -0.0172 -0.6333
   40RES    C7411072   4.057   0.453   3.072 -0.7501 -0.0577  0.0530
   40RES    C7511073   4.155   0.375   3.158 -0.7686 -0.0779 -0.0823
   40RES    O7611074   4.241   0.294   3.073 -0.4000  0.1328 -0.3610
   40RES    C7711075   4.379   0.339   3.083  0.2146 -0.0981 -0.0317
   40RES    H7811076   3.877   0.577   3.067  0.7086  1.0973  0.3486
   40RES    H7911077   3.944   0.570   3.215 -1.2939  1.8371 -1.7122
   40RES    H8011078   4.032   0.386   2.990 -0.3543 -0.7952  0.5348
   40RES    H8111079   4.104   0.307   3.227 -1.3080 -1.2217 -1.5532
   40RES    H8211080   4.212   0.440   3.224 -0.3642 -1.6427  1.1474
   40RES    H8311081   4.437   0.263   3.029  0.8688  1.1412 -1.0966
   40RES    H8411082   4.425   0.358   3.180  1.8313 -1.7082 -0.4451
   40RES    H8511083   4.377   0.434   3.030 -0.4843 -0.5640 -0.8716
   40RES    O8611084   4.128   0.562   3.026  0.1925 -0.3320 -0.1444
   40RES    C8711085   4.143   0.571   2.887  0.2293 -0.3391  0.6896
   40RES    C8811086   4.214   0.701   2.846 -0.4639 -0.5930  0.4442
   40RES    C8911087   4.296   0.684   2.709 -0.3904  1.0977  0.7766
   40RES    O9011088   4.206   0.641   2.608 -0.2756 -0.2590  0.4419
   40RES    C9111089   4.276   0.593   2.493 -0.8581 -0.4431  0.2739
   40RES    H9211090   4.205   0.485   2.862  0.3115 -0.1527  0.2416
   40RES    H9311091   4.054   0.550   2.828  0.7699 -3.3012  0.8707
   40RES    H9411092   4.290   0.737   2.916  0.5582 -1.9861  0.0700
   40RES    H9511093   4.339   0.779   2.675  1.6693  0.0603  0.3724
   40RES    H9611094   4.374   0.609   2.723 -1.5198 -0.3152 -0.3917
   40RES    H9711095   4.332   0.501   2.509  2.0594  1.4162  1.1791
   40RES    H9811096   4.203   0.581   2.412  0.5439  2.4925 -1.5156
   40RES    H9911097   4.352   0.668   2.469 -0.9116 -0.4361  0.1271
   40RES   O10011098   4.121   0.806   2.824 -0.4192 -0.0788 -0.6393
   40RES   C10111099   4.053   0.860   2.941  0.0063 -0.1241  0.5331
   40RES   C10211100   4.140   0.922   3.053  0.3555  0.0306 -0.0016
   40RES   C10311101   4.056   0.996   3.160 -0.0783  0.0280 -0.3933
   40RES   O10411102   4.126   0.999   3.284  0.7803 -0.0440 -0.1896
   40RES   C10511103   4.049   1.026   3.402  0.1642 -0.1707 -0.3465
   40RES   H10611104   3.995   0.780   2.986  0.1985 -0.7200 -0.2762
   40RES   H10711105   3.973   0.929   2.916  0.3123  0.2226  0.5014
   40RES   H10811106   4.184   0.835   3.103  0.9990 -1.0490 -2.3969
   40RES   H10911107   3.965   0.939   3.177 -0.1338 -0.8081 -3.3310
   40RES   H11011108   4.041   1.097   3.124  0.9474  0.5007  0.4670
   40RES   H11111109   4.113   1.045   3.488  1.4060 -1.8470 -0.8756
   40RES   H11211110   3.968   0.956   3.423  0.2726 -0.4370 -0.8096
   40RES   H11311111   3.993   1.119   3.386 -1.7499 -1.2789 -0.2258
   40RES   O11411112   4.228   1.014   2.993 -0.2087 -0.0413 -0.1737
   40RES   C11511113   4.359   1.028   3.062 -0.0758 -0.9343  0.9157
   40RES   C11611114   4.449   1.144   3.002  0.4367 -0.0622 -0.1259
   40RES   C11711115   4.374   1.290   3.019 -0.2796  0.1741 -0.1065
   40RES   O11811116   4.473   1.367   2.963 -0.0844 -0.3553 -0.1106
   40RES   C11911117   4.459   1.509   2.986  0.1123 -0.4214 -0.2234
   40RES   H12011118   4.358   1.025   3.171  1.4374 -0.8570  0.9439
   40RES   H12111119   4.407   0.932   3.041  1.9782  0.6727 -2.0903
   40RES   H12211120   4.456   1.143   2.893 -0.9730 -0.0260 -0.2270
   40RES   H12311121   4.288   1.303   2.954 -0.2668  1.4022  0.1186
   40RES   H12411122   4.352   1.316   3.123  1.4785 -1.5572  0.7349
   40RES   H12511123   4.396   1.538   3.070 -1.6983 -1.7466 -1.0991
   40RES   H12611124   4.414   1.558   2.900  2.5284  1.2138 -0.6309
   40RES   H12711125   4.560   1.548   2.999 -0.2891  0.2873  0.8803
   40RES   O12811126   4.565   1.156   3.079 -0.0743  0.1544  0.1644
   40RES   C12911127   4.677   1.094   3.022 -0.3723  0.0698  0.2734
   40RES   C13011128   4.795   1.082   3.125  0.6001  0.5783 -0.6700
   40RES   C13111129   4.929   1.063   3.042 -0.3386  0.2495  0.9399
   40RES   O13211130   5.050   1.122   3.095 -0.4165  0.5512  0.4483
   40RES   C13311131   5.172   1.074   3.043  0.2516 -0.1212 -0.3625
   40RES   H13411132   4.639   0.994   3.001  0.7510 -0.6324  1.5243
   40RES   H13511133   4.692   1.141   2.925 -1.8145  1.5349  0.7291
   40RES   H13611134   4.795   1.169   3.190 -0.0389 -1.1885  1.7786
   40RES   H13711135   4.912   1.113   2.946  1.2768 -0.3916  0.3024
   40RES   H13811136   4.943   0.959   3.011  0.7145  0.1779  1.6503
   40RES   H13911137   5.183   1.095   2.936 -0.3395  1.0870 -0.1950
   40RES   H14011138   5.261   1.132   3.071  0.8661 -0.7362 -1.0021
   40RES   H14111139   5.180   0.970   3.073 -1.4949 -0.2920 -0.4640
   40RES   O14211140   4.781   0.964   3.203  0.5722  0.3642  0.7457
   40RES   C14311141   4.823   0.965   3.340  0.3373  0.3844 -0.2792
   40RES   C14411142   4.746   1.053   3.437  0.0493 -0.6952 -0.2957
   40RES   C14511143   4.597   1.027   3.420 -0.1021  0.2075 -0.1399
   40RES   O14611144   4.524   1.085   3.528  0.7721  0.3863 -0.2342
   40RES   C14711145   4.391   1.084   3.493  0.4474  0.0832 -0.2223
   40RES   H14811146   4.830   0.862   3.377 -1.6173 -0.3981 -1.9991
   40RES   H14911147   4.928   0.993   3.338  0.9791 -1.8019  0.6283
   40RES   H15011148   4.788   1.030   3.535  0.2682  2.2049  0.3329
   40RES   H15111149   4.576   0.921   3.409  0.3495  0.0288  0.6842
   40RES   H15211150   4.569   1.072   3.325 -0.1994 -0.1078 -0.2601
   40RES   H15311151   4.332   1.107   3.582 -1.3078 -1.8363 -0.8458
   40RES   H15411152   4.359   0.982   3.467 -0.8179 -0.5108  3.3968
   40RES   H15511153   4.378   1.161   3.416  1.2306 -0.6077 -1.0622
   40RES   O15611154   4.781   1.187   3.404 -0.4380  0.9137 -0.6622
   40RES   C15711155   4.738   1.289   3.488 -0.9242  0.1882  0.2497
   40RES   C15811156   4.793   1.434   3.457  0.5341  0.7852  1.0298
   40RES   C15911157   4.770   1.534   3.575 -0.8334 -0.7287 -0.0613
   40RES   O16011158   4.850   1.649   3.544  0.1586  0.0738 -0.2583
   40RES   C16111159   4.848   1.743   3.647 -0.4325 -0.3024  0.8888
   40RES   H16211160   4.631   1.309   3.500 -0.7843  0.8770  0.3619
   40RES   H16311161   4.767   1.251   3.586  0.1468 -2.9922 -1.2550
   40RES   H16411162   4.900   1.424   3.444  0.4800  1.1269  0.3103
   40RES   H16511163   4.663   1.550   3.588 -0.5438 -1.3774  3.9039
   40RES   H16611164   4.802   1.494   3.671 -0.0346  2.0908  0.8906
   40RES   H16711165   4.760   1.742   3.712 -0.5543 -2.2932  0.7109
   40RES   H16811166   4.866   1.844   3.608 -0.3242  0.3742  2.6351
   40RES   H16911167   4.932   1.727   3.715  0.7913  0.3748 -0.4464
   40RES   O17011168   4.734   1.500   3.337  0.3970  0.0169  0.2584
   40RES   C17111169   4.786   1.451   3.218  0.3358 -0.1473 -1.0887
   40RES   C17211170   4.806   1.551   3.107  0.0516 -0.1423 -0.4253
   40RES   C17311171   4.800   1.491   2.971 -0.1277  0.1100  0.5234
   40RES   O17411172   4.742   1.587   2.883  0.5473  0.1348  0.5566
   40RES   C17511173   4.707   1.548   2.748 -0.4002 -0.3115 -0.1104
   40RES   H17611174   4.707   1.382   3.189 -1.4874  1.4720 -0.1583
   40RES   H17711175   4.882   1.402   3.236 -0.1755 -1.3060 -1.5188
   40RES   H17811176   4.733   1.632   3.117  0.9363  0.3119  2.9929
   40RES   H17911177   4.892   1.453   2.925 -0.9780 -0.1623 -0.9851
   40RES   H18011178   4.741   1.400   2.965 -1.6779  1.2126 -1.2252
   40RES   H18111179   4.796   1.513   2.695 -0.6502 -1.6945  0.3564
   40RES   H18211180   4.673   1.625   2.679 -0.6234 -0.4491 -0.1576
   40RES   H18311181   4.641   1.460   2.743  0.3643 -0.9498  0.7653
   40RES   O18411182   4.928   1.626   3.105 -0.1104  0.4084  0.1198
   40RES   C18511183   4.956   1.694   3.230  0.3990  0.4422  0.7834
   40RES   C18611184   5.053   1.803   3.194  0.4393 -0.3887 -0.1220
   40RES   C18711185   5.141   1.842   3.313 -1.1292  0.2303 -0.3541
   40RES   O18811186   5.258   1.907   3.264 -0.0022 -0.2525 -0.4070
   40RES   C18911187   5.343   1.954   3.367  0.3149  0.5327 -0.0587
   40RES   H19011188   4.994   1.626   3.305  2.1898  1.6201  0.9747
   40RES   H19111189   4.870   1.743   3.274 -0.6444  1.4293 -2.2020
   40RES   H19211190   5.117   1.755   3.120  3.1575  0.2387  1.7449
   40RES   H19311191   5.171   1.750   3.362  0.4480  0.7992 -0.1936
   40RES   H19411192   5.079   1.903   3.379  0.2260  1.6834 -0.3763
   40RES   H19511193   5.291   2.027   3.430  0.4143  2.0374 -1.6992
   40RES   H19611194   5.353   1.864   3.428 -3.6457 -0.5665 -0.8705
   40RES   H19711195   5.437   1.995   3.333  1.3794  0.3048  2.4601
   40RES   O19811196   4.981   1.914   3.142  0.6421 -0.0942  0.1697
   40RES   C19911197   4.917   1.895   3.016  0.1335  0.2200  0.0949
   40RES   C20011198   4.858   2.025   2.971 -0.2532  0.0675 -0.1516
   40RES   C20111199   4.763   2.009   2.851 -0.3497 -0.8027  0.8599
   40RES   O20211200   4.720   2.139   2.818 -0.0668 -0.4435  0.1179
   40RES   C20311201   4.618   2.150   2.717 -0.2269 -1.1142  0.4995
   40RES   H20411202   4.838   1.820   3.017 -0.2107  0.5848  0.4667
   40RES   H20511203   4.990   1.868   2.940 -1.2810  2.2752 -2.0570
   40RES   H20611204   4.807   2.077   3.052 -1.2514 -2.2421  0.7561
   40RES   H20711205   4.815   1.961   2.768  0.2198 -0.7783  1.2028
   40RES   H20811206   4.679   1.947   2.884 -1.0705 -0.6997 -0.7098
   40RES   H20911207   4.642   2.089   2.630 -2.0028 -4.2738  2.1145
   40RES   H21011208   4.594   2.254   2.695 -0.4023 -1.2103  0.2368
   40RES   H21111209   4.528   2.104   2.757 -1.2017  0.1219 -0.2430
   40RES   O21211210   4.975   2.097   2.924  0.2557  0.2388  0.1860
   40RES   C21311211   5.011   2.201   3.009 -0.2307 -0.0572  0.0942
   40RES   C21411212   5.119   2.281   2.941  0.3779  0.0412 -0.2468
   40RES   C21511213   5.070   2.347   2.808  0.1820 -0.3003  0.1913
   40RES   O21611214   5.157   2.452   2.782 -0.3755  0.3727  0.0906
   40RES   C21711215   5.123   2.527   2.666  0.1864  0.1610 -0.2602
   40RES   H21811216   5.033   2.154   3.105  1.4008  0.3050 -0.0728
   40RES   H21911217   4.925   2.266   3.022  0.1031  0.7685 -1.6393
   40RES   H22011218   5.155   2.353   3.015 -1.3755  2.2007 -1.4596
   40RES   H22111219   5.052   2.274   2.730 -2.4353  0.8803 -0.3878
   40RES   H22211220   4.969   2.384   2.824 -0.2032  0.0955 -2.8173
   40RES   H22311221   5.195   2.608   2.653 -2.3309  2.6609  0.9387
   40RES   H22411222   5.023   2.566   2.681  0.2733  0.5068 -0.5726
   40RES   H22511223   5.138   2.465   2.577 -2.8868 -1.1025  0.0585
   40RES   O22611224   5.236   2.194   2.913 -0.0583  0.7462 -0.2162
   40RES   C22711225   5.367   2.240   2.949 -0.4648  0.3063  0.2966
   40RES   C22811226   5.385   2.240   3.103 -0.5248 -0.2993 -0.4430
   40RES   C22911227   5.534   2.214   3.134  0.8917  0.1107  0.3475
   40RES   O23011228   5.545   2.198   3.275 -0.0073  0.0729  0.0103
   40RES   C23111229   5.679   2.224   3.317 -0.4684  0.4291  0.0392
   40RES   H23211230   5.401   2.334   2.905  0.7744  1.3169  3.2828
   40RES   H23311231   5.436   2.167   2.908  1.3985  1.4418  1.3130
   40RES   H23411232   5.339   2.153   3.149  0.7634 -0.7846 -0.0524
   40RES   H23511233   5.593   2.295   3.091  0.7596  0.3135  0.5482
   40RES   H23611234   5.566   2.123   3.082  1.8658  1.0004 -0.6422
   40RES   H23711235   5.751   2.196   3.240 -1.2300 -0.5051 -0.3522
   40RES   H23811236   5.699   2.168   3.409  0.7955 -0.0792 -0.5316
   40RES   H23911237   5.703   2.328   3.339 -2.1698  0.6114  1.0956
   40RES   O24011238   5.359   2.366   3.160 -0.2098  0.1043  0.0077
   40RES   C24111239   5.265   2.366   3.262  0.1259  0.3758 -0.7528
   40RES   C24211240   5.222   2.506   3.282 -0.1480  0.0054  0.8255
   40RES   C24311241   5.142   2.512   3.411  0.5015  0.0224  0.8531
   40RES   O24411242   5.032   2.603   3.390  0.2887 -0.8184  0.2941
   40RES   C24511243   4.936   2.625   3.495 -0.2285  0.2573 -0.4861
   40RES   H24611244   5.310   2.322   3.351 -0.2286 -0.1454 -0.8333
   40RES   H24711245   5.178   2.304   3.242 -0.7927  1.7065 -0.9806
   40RES   H24811246   5.167   2.536   3.192  1.7724 -0.6750 -0.6031
   40RES   H24911247   5.093   2.417   3.430  0.7052 -0.6194 -1.6512
   40RES   H25011248   5.195   2.554   3.497  1.3506  1.2126 -0.2315
   40RES   H25111249   4.991   2.640   3.588 -1.2369 -0.9780  0.3362
   40RES   H25211250   4.855   2.552   3.501  2.4961 -2.7236  1.6538
   40RES   H25311251   4.889   2.720   3.470 -1.2460 -0.3750 -1.0000
   40RES   O25411252   5.342   2.579   3.302  0.0785 -0.4621 -0.0595
   40RES   C25511253   5.309   2.715   3.319  0.4782 -0.6873 -0.5593
   40RES   C25611254   5.436   2.797   3.300 -0.8228 -0.3777 -0.7520
   40RES   C25711255   5.415   2.939   3.247 -0.2290 -0.1934  0.0959
   40RES   O25811256   5.543   3.006   3.214  0.1086 -0.0594 -0.2335
   40RES   C25911257   5.528   3.136   3.163 -0.1063 -0.3682  0.5565
   40RES   H26011258   5.239   2.748   3.243  3.5063 -1.0424 -3.5962
   40RES   H26111259   5.269   2.741   3.417 -1.8000 -1.0089 -1.3821
   40RES   H26211260   5.501   2.745   3.230  1.2415  1.5703 -0.3637
   40RES   H26311261   5.347   2.935   3.162 -0.4762 -0.5905  0.3156
   40RES   H26411262   5.353   2.992   3.318 -0.6961  0.6390 -0.9170
   40RES   H26511263   5.489   3.197   3.245 -0.0834 -2.4099  2.1377
   40RES   H26611264   5.465   3.146   3.074  1.3285 -1.2782 -0.5736
   40RES   H26711265   5.626   3.166   3.125  0.3249 -0.2928  1.7119
   40RES   O26811266   5.509   2.806   3.425 -0.4967  0.3447  0.4426
   40RES   C26911267   5.553   2.680   3.482  0.1414 -0.1453 -0.0383
   40RES   C27011268   5.637   2.692   3.610 -1.0096  0.6487  0.7748
   40RES   C27111269   5.689   2.556   3.662  1.4819 -0.1864 -0.0288
   40RES   O27211270   5.817   2.530   3.613  0.0654 -0.2703  0.0141
   40RES   C27311271   5.862   2.394   3.639  0.7168  0.1274 -0.4642
   40RES   H27411272   5.615   2.623   3.413  2.1623  1.3722  0.4757
   40RES   H27511273   5.464   2.621   3.503 -0.6739  1.0902  0.0335
   40RES   H27611274   5.727   2.753   3.596  0.2117 -1.6522 -1.7406
   40RES   H27711275   5.620   2.473   3.642  2.1095 -0.4075 -1.3288
   40RES   H27811276   5.696   2.570   3.770 -1.5521  0.6793  0.1024
   40RES   H27911277   5.964   2.380   3.601  1.3236  0.9180  0.8067
   40RES   H28011278   5.799   2.319   3.593  1.7984 -0.6501 -0.6871
   40RES   H28111279   5.866   2.376   3.747  2.4108 -0.4337 -0.5998
   40RES   H28211280   5.581   2.736   3.693  1.6694  3.2463  1.3089
   41RES     O111281   3.766   5.645   0.688  0.7460  0.0741  0.0303
   41RES     C211282   3.816   5.701   0.802  0.2315 -0.2572  0.2641
   41RES     C311283   3.707   5.687   0.909 -0.3370  0.7454 -0.9394
   41RES     C411284   3.754   5.698   1.059 -0.0059 -0.0848 -0.0791
   41RES     O511285   3.646   5.653   1.135 -0.2526  0.2163 -0.4238
   41RES     C611286   3.686   5.638   1.273  0.6631 -0.1343 -0.2519
   41RES     H711287   3.905   5.645   0.832  1.4031 -0.1516 -2.8837
   41RES     H811288   3.828   5.807   0.779 -3.8539  0.1856 -0.1277
   41RES     H911289   3.651   5.595   0.892 -0.0661  0.2591  0.6851
   41RES    H1011290   3.783   5.800   1.085 -0.8638  0.3405 -0.7748
   41RES    H1111291   3.837   5.630   1.078  0.5072  1.2082  2.4726
   41RES    H1211292   3.765   5.568   1.300  1.5155  1.4695  1.5917
   41RES    H1311293   3.698   5.735   1.320 -0.6694  0.2925 -0.7709
   41RES    H1411294   3.601   5.604   1.332  1.2081  0.1476  0.7033
   41RES    H1511295   3.681   5.686   0.684  0.8177  0.0815 -2.0629
   41RES    O1611296   3.620   5.799   0.879 -0.4282  0.1591 -0.4799
   41RES    C1711297   3.486   5.789   0.913 -0.0665 -0.3076  0.3558
   41RES    C1811298   3.419   5.925   0.864 -0.1699  0.4739 -0.9981
   41RES    C1911299   3.271   5.908   0.811 -0.1757  0.1683 -0.3149
   41RES    O2011300   3.225   6.029   0.746 -0.1907  0.5515 -0.5322
   41RES    C2111301   3.121   5.987   0.661 -0.4283 -0.2581  0.4170
   41RES    H2211302   3.460   5.764   1.016 -0.0827 -1.2365  0.1279
   41RES    H2311303   3.445   5.713   0.847 -2.3387  0.1760  1.1551
   41RES    H2411304   3.489   5.960   0.788  2.0852 -0.5714  0.5112
   41RES    H2511305   3.285   5.821   0.747 -0.4782 -1.4198  1.7269
   41RES    H2611306   3.209   5.884   0.898  0.3760 -1.8533 -0.4605
   41RES    H2711307   3.168   5.927   0.583  0.7411 -0.4098  1.2277
   41RES    H2811308   3.084   6.077   0.611  1.6236  0.2969 -0.1651
   41RES    H2911309   3.039   5.946   0.719 -3.6679  3.6805 -1.0941
   41RES    O3011310   3.431   6.020   0.962  0.7341  1.0808 -0.2384
   41RES    C3111311   3.442   6.157   0.922 -0.5685 -0.6121 -0.0434
   41RES    C3211312   3.459   6.235   1.062  0.2830 -0.1669  0.1675
   41RES    C3311313   3.382   6.375   1.074 -0.2358 -0.4704  0.4848
   41RES    O3411314   3.339   6.402   1.209  0.6851 -0.0449  0.5368
   41RES    C3511315   3.442   6.391   1.304 -0.5911 -1.4687 -0.5087
   41RES    H3611316   3.528   6.177   0.857 -1.5488  3.8114 -0.1501
   41RES    H3711317   3.353   6.193   0.870  0.5448  0.3536 -1.3294
   41RES    H3811318   3.416   6.171   1.138 -0.1085 -0.9174 -0.6823
   41RES    H3911319   3.289   6.370   1.018 -0.4326 -0.1837  0.7830
   41RES    H4011320   3.443   6.453   1.028 -1.6829  0.1506 -0.4128
   41RES    H4111321   3.480   6.290   1.319  3.8446  0.0173 -0.9966
   41RES    H4211322   3.403   6.420   1.401 -0.1776 -0.8488 -0.5225
   41RES    H4311323   3.524   6.459   1.282 -1.3748 -0.8061 -1.4494
   41RES    O4411324   3.594   6.260   1.078 -0.1845 -0.1210 -0.3220
   41RES    C4511325   3.676   6.150   1.087 -0.4604  0.2003 -0.5900
   41RES    C4611326   3.807   6.198   1.161  0.3139  0.6856 -0.3272
   41RES    C4711327   3.907   6.079   1.172  0.9071 -0.1725 -0.2181
   41RES    O4811328   3.990   6.085   1.278 -0.5604  0.3497  0.1852
   41RES    C4911329   4.043   5.960   1.321 -0.0320  1.1014  0.5128
   41RES    H5011330   3.706   6.108   0.990 -0.2452  0.6975 -0.7405
   41RES    H5111331   3.616   6.075   1.138 -1.4696  1.5601  0.2539
   41RES    H5211332   3.779   6.230   1.261  0.0198 -2.0452  0.5126
   41RES    H5311333   3.854   5.984   1.167  0.7443 -0.0560 -0.8177
   41RES    H5411334   3.966   6.077   1.080  0.4163 -1.6174 -0.5114
   41RES    H5511335   4.099   5.908   1.243 -1.3558  1.3448 -0.6223
   41RES    H5611336   3.953   5.900   1.337 -1.3738  3.0148  0.3920
   41RES    H5711337   4.108   5.973   1.407  0.4262  0.4961  0.2604
   41RES    O5811338   3.854   6.305   1.084 -0.0161 -0.2097  0.0893
   41RES    C5911339   3.958   6.385   1.144 -0.6828  0.3295 -0.1366
   41RES    C6011340   3.982   6.512   1.070  0.3158  0.3414  0.2828
   41RES    C6111341   4.094   6.599   1.131 -0.6008  0.4779 -0.0475
   41RES    O6211342   4.191   6.647   1.032 -0.1199 -0.3366  0.7343
   41RES    C6311343   4.267   6.757   1.079 -0.3688  0.3945  0.3522
   41RES    H6411344   4.045   6.324   1.168 -0.1900  1.1994  0.3325
   41RES    H6511345   3.926   6.419   1.243  0.0058 -0.9591  0.5393
   41RES    H6611346   4.021   6.493   0.970 -1.1488 -0.2466 -0.1870
   41RES    H6711347   4.054   6.681   1.191 -0.3548  1.4958 -1.2282
   41RES    H6811348   4.151   6.536   1.198 -2.2312 -1.3253 -0.2948
   41RES    H6911349   4.345   6.785   1.009 -0.9280  3.0183  0.7239
   41RES    H7011350   4.315   6.733   1.173 -0.6608  0.1516  0.4393
   41RES    H7111351   4.192   6.836   1.086  0.0880  0.9390 -0.6639
   41RES    O7211352   3.863   6.582   1.059 -0.6206 -0.3173 -0.2708
   41RES    C7311353   3.861   6.681   0.958 -0.0315 -0.5244  0.5767
   41RES    C7411354   3.737   6.774   0.984  0.2817 -0.3308 -0.5745
   41RES    C7511355   3.691   6.854   0.851  0.4272  1.1244  0.6104
   41RES    O7611356   3.554   6.888   0.875  0.1958 -0.4176  0.2272
   41RES    C7711357   3.511   7.003   0.805  0.1538  0.6377 -0.0349
   41RES    H7811358   3.947   6.747   0.951  0.7215 -1.5349  0.3401
   41RES    H7911359   3.850   6.628   0.864  1.1444  1.3431 -0.6417
   41RES    H8011360   3.655   6.707   1.009 -2.1479  1.6752 -2.8758
   41RES    H8111361   3.706   6.786   0.767 -0.7851 -0.3927  1.5777
   41RES    H8211362   3.756   6.941   0.847  0.2879  1.2407  0.8732
   41RES    H8311363   3.404   7.015   0.821 -0.4052 -1.9684 -1.5258
   41RES    H8411364   3.530   6.991   0.698  3.8579 -3.7606  0.9755
   41RES    H8511365   3.559   7.097   0.833  1.0492  0.2861 -0.3657
   41RES    O8611366   3.788   6.854   1.090 -0.3991 -0.1183  0.6419
   41RES    C8711367   3.696   6.944   1.145 -0.1082  0.5235 -0.4279
   41RES    C8811368   3.753   7.014   1.269  0.4302 -0.7269  0.0343
   41RES    C8911369   3.679   7.146   1.293  0.8838 -0.1316 -0.2650
   41RES    O9011370   3.733   7.214   1.403 -0.8358  0.7235  0.6932
   41RES    C9111371   3.676   7.337   1.421  0.3052  0.1220 -0.2973
   41RES    H9211372   3.700   7.016   1.064 -0.3266  0.2132 -0.7125
   41RES    H9311373   3.600   6.894   1.154  1.8476 -3.5522 -1.1816
   41RES    H9411374   3.859   7.036   1.256 -0.0159  0.2458 -2.2735
   41RES    H9511375   3.696   7.203   1.202  0.1731 -0.5086 -0.6428
   41RES    H9611376   3.571   7.132   1.305  0.8407  0.7442  0.3559
   41RES    H9711377   3.743   7.393   1.487  0.0878 -0.5186  0.4845
   41RES    H9811378   3.673   7.396   1.330 -1.4083  2.0345  0.9633
   41RES    H9911379   3.574   7.332   1.459  0.0240 -3.2402 -1.2644
   41RES   O10011380   3.739   6.929   1.388 -0.0570  0.1577 -0.8776
   41RES   C10111381   3.803   6.804   1.388 -0.2927  0.0519 -0.3571
   41RES   C10211382   3.778   6.726   1.524 -0.0518  0.2387 -0.2376
   41RES   C10311383   3.853   6.595   1.518 -0.4149  0.2762 -0.1153
   41RES   O10411384   3.886   6.530   1.636  0.5713  0.1934 -0.0054
   41RES   C10511385   4.001   6.585   1.701  0.1679 -0.8210 -0.3299
   41RES   H10611386   3.910   6.820   1.375 -0.4699 -0.1959 -2.2612
   41RES   H10711387   3.762   6.746   1.306  0.3305 -0.1412 -0.5358
   41RES   H10811388   3.816   6.786   1.607  2.0497 -2.2437  0.6845
   41RES   H10911389   3.948   6.609   1.466 -0.5048  1.8748  0.1364
   41RES   H11011390   3.796   6.527   1.455 -1.8005  1.4051 -0.1041
   41RES   H11111391   4.031   6.536   1.794 -2.8989  0.8112  1.5954
   41RES   H11211392   3.978   6.683   1.742  0.3831 -1.0954  0.4492
   41RES   H11311393   4.081   6.595   1.628 -1.2514  0.8204 -1.7025
   41RES   O11411394   3.635   6.704   1.538  0.7655  0.3506 -0.5844
   41RES   C11511395   3.569   6.797   1.617  0.1496  0.7104  0.2985
   41RES   C11611396   3.412   6.767   1.620 -0.4525 -0.6374 -0.3257
   41RES   C11711397   3.338   6.803   1.757 -0.4923  0.4995  0.3806
   41RES   O11811398   3.219   6.737   1.765  0.6235  0.3867 -0.3054
   41RES   C11911399   3.102   6.813   1.737 -0.6210  0.5915  0.2699
   41RES   H12011400   3.611   6.804   1.717 -0.3963  1.0730  0.5048
   41RES   H12111401   3.576   6.902   1.587  1.5918  0.6574  0.4216
   41RES   H12211402   3.412   6.659   1.613 -0.1043 -0.5695 -1.5265
   41RES   H12311403   3.400   6.772   1.841 -0.9279 -1.4476  0.0018
   41RES   H12411404   3.326   6.911   1.760  0.5652  0.6313  0.1623
   41RES   H12511405   3.103   6.836   1.630 -2.6300 -0.2891  0.0415
   41RES   H12611406   3.076   6.885   1.814  1.2403  1.0155  0.5286
   41RES   H12711407   3.016   6.747   1.740  0.3701 -0.8606 -1.9669
   41RES   O12811408   3.344   6.834   1.513 -0.0452 -0.2170  0.5456
   41RES   C12911409   3.375   6.773   1.389  0.0809  0.0008 -0.2943
   41RES   C13011410   3.286   6.837   1.274  0.2851 -1.0528  0.4103
   41RES   C13111411   3.275   6.736   1.156  0.3928 -0.3946 -0.1691
   41RES   O13211412   3.159   6.766   1.075 -0.1558  0.0972  0.3218
   41RES   C13311413   3.154   6.699   0.952  0.0508  0.3853 -0.9360
   41RES   H13411414   3.480   6.790   1.367  0.1945 -1.1445 -0.6303
   41RES   H13511415   3.358   6.666   1.396  1.1785 -0.2848 -1.8191
   41RES   H13611416   3.192   6.862   1.322  1.1750 -0.0188  1.6518
   41RES   H13711417   3.269   6.632   1.185  0.5409 -0.2144  0.5131
   41RES   H13811418   3.355   6.735   1.082 -0.7306  0.6975 -1.4256
   41RES   H13911419   3.246   6.718   0.897  0.5969  1.2249  0.2391
   41RES   H14011420   3.135   6.593   0.967 -2.7387  0.5811 -2.6288
   41RES   H14111421   3.068   6.733   0.893 -0.3926  0.0764 -0.4764
   41RES   O14211422   3.335   6.967   1.235 -0.3830 -0.1738 -0.5155
   41RES   C14311423   3.268   7.033   1.131 -0.7899  0.7225  0.8043
   41RES   C14411424   3.278   7.180   1.138 -0.0928 -0.8426  0.1260
   41RES   C14511425   3.145   7.246   1.102  0.3118  0.5704  0.6132
   41RES   O14611426   3.143   7.370   1.167  0.1745 -0.1937  0.3318
   41RES   C14711427   3.026   7.439   1.138  0.1811 -0.1995 -0.2555
   41RES   H14811428   3.305   6.988   1.038  1.1626 -0.4174  2.0972
   41RES   H14911429   3.163   7.007   1.121 -0.1844 -0.5284 -3.6432
   41RES   H15011430   3.316   7.204   1.237 -1.2547  0.6555  0.2084
   41RES   H15111431   3.076   7.183   1.158 -0.7623 -0.4576 -1.8155
   41RES   H15211432   3.109   7.237   1.000 -2.6332 -1.2081  1.7375
   41RES   H15311433   2.931   7.387   1.156 -0.3859  0.6893 -0.6278
   41RES   H15411434   3.023   7.476   1.036 -2.4907  0.2783 -0.0584
   41RES   H15511435   3.033   7.528   1.202  1.0020  0.4484 -1.2445
   41RES   O15611436   3.380   7.212   1.051 -0.1865 -0.1370 -0.4237
   41RES   C15711437   3.432   7.345   1.063 -0.6079  0.5703 -1.1562
   41RES   C15811438   3.530   7.377   0.956  0.8398 -0.2713  0.5946
   41RES   C15911439   3.602   7.512   0.988  0.2007 -0.0452 -0.7046
   41RES   O16011440   3.702   7.557   0.901  0.1076 -0.0349  0.4276
   41RES   C16111441   3.810   7.463   0.894 -0.7241  0.3491  0.1975
   41RES   H16211442   3.351   7.419   1.064 -1.0451  0.1033  0.5323
   41RES   H16311443   3.483   7.352   1.159 -0.9722  0.4334 -0.9504
   41RES   H16411444   3.593   7.289   0.947 -0.9728 -1.7287  1.6936
   41RES   H16511445   3.531   7.592   1.002  0.0240 -0.1910 -0.7681
   41RES   H16611446   3.655   7.503   1.083 -4.1813  1.2258  1.9705
   41RES   H16711447   3.901   7.507   0.853  0.8018 -3.1909 -0.3992
   41RES   H16811448   3.790   7.375   0.834  1.0598 -2.4855  3.5641
   41RES   H16911449   3.847   7.424   0.989  0.0315 -0.6011 -0.4794
   41RES   O17011450   3.446   7.409   0.844  0.1686 -0.4612 -0.5750
   41RES   C17111451   3.519   7.401   0.726 -0.2977 -0.5973  0.0684
   41RES   C17211452   3.420   7.430   0.609 -0.3827  0.6460  0.6323
   41RES   C17311453   3.464   7.344   0.488 -0.1948  0.3716 -0.1314
   41RES   O17411454   3.369   7.328   0.382 -0.2681 -0.8441 -0.0676
   41RES   C17511455   3.314   7.445   0.330  0.1178 -0.5213  0.7137
   41RES   H17611456   3.567   7.304   0.714 -0.2586 -0.6054  0.2958
   41RES   H17711457   3.603   7.468   0.715  0.0555 -1.1595 -0.7309
   41RES   H17811458   3.317   7.415   0.642 -0.8195  0.8993 -0.6025
   41RES   H17911459   3.557   7.383   0.445  2.1372 -3.0474  1.5602
   41RES   H18011460   3.486   7.241   0.516  1.1893  0.1104 -2.0919
   41RES   H18111461   3.247   7.493   0.401 -1.3232 -1.6028  0.1062
   41RES   H18211462   3.262   7.440   0.234  3.8242 -1.6836 -1.3382
   41RES   H18311463   3.386   7.527   0.323 -1.4895  0.9134  0.5199
   41RES   O18411464   3.450   7.563   0.575 -0.0893 -0.1033  0.3103
   41RES   C18511465   3.379   7.657   0.646  0.5782 -0.3604 -0.9554
   41RES   C18611466   3.428   7.806   0.612 -0.0488 -0.2996 -0.3248
   41RES   C18711467   3.428   0.014   0.461  0.2950 -0.2313 -0.0955
   41RES   O18811468   3.450   0.153   0.434  0.4680 -0.2281 -0.4633
   41RES   C18911469   3.565   0.187   0.372 -0.0960 -0.1596  0.3861
   41RES   H19011470   3.371   7.636   0.752  0.1042  0.3644 -0.8403
   41RES   H19111471   3.280   7.645   0.602  0.3833 -0.2784 -0.5327
   41RES   H19211472   3.358   0.063   0.653  0.2711 -0.3182  0.2686
   41RES   H19311473   3.322   0.005   0.440 -0.1240 -0.5086  2.0622
   41RES   H19411474   3.489   7.761   0.404 -0.2464 -2.3854  1.8744
   41RES   H19511475   3.585   0.293   0.361  1.0264 -0.0850  2.7583
   41RES   H19611476   3.649   0.141   0.424 -0.1590  0.4562  1.0465
   41RES   H19711477   3.552   0.142   0.274  2.7048 -0.6817  0.2297
   41RES   O19811478   3.557   0.018   0.660  0.0187  0.2024  0.4016
   41RES   C19911479   3.567   0.026   0.800 -0.9081  0.9641 -0.5766
   41RES   C20011480   3.705   0.082   0.832  0.2791 -0.4190 -0.8806
   41RES   C20111481   3.722   0.111   0.987 -0.0742 -0.0584  0.5688
   41RES   O20211482   3.842   0.177   1.025 -0.0567  0.1634  0.0511
   41RES   C20311483   3.873   0.190   1.163  0.2924  0.4220  0.5860
   41RES   H20411484   3.541   7.757   0.861  0.9940  0.9944  0.3330
   41RES   H20511485   3.497   0.104   0.829 -0.2021  2.2725 -2.2996
   41RES   H20611486   3.787   0.016   0.802  1.7255  1.0106 -0.1841
   41RES   H20711487   3.637   0.168   1.027 -0.3898  0.4663 -0.8402
   41RES   H20811488   3.721   0.016   1.040  1.4730  0.7942  2.1728
   41RES   H20911489   3.958   0.258   1.173  0.5227 -0.2674  3.7468
   41RES   H21011490   3.890   0.101   1.223 -1.3725  1.0310  2.0065
   41RES   H21111491   3.788   0.242   1.208 -0.0481  1.2232 -0.9427
   41RES   O21211492   3.698   0.207   0.766 -0.7912 -0.5777  0.3680
   41RES   C21311493   3.829   0.252   0.725 -0.5002  0.1863 -0.4853
   41RES   C21411494   3.812   0.394   0.669 -0.0195 -0.1711  0.9035
   41RES   C21511495   3.906   0.429   0.547  0.3871  0.1477 -0.4075
   41RES   O21611496   3.825   0.511   0.461 -0.1246 -0.8412 -0.1892
   41RES   C21711497   3.903   0.573   0.358  0.0049 -0.2417 -0.2175
   41RES   H21811498   3.871   0.176   0.659  3.1698  1.0277  0.7444
   41RES   H21911499   3.897   0.256   0.810 -0.3392 -1.7719 -0.5006
   41RES   H22011500   3.709   0.407   0.637 -0.5740 -0.9081  2.3294
   41RES   H22111501   4.001   0.479   0.570  0.7086  0.0782 -1.5244
   41RES   H22211502   3.911   0.337   0.490  0.4026 -0.3963  0.4702
   41RES   H22311503   3.961   0.508   0.293  0.1614  0.1645 -0.4813
   41RES   H22411504   3.967   0.641   0.414 -0.0641 -1.5286  1.4635
   41RES   H22511505   3.838   0.641   0.303  1.4724  1.0437 -0.3738
   41RES   O22611506   3.846   0.488   0.773  0.1901  0.1908 -0.6158
   41RES   C22711507   3.787   0.619   0.771 -0.2023  0.3533  1.1540
   41RES   C22811508   3.807   0.689   0.907  0.1194 -0.1603 -0.1998
   41RES   C22911509   3.956   0.730   0.929 -0.2166  0.5265 -0.0330
   41RES   O23011510   3.995   0.661   1.043  0.1397 -0.4563 -0.4179
   41RES   C23111511   4.128   0.697   1.095  0.2513  0.3289  0.0675
   41RES   H23211512   3.682   0.631   0.745 -0.2739  0.8043  1.6279
   41RES   H23311513   3.843   0.678   0.698 -1.1465 -0.2508 -0.0685
   41RES   H23411514   3.764   0.621   0.980 -1.1990  0.5206 -0.3167
   41RES   H23511515   3.967   0.838   0.944  1.3766  0.6099 -1.5585
   41RES   H23611516   4.014   0.697   0.842 -1.2150  0.2034 -0.5838
   41RES   H23711517   4.205   0.628   1.061  0.5521 -0.0846  1.5434
   41RES   H23811518   4.129   0.702   1.204 -1.5916 -1.6706  0.2005
   41RES   H23911519   4.156   0.794   1.055 -1.3338  1.0401  0.6414
   41RES   O24011520   3.721   0.798   0.930 -0.5043  0.4246 -0.3111
   41RES   C24111521   3.716   0.857   1.059  0.8562  0.0428 -1.0631
   41RES   C24211522   3.630   0.977   1.054 -0.0602  0.2283  0.0301
   41RES   C24311523   3.630   1.040   1.193  0.0985  0.3931  0.0457
   41RES   O24411524   3.494   1.076   1.210  0.1318  0.5327 -0.4249
   41RES   C24511525   3.457   1.130   1.339  0.4765  0.7365 -0.2302
   41RES   H24611526   3.813   0.883   1.101  0.5605  2.7627 -1.9968
   41RES   H24711527   3.680   0.774   1.121  1.7732 -0.6286 -1.4083
   41RES   H24811528   3.530   0.945   1.023 -0.5691 -0.7903  2.5752
   41RES   H24911529   3.674   0.979   1.271 -0.8743 -1.7995 -1.0843
   41RES   H25011530   3.695   1.127   1.201  0.0219  0.4450  0.1174
   41RES   H25111531   3.540   1.183   1.387  0.5379 -0.9138  1.5373
   41RES   H25211532   3.419   1.058   1.410 -1.5770  1.2831 -0.7363
   41RES   H25311533   3.379   1.207   1.338  0.4420  0.7123  0.4803
   41RES   O25411534   3.696   1.064   0.958 -0.0335  0.0607 -0.0109
   41RES   C25511535   3.611   1.153   0.880  0.3586  0.5306 -0.1647
   41RES   C25611536   3.698   1.266   0.808 -0.2076  0.3066  0.4802
   41RES   C25711537   3.614   1.336   0.696 -0.3832  0.2399  0.9834
   41RES   O25811538   3.508   1.421   0.745 -0.1584  0.0599 -0.3098
   41RES   C25911539   3.425   1.459   0.640  0.0636 -0.5850  0.1399
   41RES   H26011540   3.573   1.089   0.801 -1.1859  0.1802  0.8475
   41RES   H26111541   3.530   1.203   0.932 -1.9524  0.8598 -3.9285
   41RES   H26211542   3.776   1.204   0.764 -0.3548  0.0909  0.5213
   41RES   H26311543   3.690   1.388   0.638  0.0598  0.8081  2.0586
   41RES   H26411544   3.567   1.263   0.631 -0.0470  1.5538 -0.7583
   41RES   H26511545   3.474   1.526   0.570  0.1659  1.9894  2.5306
   41RES   H26611546   3.342   1.514   0.686 -0.6758 -1.4736 -0.1385
   41RES   H26711547   3.367   1.387   0.583 -0.5731 -1.2461  1.5708
   41RES   O26811548   3.764   1.361   0.881 -0.1469  0.2576  0.4936
   41RES   C26911549   3.692   1.404   0.996  0.2238 -0.2209 -0.2182
   41RES   C27011550   3.737   1.544   1.038  0.4352  0.8280 -0.7511
   41RES   C27111551   3.709   1.646   0.926  0.5193 -0.7455  0.2125
   41RES   O27211552   3.776   1.764   0.957 -0.1159 -0.2336  0.0641
   41RES   C27311553   3.769   1.850   0.847 -0.2283 -0.8814 -0.4313
   41RES   H27411554   3.721   1.332   1.073  0.9341 -0.1021 -0.3686
   41RES   H27511555   3.587   1.403   0.967  0.8345 -0.4160 -2.5315
   41RES   H27611556   3.687   1.573   1.130  1.5367  1.3521 -0.3102
   41RES   H27711557   3.603   1.667   0.914  0.5726 -0.9738 -0.6659
   41RES   H27811558   3.760   1.617   0.835  3.3433  0.2962  1.4016
   41RES   H27911559   3.665   1.883   0.844 -1.3156 -4.2054 -1.5209
   41RES   H28011560   3.806   1.816   0.750  0.3094  0.2625 -0.6338
   41RES   H28111561   3.828   1.942   0.850  1.5433 -1.8785 -3.2195
   41RES   H28211562   3.841   1.542   1.068 -0.0343 -1.0684  0.8164
   42RES     O111563   6.281   2.622   1.692  0.1991 -0.3640 -0.7570
   42RES     C211564   6.196   2.511   1.690  0.0730  0.0380 -0.0925
   42RES     C311565   6.065   2.541   1.610  0.7033  0.2088  0.3344
   42RES     C411566   5.980   2.419   1.591  0.1657 -0.6518 -0.1320
   42RES     O511567   5.963   2.349   1.716  0.4406 -0.2502 -0.1125
   42RES     C611568   5.854   2.254   1.717 -0.3009 -0.6369 -0.0171
   42RES     H711569   6.243   2.434   1.628 -2.0466 -1.7683  0.4800
   42RES     H811570   6.176   2.463   1.785  3.3519 -0.8856  0.1907
   42RES     H911571   6.080   2.580   1.509  2.6152  0.8199  0.8447
   42RES    H1011572   6.050   2.356   1.537  0.1398 -0.6597 -0.1564
   42RES    H1111573   5.883   2.435   1.544 -1.4934 -1.5610  2.8485
   42RES    H1211574   5.757   2.303   1.704  1.5181  3.2110  0.1608
   42RES    H1311575   5.842   2.182   1.637  0.3780 -0.0209 -0.6765
   42RES    H1411576   5.853   2.204   1.814 -0.5968  0.2012  0.4177
   42RES    H1511577   6.246   2.694   1.742  1.0340  0.6555 -1.6212
   42RES    O1611578   5.975   2.621   1.686 -0.3521  0.1027  0.0368
   42RES    C1711579   5.991   2.759   1.685 -0.2122  0.3850 -0.2323
   42RES    C1811580   5.882   2.812   1.776 -0.9331  0.5807 -0.4924
   42RES    C1911581   5.905   2.956   1.831  0.0642 -0.5171  0.6115
   42RES    O2011582   5.832   2.992   1.949 -0.8132  0.2464 -0.2121
   42RES    C2111583   5.853   3.130   1.991  0.4410  0.0141  0.2084
   42RES    H2211584   5.997   2.808   1.588  0.5388  0.4282 -0.1706
   42RES    H2311585   6.085   2.787   1.734  0.1157  0.3688 -0.8483
   42RES    H2411586   5.877   2.747   1.864  0.4384  1.5627  0.3305
   42RES    H2511587   6.011   2.970   1.852  0.0636 -1.4962  1.3180
   42RES    H2611588   5.866   3.022   1.755 -0.3130 -1.4442 -0.0104
   42RES    H2711589   5.832   3.140   2.097 -3.8440  0.8125 -0.6431
   42RES    H2811590   5.792   3.203   1.938  1.1556  0.4185 -0.0609
   42RES    H2911591   5.958   3.158   1.985 -0.0313  1.5821 -0.9625
   42RES    O3011592   5.762   2.798   1.701 -0.4479 -0.6915  0.9933
   42RES    C3111593   5.644   2.813   1.779 -0.6968 -0.1023  0.0617
   42RES    C3211594   5.615   2.679   1.856 -1.2297 -0.5267  0.8497
   42RES    C3311595   5.460   2.657   1.854 -0.4574 -0.1151 -0.5822
   42RES    O3411596   5.384   2.733   1.949 -0.4093  0.5234  0.0328
   42RES    C3511597   5.245   2.714   1.938  0.2928 -1.0897  0.6905
   42RES    H3611598   5.651   2.893   1.853  0.9790  0.6804 -0.9254
   42RES    H3711599   5.561   2.833   1.711  0.1303  0.2627 -0.8506
   42RES    H3811600   5.654   2.591   1.804 -0.2967  0.6201 -0.4183
   42RES    H3911601   5.431   2.553   1.873 -0.4419 -0.3836 -1.9713
   42RES    H4011602   5.429   2.671   1.750  0.0000 -1.6178 -0.9382
   42RES    H4111603   5.195   2.803   1.977 -0.1529 -0.7888 -0.5493
   42RES    H4211604   5.203   2.629   1.992 -0.7655 -1.5478 -0.8106
   42RES    H4311605   5.209   2.708   1.835 -0.6826 -1.5347  1.0505
   42RES    O4411606   5.665   2.671   1.989  0.0578  0.2214  0.3826
   42RES    C4511607   5.678   2.543   2.047  0.9154 -0.2364  0.3934
   42RES    C4611608   5.773   2.563   2.169  0.6942 -0.0408 -0.5729
   42RES    C4711609   5.905   2.634   2.140 -0.2489 -0.2136 -0.4821
   42RES    O4811610   5.994   2.624   2.250  0.0395  0.4360 -0.4549
   42RES    C4911611   6.129   2.668   2.225 -0.0245  0.2827 -0.0547
   42RES    H5011612   5.736   2.478   1.981  1.5828  0.0081  0.7293
   42RES    H5111613   5.578   2.503   2.060  1.3056 -1.6305 -0.7075
   42RES    H5211614   5.804   2.471   2.219 -2.5228 -2.0926 -2.2216
   42RES    H5311615   5.950   2.599   2.048  1.2630  0.3157  0.0375
   42RES    H5411616   5.864   2.732   2.113  2.6352  0.6278 -1.9461
   42RES    H5511617   6.152   2.736   2.306 -3.2006  0.5541  0.6812
   42RES    H5611618   6.141   2.721   2.131  0.7872  2.3057  1.1771
   42RES    H5711619   6.198   2.583   2.235 -1.5353 -1.0001 -0.3194
   42RES    O5811620   5.700   2.639   2.263 -0.1366 -0.0487  0.1453
   42RES    C5911621   5.603   2.571   2.332 -0.2996  0.2431  0.0533
   42RES    C6011622   5.596   2.602   2.479  0.7310 -0.1250  0.3062
   42RES    C6111623   5.501   2.506   2.562 -0.5192  0.2307  0.4067
   42RES    O6211624   5.531   2.369   2.529  0.3276  0.3425  0.5673
   42RES    C6311625   5.485   2.282   2.623 -0.0765  0.0552  0.7346
   42RES    H6411626   5.607   2.463   2.315  1.5935  0.1758  0.8276
   42RES    H6511627   5.507   2.603   2.290 -0.3948 -0.6348 -0.4192
   42RES    H6611628   5.693   2.591   2.527 -0.1261 -0.3843  2.0175
   42RES    H6711629   5.517   2.523   2.668 -1.4000  0.9486  0.4264
   42RES    H6811630   5.396   2.524   2.541 -0.2699 -0.8805 -1.9144
   42RES    H6911631   5.523   2.182   2.604 -1.3069 -0.5517  1.3452
   42RES    H7011632   5.376   2.286   2.621  0.0238  3.1718 -1.4759
   42RES    H7111633   5.522   2.307   2.723 -0.8684  1.1355  0.7677
   42RES    O7211634   5.557   2.742   2.500 -0.3930 -0.7926  0.2738
   42RES    C7311635   5.662   2.835   2.499 -0.0768 -0.1257 -0.2362
   42RES    C7411636   5.623   2.967   2.423  0.8479  0.6018  0.0929
   42RES    C7511637   5.611   2.954   2.273 -0.1841 -0.3854  0.6403
   42RES    O7611638   5.551   3.070   2.213  0.2140 -0.1936  0.0262
   42RES    C7711639   5.525   3.056   2.076  0.1535 -0.6978  0.2501
   42RES    H7811640   5.683   2.881   2.596 -1.1926  2.4400 -1.1469
   42RES    H7911641   5.759   2.804   2.459 -0.9110 -1.4977 -1.2152
   42RES    H8011642   5.523   2.990   2.458 -0.5428 -2.2737 -1.7926
   42RES    H8111643   5.554   2.864   2.248 -1.6665  0.8735 -0.5832
   42RES    H8211644   5.711   2.944   2.230 -0.7158  0.2775 -0.7894
   42RES    H8311645   5.461   2.972   2.052  0.1288 -0.1709 -1.5734
   42RES    H8411646   5.599   3.054   1.997 -1.7124  1.2735 -1.6098
   42RES    H8511647   5.473   3.150   2.055 -0.1453 -0.6072  1.3394
   42RES    O8611648   5.712   3.071   2.461  0.3480 -0.1543 -0.0665
   42RES    C8711649   5.676   3.206   2.436 -0.2319  0.1506 -0.7373
   42RES    C8811650   5.783   3.292   2.504  0.4694  0.0420 -0.2549
   42RES    C8911651   5.772   3.433   2.441 -0.7795 -0.2682  0.3533
   42RES    O9011652   5.886   3.511   2.470  0.4797  0.6716 -0.2689
   42RES    C9111653   5.863   3.643   2.433 -0.1068  0.8583 -0.1618
   42RES    H9211654   5.678   3.225   2.329 -2.5457 -0.1930 -0.8592
   42RES    H9311655   5.577   3.238   2.469  0.3525  1.7456 -0.4813
   42RES    H9411656   5.880   3.246   2.487 -0.5106 -2.3760  0.5997
   42RES    H9511657   5.764   3.423   2.333  0.4981  0.1606  0.2061
   42RES    H9611658   5.683   3.487   2.473 -1.7060 -1.7954  0.3781
   42RES    H9711659   5.778   3.686   2.487  0.9720  1.2282  1.2707
   42RES    H9811660   5.956   3.697   2.448 -0.0939  0.4341  1.2791
   42RES    H9911661   5.847   3.649   2.325 -0.1622  0.4183 -0.1799
   42RES   O10011662   5.746   3.309   2.644  0.5632  0.1674  0.5171
   42RES   C10111663   5.853   3.293   2.738  0.9185 -0.1257 -0.4255
   42RES   C10211664   5.803   3.275   2.885 -0.3335  0.1739  0.4766
   42RES   C10311665   5.914   3.339   2.981  0.0418  0.3546  0.5760
   42RES   O10411666   5.866   3.341   3.113 -0.8423  0.1319  0.6322
   42RES   C10511667   5.964   3.401   3.203  0.1067 -0.9333 -0.0012
   42RES   H10611668   5.894   3.394   2.738 -0.4055  0.4128 -1.0603
   42RES   H10711669   5.922   3.213   2.711 -0.4410 -1.7006  0.6808
   42RES   H10811670   5.707   3.326   2.889 -0.8630 -0.5562 -1.8370
   42RES   H10911671   5.948   3.436   2.947  0.9793 -0.1799 -0.0334
   42RES   H11011672   6.003   3.276   2.987  0.7667  1.2755 -0.3146
   42RES   H11111673   5.968   3.510   3.196 -0.9698 -0.7120  2.3954
   42RES   H11211674   6.065   3.362   3.198  0.0582 -1.1224  0.5427
   42RES   H11311675   5.930   3.382   3.305  1.1270  1.7291  0.8773
   42RES   O11411676   5.800   3.142   2.930 -0.1179 -0.3722  0.1536
   42RES   C11511677   5.704   3.058   2.861 -0.1520  0.0068  0.0702
   42RES   C11611678   5.701   2.903   2.893 -0.3848 -0.1236 -0.0838
   42RES   C11711679   5.556   2.846   2.875 -0.0696 -0.2153 -0.7407
   42RES   O11811680   5.531   2.723   2.939 -0.1508  0.3171 -0.0490
   42RES   C11911681   5.400   2.678   2.904  0.2618  0.1790 -0.2864
   42RES   H12011682   5.610   3.099   2.900  0.7196  1.1035  1.0551
   42RES   H12111683   5.702   3.068   2.753  1.1736 -1.7799 -0.1404
   42RES   H12211684   5.720   2.888   2.999 -0.8399  1.4439  0.2368
   42RES   H12311685   5.485   2.920   2.913  0.4674  0.1881 -0.5235
   42RES   H12411686   5.531   2.852   2.769 -0.4633 -0.4552 -0.6640
   42RES   H12511687   5.393   2.682   2.795 -1.3879 -0.1578 -0.1950
   42RES   H12611688   5.318   2.731   2.951 -0.1098 -0.5087 -0.1484
   42RES   H12711689   5.391   2.571   2.921 -2.0820  0.2280 -1.0915
   42RES   O12811690   5.787   2.849   2.796  0.4910  0.0223  0.3912
   42RES   C12911691   5.924   2.859   2.839 -0.7046  0.3885  0.2019
   42RES   C13011692   6.025   2.807   2.736 -0.9501  0.6758  0.2899
   42RES   C13111693   6.139   2.719   2.797  0.0079 -0.7782 -0.0390
   42RES   O13211694   6.222   2.650   2.704 -0.4934 -0.1761  0.1667
   42RES   C13311695   6.159   2.551   2.617  0.8581 -0.1656  0.2316
   42RES   H13411696   5.944   2.957   2.883  0.9430 -0.4174  1.2963
   42RES   H13511697   5.929   2.800   2.931 -0.6930  1.2648  0.7811
   42RES   H13611698   5.966   2.732   2.684  0.6768  0.1056 -0.7556
   42RES   H13711699   6.091   2.649   2.865  0.4962 -0.7759  0.3104
   42RES   H13811700   6.202   2.783   2.860 -0.1163  0.8925 -1.5826
   42RES   H13911701   6.065   2.581   2.571  1.4086 -0.9454 -1.4237
   42RES   H14011702   6.225   2.543   2.531  0.3956 -0.2458 -0.1188
   42RES   H14111703   6.154   2.455   2.670 -0.1891  0.2342  0.8777
   42RES   O14211704   6.073   2.919   2.662 -0.6053  0.1678 -0.1554
   42RES   C14311705   6.013   2.918   2.536  0.6434  0.6590 -0.1188
   42RES   C14411706   6.096   3.007   2.426 -0.4707  0.0643 -0.0208
   42RES   C14511707   6.028   3.021   2.287  0.3715  0.0989 -1.1474
   42RES   O14611708   6.094   3.111   2.199  0.3413 -0.2545 -0.0350
   42RES   C14711709   6.195   3.056   2.124  0.0228  0.8314 -0.4803
   42RES   H14811710   5.990   2.819   2.496 -0.1611  0.9225 -0.3198
   42RES   H14911711   5.920   2.971   2.554 -0.1092  0.2735 -2.6038
   42RES   H15011712   6.117   3.107   2.463  1.2676 -0.6179  0.9153
   42RES   H15111713   5.928   3.058   2.309 -0.9640 -2.6791 -2.1956
   42RES   H15211714   6.021   2.921   2.242 -1.0777 -1.2119  1.8292
   42RES   H15311715   6.284   3.044   2.186 -0.1742 -2.4733 -0.7562
   42RES   H15411716   6.224   3.120   2.041 -0.7092  0.4415 -1.0445
   42RES   H15511717   6.156   2.963   2.084 -1.7302  1.6940 -0.8118
   42RES   O15611718   6.215   2.925   2.409  0.3442  0.4588  0.2812
   42RES   C15711719   6.317   2.961   2.496  0.9620  0.0881  0.6336
   42RES   C15811720   6.447   2.875   2.464  0.8618 -1.0482  0.4276
   42RES   C15911721   6.559   2.910   2.567  0.7064 -0.6031 -0.4349
   42RES   O16011722   6.660   2.812   2.549 -0.1724 -0.5439  0.1946
   42RES   C16111723   6.774   2.816   2.639 -0.4605  0.5236  0.0046
   42RES   H16211724   6.351   3.064   2.490 -0.8122  0.6976  0.8182
   42RES   H16311725   6.279   2.940   2.595 -1.0298 -1.4858 -0.4304
   42RES   H16411726   6.407   2.775   2.476  0.0340 -0.8751 -0.8374
   42RES   H16511727   6.599   3.009   2.549 -0.1617 -0.3798 -1.1398
   42RES   H16611728   6.512   2.903   2.666 -1.4252 -1.6089 -1.4766
   42RES   H16711729   6.829   2.723   2.627 -0.9285  0.1975  0.3751
   42RES   H16811730   6.749   2.839   2.743 -0.2566  2.0539 -0.2704
   42RES   H16911731   6.842   2.897   2.612  0.6002 -0.0390  0.9358
   42RES   O17011732   6.488   2.923   2.340  0.2422  0.6107 -0.0085
   42RES   C17111733   6.544   2.830   2.250 -0.3693  0.0677 -0.6209
   42RES   C17211734   6.578   2.908   2.121  0.2848  0.7040 -0.2748
   42RES   C17311735   6.584   2.804   2.005  0.0980 -0.7565 -0.2500
   42RES   O17411736   6.640   2.862   1.883  0.2564 -0.1548 -0.0551
   42RES   C17511737   6.654   2.760   1.774  0.7176 -0.2857  0.6634
   42RES   H17611738   6.470   2.756   2.222  0.1671 -1.2077  1.2411
   42RES   H17711739   6.627   2.773   2.290 -0.1846  0.3181 -0.6426
   42RES   H17811740   6.502   2.980   2.094 -0.0652  0.4248 -0.0298
   42RES   H17911741   6.652   2.727   2.042 -1.3909 -0.3719  3.5990
   42RES   H18011742   6.491   2.753   1.978 -2.2580  2.0359  2.1946
   42RES   H18111743   6.711   2.798   1.689 -2.1429  1.7696 -0.4005
   42RES   H18211744   6.552   2.747   1.737  0.4489  1.1809  0.8742
   42RES   H18311745   6.694   2.666   1.813 -1.4611 -0.4714  2.4973
   42RES   O18411746   6.706   2.962   2.135 -0.0395  0.3110 -0.2112
   42RES   C18511747   6.703   3.109   2.140 -0.4463 -0.1115  0.1045
   42RES   C18611748   6.838   3.180   2.161 -0.1933  0.3661 -0.3635
   42RES   C18711749   6.813   3.332   2.188 -0.6468  0.3234  0.0306
   42RES   O18811750   6.929   3.409   2.204 -0.8317 -0.3508 -0.4833
   42RES   C18911751   6.891   3.535   2.267 -0.1035  0.7678  0.6652
   42RES   H19011752   6.641   3.136   2.225  0.7246  1.1396  0.5753
   42RES   H19111753   6.673   3.157   2.047 -0.0426 -0.8842 -0.4267
   42RES   H19211754   6.903   3.130   2.232 -0.4297  0.6346  0.0463
   42RES   H19311755   6.750   3.326   2.277 -0.4933 -0.5659  0.0779
   42RES   H19411756   6.753   3.374   2.107 -2.9510  0.0304  1.5212
   42RES   H19511757   6.879   3.518   2.374 -3.0968  0.5105  0.3175
   42RES   H19611758   6.973   3.607   2.260  1.6062 -1.0484  1.3033
   42RES   H19711759   6.809   3.581   2.214 -2.2109 -3.0352  0.4521
   42RES   O19811760   6.903   3.169   2.034  0.4636 -0.2716  0.1030
   42RES   C19911761   6.962   3.048   2.001 -0.1614 -0.1097 -0.3267
   42RES   C20011762   7.065   3.052   1.884 -0.2292  0.6263 -1.3904
   42RES   C20111763   7.094   2.906   1.844 -0.2400  0.5780  0.0790
   42RES   O20211764   7.183   2.897   1.733  0.3528  0.6327  0.1301
   42RES   C20311765   7.124   2.934   1.612 -0.1053 -0.3678 -0.1345
   42RES   H20411766   6.883   2.976   1.980 -0.6015  0.0271  0.8196
   42RES   H20511767   7.014   3.007   2.088  0.7068 -2.4380 -1.8899
   42RES   H20611768   7.025   3.104   1.796 -2.1306  2.6088  0.5708
   42RES   H20711769   7.135   2.859   1.934 -1.3759  0.7983  0.7267
   42RES   H20811770   7.000   2.853   1.831 -0.7050  1.2930  0.4808
   42RES   H20911771   7.015   2.937   1.619  0.0263 -0.7647  2.6182
   42RES   H21011772   7.162   2.882   1.524  2.4504  1.3262 -0.0769
   42RES   H21111773   7.166   3.034   1.601  3.7056 -1.3615  3.8823
   42RES   O21211774   7.181   3.107   1.934 -0.2753 -0.3101  0.2330
   42RES   C21311775   7.188   3.243   1.951 -0.2116  0.1974 -0.2895
   42RES   C21411776   7.333   3.291   1.962  0.3215  0.1455  0.8209
   42RES   C21511777   7.406   3.271   1.827  0.6177 -0.3438  0.4646
   42RES   O21611778   7.489   3.383   1.799  0.3145  0.2460  0.0412
   42RES   C21711779   7.633   3.369   1.813 -0.1573  0.1784  0.2691
   42RES   H21811780   7.127   3.275   2.036 -0.5098 -1.1974  0.0375
   42RES   H21911781   7.145   3.299   1.869 -1.6694 -2.8214 -1.6718
   42RES   H22011782   7.327   3.399   1.972  0.3815  0.1955  0.2965
   42RES   H22111783   7.461   3.178   1.836 -0.6361 -1.0297  1.2661
   42RES   H22211784   7.327   3.262   1.752 -0.0172  0.9758  0.9491
   42RES   H22311785   7.667   3.326   1.719  1.3352  1.7518  0.0645
   42RES   H22411786   7.657   3.306   1.899  0.4851 -2.1526 -1.5838
   42RES   H22511787   7.677   3.469   1.817 -2.5420  1.2639  0.6615
   42RES   O22611788   7.417   3.232   2.057  0.0294  0.7830 -0.1647
   42RES   C22711789   7.382   3.259   2.190  0.1697  0.1257 -0.4955
   42RES   C22811790   7.467   3.169   2.285  0.5966 -0.2056  0.1026
   42RES   C22911791   7.547   3.246   2.395 -0.0130  0.4683 -0.0822
   42RES   O23011792   7.649   3.169   2.463  0.0281  0.5936 -0.2941
   42RES   C23111793   7.637   3.177   2.605 -0.9906  1.1586 -0.2124
   42RES   H23211794   7.283   3.215   2.203 -0.3844  1.3516 -0.5052
   42RES   H23311795   7.403   3.365   2.199  1.6744 -0.0987 -1.1972
   42RES   H23411796   7.540   3.115   2.225  0.2276 -0.8897  0.2628
   42RES   H23511797   7.475   3.281   2.469 -2.5259 -1.4870 -1.5233
   42RES   H23611798   7.607   3.329   2.358  1.3827 -0.0340  1.0060
   42RES   H23711799   7.644   3.280   2.642  3.3830  0.1686  2.0693
   42RES   H23811800   7.715   3.118   2.653 -1.4900  1.4233  0.9427
   42RES   H23911801   7.543   3.133   2.640  0.1161 -0.1576  1.1352
   42RES   O24011802   7.380   3.078   2.355 -0.0352 -0.5383  0.4687
   42RES   C24111803   7.369   2.960   2.286 -0.4209  0.6868  0.1769
   42RES   C24211804   7.260   2.880   2.358 -0.2490 -0.3241  0.7669
   42RES   C24311805   7.192   2.786   2.258 -0.7003  0.1581 -0.1611
   42RES   O24411806   7.063   2.747   2.307 -0.2692  0.3765  0.1216
   42RES   C24511807   6.984   2.703   2.196 -0.4879 -0.2189  0.3992
   42RES   H24611808   7.466   2.912   2.277 -1.3653 -1.0589 -0.8523
   42RES   H24711809   7.342   2.981   2.182  0.8438 -2.0541 -0.7422
   42RES   H24811810   7.182   2.947   2.394  0.4086  0.8952 -0.0403
   42RES   H24911811   7.189   2.847   2.167  1.0065  0.9872  0.3192
   42RES   H25011812   7.242   2.692   2.236  1.4114  1.1440  0.2740
   42RES   H25111813   6.883   2.668   2.218 -1.2764  1.6525 -0.1425
   42RES   H25211814   7.042   2.631   2.138  0.2408  0.4031  0.3564
   42RES   H25311815   6.961   2.787   2.131 -0.0871 -1.7989 -1.8617
   42RES   O25411816   7.335   2.801   2.456  0.5012  0.5397 -0.1507
   42RES   C25511817   7.311   2.840   2.588  0.5475 -0.3424 -0.2138
   42RES   C25611818   7.409   2.768   2.693  0.4255 -0.1552 -0.3532
   42RES   C25711819   7.372   2.793   2.843  0.1751  0.2714 -0.2375
   42RES   O25811820   7.472   2.743   2.928  0.5680 -0.2580 -0.0545
   42RES   C25911821   7.576   2.837   2.957  0.1257 -1.0112 -0.6335
   42RES   H26011822   7.330   2.947   2.594  0.5458 -0.1950 -2.4830
   42RES   H26111823   7.210   2.814   2.619  0.6468 -1.4672 -0.7889
   42RES   H26211824   7.513   2.796   2.678  0.3283 -0.7624 -2.4286
   42RES   H26311825   7.361   2.900   2.863  2.9421  0.4391  0.5221
   42RES   H26411826   7.284   2.735   2.871  0.8113 -0.2925  0.6213
   42RES   H26511827   7.627   2.864   2.864 -3.0328  0.7859 -1.9391
   42RES   H26611828   7.648   2.793   3.025  1.4289 -0.1888 -1.4661
   42RES   H26711829   7.527   2.923   3.002 -0.8029 -2.6688  1.6107
   42RES   O26811830   7.384   2.629   2.679  0.0517  0.2070 -0.3887
   42RES   C26911831   7.500   2.550   2.707  0.0234 -0.1400 -0.1678
   42RES   C27011832   7.591   2.530   2.582  0.2356 -0.3931  0.5494
   42RES   C27111833   7.721   2.462   2.606 -0.0686 -0.8032  0.3284
   42RES   O27211834   7.805   2.491   2.488 -1.1921  0.5938  0.4328
   42RES   C27311835   0.114   2.444   2.524 -0.7306 -0.3334  0.4556
   42RES   H27411836   7.456   2.453   2.735 -0.4721  0.2302  0.3510
   42RES   H27511837   7.564   2.580   2.789 -0.0764 -0.6739  0.1128
   42RES   H27611838   7.530   2.480   2.507 -1.5819  0.2212  1.5904
   42RES   H27711839   7.705   2.355   2.622  0.6657 -0.9343  0.2288
   42RES   H27811840   7.771   2.507   2.692 -0.2698  0.1634 -0.0608
   42RES   H27911841   0.185   2.453   2.442 -1.2431  2.4050  0.2549
   42RES   H28011842   0.109   2.337   2.544  2.5153 -1.1867 -2.7236
   42RES   H28111843   0.147   2.507   2.607  1.8242  0.9752 -1.4611
   42RES   H28211844   7.618   2.623   2.531  1.0140 -0.4781  0.8061
   43RES     O111845   6.914   2.359   2.296 -0.2885  0.7831 -0.0049
   43RES     C211846   6.924   2.428   2.415  0.0588 -0.1123 -0.4371
   43RES     C311847   7.073   2.444   2.455  0.3737 -0.4840  0.4888
   43RES     C411848   7.094   2.480   2.604  0.4281  0.2345  0.4918
   43RES     O511849   7.061   2.370   2.690 -0.0426 -0.5895 -0.2417
   43RES     C611850   7.051   2.399   2.827 -0.1869 -0.4514 -0.4796
   43RES     H711851   6.868   2.521   2.401  0.6404  0.3440  0.2089
   43RES     H811852   6.865   2.382   2.495 -0.2712 -0.2879 -0.7822
   43RES     H911853   7.123   2.514   2.387 -1.2898  1.1709  0.9368
   43RES    H1011854   7.037   2.571   2.625  0.1901  0.3270 -0.5485
   43RES    H1111855   7.200   2.498   2.621  0.5512  0.1647 -0.2117
   43RES    H1211856   7.030   2.308   2.883  0.0837 -0.1114  0.1714
   43RES    H1311857   7.146   2.430   2.869 -0.1643 -0.4329 -0.5423
   43RES    H1411858   6.972   2.472   2.839 -1.1243 -1.9219  2.6497
   43RES    H1511859   6.985   2.296   2.291  0.3948  1.4926  0.6925
   43RES    O1611860   7.122   2.314   2.414  0.3761 -0.7050 -0.4758
   43RES    C1711861   7.259   2.315   2.391 -0.4959 -0.4494 -0.4835
   43RES    C1811862   7.319   2.175   2.396  0.0493 -0.6010 -0.2769
   43RES    C1911863   7.468   2.167   2.351  0.3800 -0.1951  0.1822
   43RES    O2011864   7.514   2.034   2.334 -0.3777 -0.0049  0.3053
   43RES    C2111865   7.651   2.029   2.300 -0.4788 -0.0593  0.0701
   43RES    H2211866   7.299   2.378   2.471  2.6246 -1.1494 -1.4352
   43RES    H2311867   7.268   2.372   2.298 -2.9696 -0.3400 -0.6815
   43RES    H2411868   7.248   2.115   2.339  0.4595  0.3292 -1.8075
   43RES    H2511869   7.471   2.229   2.262 -0.4829  0.1376  0.3773
   43RES    H2611870   7.542   2.211   2.418  2.0437  1.0579 -2.3957
   43RES    H2711871   7.666   2.100   2.218 -0.6168 -0.5669 -0.4012
   43RES    H2811872   7.672   1.933   2.253 -1.8785 -0.6032  0.5543
   43RES    H2911873   7.723   2.051   2.379  0.8829 -0.9691 -0.8897
   43RES    O3011874   7.324   2.133   2.534  0.3521 -0.5280 -0.1543
   43RES    C3111875   7.210   2.070   2.592  0.3631 -0.2546  0.3062
   43RES    C3211876   7.235   2.035   2.739 -0.3334  0.7920  0.3954
   43RES    C3311877   7.332   2.146   2.801  0.3858  0.2021 -0.1922
   43RES    O3411878   7.324   2.151   2.942  0.3231  0.4391 -0.7730
   43RES    C3511879   7.432   2.220   2.996  1.0681 -0.3293 -0.1375
   43RES    H3611880   7.132   2.145   2.579 -1.9041 -2.4835  0.5590
   43RES    H3711881   7.165   1.988   2.536 -1.0050 -0.8014  2.1437
   43RES    H3811882   7.144   2.008   2.792 -0.5641  0.4554 -0.1656
   43RES    H3911883   7.307   2.242   2.757  0.5731 -0.0885 -0.9396
   43RES    H4011884   7.435   2.120   2.778  0.2021  0.7525 -1.7113
   43RES    H4111885   7.514   2.149   2.991  1.9649  0.6403  0.5675
   43RES    H4211886   7.419   2.253   3.100  0.2149 -0.2082 -0.2766
   43RES    H4311887   7.455   2.309   2.938 -2.2079  1.3925  1.0948
   43RES    O4411888   7.323   1.920   2.733 -0.3786  0.1561  0.4037
   43RES    C4511889   7.265   1.787   2.735  0.1676 -0.4008 -0.3955
   43RES    C4611890   7.363   1.671   2.694 -0.2850 -0.3118  0.2403
   43RES    C4711891   7.323   1.559   2.777 -0.5802  0.3440  0.9032
   43RES    O4811892   7.433   1.467   2.787  0.3584 -0.0913  0.0787
   43RES    C4911893   7.396   1.344   2.846 -0.7897  0.5182 -0.0631
   43RES    H5011894   7.182   1.797   2.665 -0.0732  0.0423 -0.0501
   43RES    H5111895   7.215   1.775   2.831 -1.7907 -1.4809 -1.4962
   43RES    H5211896   7.464   1.703   2.715  0.0730 -0.1050 -1.6804
   43RES    H5311897   7.309   1.584   2.883 -0.4995 -2.0059  1.4790
   43RES    H5411898   7.227   1.519   2.745  1.1870 -1.0282 -2.8928
   43RES    H5511899   7.352   1.346   2.946  2.0088 -2.0429  1.3093
   43RES    H5611900   7.486   1.284   2.862 -0.2952  1.4961  0.8638
   43RES    H5711901   7.322   1.297   2.781 -0.7459 -1.8232  1.5157
   43RES    O5811902   7.340   1.632   2.558  0.2576 -0.0635 -0.4093
   43RES    C5911903   7.385   1.711   2.461  0.1020  0.0134 -0.4518
   43RES    C6011904   7.361   1.660   2.320 -0.0582 -0.3807 -0.0451
   43RES    C6111905   7.475   1.710   2.232 -0.6144 -0.8009  0.2924
   43RES    O6211906   7.496   1.629   2.121  0.1711 -0.1986 -0.2783
   43RES    C6311907   7.575   1.685   2.015 -0.9140 -0.9838 -0.1225
   43RES    H6411908   7.493   1.709   2.479 -0.1923 -2.6862  1.2550
   43RES    H6511909   7.365   1.818   2.463 -2.9226 -0.4993 -0.9816
   43RES    H6611910   7.359   1.552   2.329 -1.0454 -0.4386 -0.8918
   43RES    H6711911   7.468   1.818   2.217  1.8315 -0.4211  1.5424
   43RES    H6811912   7.571   1.688   2.279 -1.1454 -0.3474  1.5929
   43RES    H6911913   7.516   1.747   1.949  0.8326  0.5946 -0.2509
   43RES    H7011914   7.617   1.602   1.957 -2.2774 -1.7632 -0.0093
   43RES    H7111915   7.657   1.750   2.047 -1.0528 -0.8271 -0.0882
   43RES    O7211916   7.246   1.703   2.260  0.2530 -0.1017  0.2210
   43RES    C7311917   7.130   1.662   2.335 -0.1646 -0.8667  0.0049
   43RES    C7411918   7.006   1.711   2.254  0.2702 -0.2528 -0.2386
   43RES    C7511919   6.968   1.861   2.270 -0.1810 -0.6787 -0.0496
   43RES    O7611920   6.952   1.914   2.140 -0.2746  0.0094 -0.8412
   43RES    C7711921   6.857   2.019   2.135  0.1988  0.6695  0.1086
   43RES    H7811922   7.124   1.554   2.326  0.6239 -0.8011 -1.4755
   43RES    H7911923   7.123   1.712   2.431  0.0323 -1.0516  0.1144
   43RES    H8011924   7.010   1.686   2.148 -1.4870 -1.0639 -0.1390
   43RES    H8111925   7.043   1.921   2.323 -1.2673 -1.0937  2.0253
   43RES    H8211926   6.875   1.868   2.328  0.1404 -0.7517  0.4804
   43RES    H8311927   6.890   2.113   2.180 -0.2048  0.2742  1.2317
   43RES    H8411928   6.750   1.997   2.143  0.2855 -0.0169 -0.6270
   43RES    H8511929   6.860   2.041   2.028  0.2318  0.0063 -0.0295
   43RES    O8611930   6.891   1.642   2.308 -0.3560 -0.2984  0.3239
   43RES    C8711931   6.778   1.615   2.225  0.9326  0.0615  0.0371
   43RES    C8811932   6.796   1.489   2.138  0.4575 -0.1886 -0.4072
   43RES    C8911933   6.773   1.361   2.222  0.2955  0.0736 -0.5150
   43RES    O9011934   6.817   1.246   2.148 -0.4735 -0.1512 -0.0284
   43RES    C9111935   6.796   1.122   2.210  0.0839 -0.0919  0.2262
   43RES    H9211936   6.693   1.596   2.290 -0.4894 -0.5261 -1.9155
   43RES    H9311937   6.739   1.698   2.166 -0.5659 -1.6314 -1.4485
   43RES    H9411938   6.895   1.492   2.093  0.4074 -0.0385 -0.5077
   43RES    H9511939   6.819   1.356   2.320 -0.5907  0.5637 -0.0758
   43RES    H9611940   6.667   1.358   2.245  0.7591 -0.5771  1.5951
   43RES    H9711941   6.818   1.053   2.129 -0.2324 -2.5548  2.1772
   43RES    H9811942   6.852   1.107   2.302  0.0153  2.9620  0.8213
   43RES    H9911943   6.692   1.104   2.238 -0.4316  0.1205 -1.5167
   43RES   O10011944   6.686   1.490   2.039  0.3059 -0.6311  0.2370
   43RES   C10111945   6.701   1.410   1.927 -0.2577  1.0289  0.0070
   43RES   C10211946   6.600   1.442   1.823 -0.2724 -0.0839  0.1010
   43RES   C10311947   6.559   1.304   1.766 -0.6124 -0.8925 -0.0399
   43RES   O10411948   6.473   1.301   1.656 -0.0919 -0.0222  0.0088
   43RES   C10511949   6.425   1.171   1.618 -0.5062 -0.6035  0.0398
   43RES   H10611950   6.692   1.307   1.961 -1.2641  1.0429 -0.1942
   43RES   H10711951   6.801   1.428   1.886 -0.4330 -0.7320 -1.2363
   43RES   H10811952   6.512   1.488   1.868 -0.2801  0.1144 -0.1134
   43RES   H10911953   6.519   1.233   1.838 -3.8765  1.0790  0.2097
   43RES   H11011954   6.652   1.256   1.735 -0.0583 -0.8277  1.4848
   43RES   H11111955   6.344   1.165   1.545  0.4092  0.1980 -1.0722
   43RES   H11211956   6.392   1.108   1.700 -0.6652  0.7287  1.0148
   43RES   H11311957   6.510   1.123   1.568 -0.4673 -0.2982 -0.1861
   43RES   O11411958   6.656   1.527   1.727  0.7598  0.4711 -0.1171
   43RES   C11511959   6.550   1.599   1.664 -0.1952  0.1819  0.5073
   43RES   C11611960   6.613   1.724   1.587  0.3692 -0.3794 -0.4026
   43RES   C11711961   6.529   1.775   1.465 -0.3634  0.2948 -0.3940
   43RES   O11811962   6.595   1.862   1.382 -0.4261 -0.0102 -0.1129
   43RES   C11911963   6.629   1.984   1.447 -0.1881 -0.2803  0.0587
   43RES   H12011964   6.507   1.537   1.586 -1.2728  1.8002 -0.2090
   43RES   H12111965   6.474   1.627   1.737 -1.2526 -0.0891 -0.4843
   43RES   H12211966   6.709   1.700   1.541  1.4282  2.3116  0.3385
   43RES   H12311967   6.515   1.690   1.398  0.3837 -0.0142 -0.1599
   43RES   H12411968   6.435   1.821   1.498 -0.6644 -0.7098  0.1688
   43RES   H12511969   6.533   2.029   1.473  0.8724  2.8185 -1.2754
   43RES   H12611970   6.669   2.048   1.369 -1.5764  0.2077 -0.2697
   43RES   H12711971   6.699   1.981   1.530  0.5312  0.1495 -0.5347
   43RES   O12811972   6.633   1.823   1.694  0.3908 -0.6016 -0.2121
   43RES   C12911973   6.746   1.813   1.784  0.2459  0.0795  0.5012
   43RES   C13011974   6.888   1.811   1.708  0.4024 -0.3809 -0.0020
   43RES   C13111975   7.011   1.788   1.795 -0.8620  0.8733 -0.3349
   43RES   O13211976   7.117   1.739   1.716 -0.5138  0.0771  0.2720
   43RES   C13311977   7.241   1.763   1.778 -0.3274 -0.2596 -0.3763
   43RES   H13411978   6.753   1.894   1.857 -0.0435  1.7160 -1.2455
   43RES   H13511979   6.737   1.730   1.855 -1.7984  0.8029  1.1267
   43RES   H13611980   6.892   1.730   1.636 -0.9032 -1.7560  1.4452
   43RES   H13711981   6.989   1.722   1.879  2.8414 -1.5253 -1.1488
   43RES   H13811982   7.022   1.886   1.842 -0.9004  0.9323 -0.4499
   43RES   H13911983   7.273   1.695   1.857  0.3377  0.3261 -0.1261
   43RES   H14011984   7.309   1.728   1.701  0.4677  3.7878 -1.6281
   43RES   H14111985   7.246   1.871   1.797 -0.9424 -0.4174  0.7233
   43RES   O14211986   6.898   1.946   1.646  0.2713 -0.0230  0.3023
   43RES   C14311987   6.976   1.958   1.534  0.1961  0.5412 -0.9895
   43RES   C14411988   6.964   2.113   1.506  0.0520 -0.3316 -1.1384
   43RES   C14511989   6.984   2.147   1.357 -0.5832 -0.2897  0.2731
   43RES   O14611990   6.941   2.278   1.325 -0.1369 -0.3589 -0.5108
   43RES   C14711991   6.978   2.304   1.185 -0.1005 -0.1755  0.4770
   43RES   H14811992   7.079   1.923   1.540  0.0645  0.0371 -1.7059
   43RES   H14911993   6.924   1.894   1.463 -0.9989 -0.8700  1.0981
   43RES   H15011994   6.861   2.144   1.526  1.1410  0.7304  3.5206
   43RES   H15111995   6.920   2.077   1.303 -0.3265  0.7599 -1.4138
   43RES   H15211996   7.083   2.124   1.317 -0.4238 -0.2285  0.6268
   43RES   H15311997   7.084   2.307   1.161 -0.7763  0.9939 -2.5559
   43RES   H15411998   6.945   2.404   1.156  1.4406  0.2253  0.0887
   43RES   H15511999   6.936   2.227   1.120 -2.1050  2.0964 -1.0049
   43RES   O15612000   7.063   2.180   1.587  0.0003 -0.2823  0.7519
   43RES   C15712001   7.006   2.267   1.684 -0.3335 -0.1909  0.5262
   43RES   C15812002   7.116   2.332   1.768  0.1292  0.6062  0.0817
   43RES   C15912003   7.059   2.413   1.879 -0.3452 -0.4922 -0.3432
   43RES   O16012004   7.156   2.491   1.946 -0.7494  0.1851  0.5947
   43RES   C16112005   7.253   2.417   2.011  0.0595  0.0251 -0.9843
   43RES   H16212006   6.932   2.336   1.644  0.0621  0.9514  1.7118
   43RES   H16312007   6.944   2.211   1.754 -0.7865 -1.7202 -1.0580
   43RES   H16412008   7.191   2.259   1.797 -0.6089  0.6143  2.0787
   43RES   H16512009   7.000   2.497   1.843  0.4484  0.9374  1.6011
   43RES   H16612010   7.004   2.349   1.948  1.0221  0.5437  1.7632
   43RES   H16712011   7.203   2.338   2.066 -0.5059  1.3690  0.5012
   43RES   H16812012   7.295   2.485   2.086 -0.1082 -1.1198  0.1611
   43RES   H16912013   7.338   2.379   1.955  0.2865 -0.2798 -0.4381
   43RES   O17012014   7.182   2.432   1.679  0.2887  0.1086  0.3430
   43RES   C17112015   7.302   2.378   1.611 -0.3296  0.1069 -0.6976
   43RES   C17212016   7.381   2.487   1.537 -0.0891  0.8183  0.3398
   43RES   C17312017   7.469   2.425   1.430  0.3814  0.0821 -0.3114
   43RES   O17412018   7.566   2.342   1.490  0.0921 -0.3911  0.2170
   43RES   C17512019   7.667   2.306   1.400  0.1242 -0.2852 -0.1513
   43RES   H17612020   7.271   2.294   1.548  2.8321 -0.8149 -1.0802
   43RES   H17712021   7.360   2.344   1.696  1.1715  2.8855 -0.5445
   43RES   H17812022   7.311   2.558   1.492 -0.1192 -0.1754 -1.2094
   43RES   H17912023   7.394   2.370   1.373  1.1531 -0.5067 -0.7580
   43RES   H18012024   7.506   2.505   1.366 -1.1497  1.7398  0.8294
   43RES   H18112025   7.618   2.262   1.313 -1.0305  0.5968  0.0412
   43RES   H18212026   7.738   2.229   1.431  1.0308  1.7703  3.1050
   43RES   H18312027   7.719   2.397   1.373  0.0583  0.5073  2.2448
   43RES   O18412028   7.462   2.567   1.627 -0.4636  0.3889  0.2321
   43RES   C18512029   7.383   2.652   1.710  0.5384  0.2092 -0.5043
   43RES   C18612030   7.466   2.750   1.797 -0.5569 -0.5569 -0.1330
   43RES   C18712031   7.534   2.863   1.721  0.2194  0.0258  0.6198
   43RES   O18812032   7.590   2.966   1.801 -0.0969 -0.5009  0.0093
   43RES   C18912033   7.709   3.021   1.743 -0.2401 -0.1372  0.6263
   43RES   H19012034   7.321   2.591   1.775  1.1277 -0.3840 -0.4878
   43RES   H19112035   7.319   2.708   1.641 -0.5073  1.0030  1.0842
   43RES   H19212036   7.390   2.792   1.862  0.4476 -1.2480  1.5060
   43RES   H19312037   7.471   2.911   1.646 -1.0740  0.7283  2.1300
   43RES   H19412038   7.611   2.814   1.661  0.4193 -2.3416  2.7318
   43RES   H19512039   7.698   3.053   1.640 -3.7674 -1.2238  0.6004
   43RES   H19612040   7.734   3.104   1.809 -0.6965  0.9851 -0.5962
   43RES   H19712041   7.790   2.948   1.739 -0.4698 -0.3311 -0.5076
   43RES   O19812042   7.571   2.680   1.860 -0.6798 -0.0332  0.2751
   43RES   C19912043   7.540   2.596   1.963 -0.2356 -0.3442  0.1633
   43RES   C20012044   7.662   2.582   2.056  0.1344 -0.8470 -0.3315
   43RES   C20112045   7.640   2.472   2.169 -0.0764 -0.3627 -0.7745
   43RES   O20212046   7.667   2.343   2.130  0.5712 -0.1366  0.1779
   43RES   C20312047   7.808   2.311   2.145  0.4294  0.4075 -0.5390
   43RES   H20412048   7.508   2.503   1.918 -0.2923 -0.3879  0.2922
   43RES   H20512049   7.456   2.636   2.020 -0.4547  1.2456 -1.2412
   43RES   H20612050   7.746   2.554   1.994  0.7269  1.9644 -0.8618
   43RES   H20712051   7.678   2.495   2.268 -0.4445 -3.1253  0.0284
   43RES   H20812052   7.535   2.481   2.196  0.1543 -0.4929  0.1582
   43RES   H20912053   0.025   2.318   2.248 -2.0595 -2.0237  0.5212
   43RES   H21012054   0.056   2.373   2.084 -0.4025  0.9675 -0.8512
   43RES   H21112055   0.012   2.207   2.118  0.6109  0.4317 -0.4941
   43RES   O21212056   7.702   2.691   2.145 -0.2944  1.2134 -0.0427
   43RES   C21312057   7.762   2.802   2.074  0.5714  0.5193 -0.9513
   43RES   C21412058   7.799   2.912   2.172 -0.0048  0.4750 -0.8322
   43RES   C21512059   0.036   3.037   2.106 -0.7239  0.0150  0.0824
   43RES   O21612060   0.034   3.159   2.190 -0.6139 -0.3056 -0.0162
   43RES   C21712061   0.086   3.274   2.130  0.2449  0.3780  0.0636
   43RES   H21812062   7.685   2.856   2.018 -0.5524 -0.2267 -0.1450
   43RES   H21912063   0.028   2.779   2.007  2.1552 -1.4223  1.6325
   43RES   H22012064   7.706   2.933   2.225 -0.1663 -1.0551 -0.4799
   43RES   H22112065   0.137   3.025   2.068 -0.2424 -2.3411  1.9772
   43RES   H22212066   7.787   3.064   2.023  1.8761  0.6827 -1.8345
   43RES   H22312067   0.054   3.282   2.027 -1.1626 -0.7647  0.3982
   43RES   H22412068   0.195   3.264   2.127  0.3196 -0.1004  2.6062
   43RES   H22512069   0.063   3.362   2.190  1.3584  0.1559  0.8522
   43RES   O22612070   0.092   2.880   2.257  0.5775 -0.3548  0.9053
   43RES   C22712071   0.059   2.806   2.379 -0.2113  0.6217 -0.3133
   43RES   C22812072   0.079   2.910   2.499  0.2509 -0.6525 -0.5694
   43RES   C22912073   0.045   2.838   2.633  0.0904 -0.4267  0.4176
   43RES   O23012074   0.070   2.928   2.747  0.0757 -0.3546  0.1073
   43RES   C23112075   0.089   2.858   2.865 -0.1322 -0.4319  0.8352
   43RES   H23212076   0.129   2.724   2.393 -0.8850  0.3513  1.6928
   43RES   H23312077   7.774   2.767   2.375 -0.2710  0.8248 -0.7387
   43RES   H23412078   0.004   2.987   2.486 -0.5451 -1.1581  0.8997
   43RES   H23512079   0.120   2.758   2.639  0.5985  0.1271  1.4416
   43RES   H23612080   7.762   2.794   2.640  0.0210 -0.3295  0.0746
   43RES   H23712081   0.003   2.793   2.883 -0.8280  0.1642 -0.2614
   43RES   H23812082   0.105   2.930   2.945  3.0883  0.4726 -0.5500
   43RES   H23912083   0.173   2.791   2.851  0.6337  0.8193 -0.6955
   43RES   O24012084   0.215   2.951   2.499  0.0906  0.0209  0.4919
   43RES   C24112085   0.233   3.092   2.484 -0.2882  0.1478 -0.5982
   43RES   C24212086   0.346   3.159   2.559 -0.3882 -0.0317  0.2951
   43RES   C24312087   0.399   3.067   2.677  0.6982  0.3133 -0.1525
   43RES   O24412088   0.523   3.111   2.729 -0.7357  0.6997 -0.3254
   43RES   C24512089   0.551   3.050   2.861  0.7466  0.3843  0.8189
   43RES   H24612090   0.143   3.143   2.519  0.8581 -0.0448  2.7944
   43RES   H24712091   0.239   3.113   2.377  0.7220 -0.8895 -0.7569
   43RES   H24812092   0.307   3.238   2.623 -1.1956 -0.8108  0.7769
   43RES   H24912093   0.329   3.064   2.761 -1.4045 -1.6474 -1.9424
   43RES   H25012094   0.410   2.967   2.636  1.0959 -0.4410  1.7396
   43RES   H25112095   0.579   2.945   2.852  0.2181  0.2554  0.6444
   43RES   H25212096   0.461   3.050   2.923 -1.2659  2.3289 -1.9748
   43RES   H25312097   0.637   3.100   2.906  0.8760  1.2896 -0.3992
   43RES   O25412098   0.454   3.191   2.474  0.4909 -0.2360  0.1143
   43RES   C25512099   0.434   3.312   2.401  0.2210  0.2067 -0.2589
   43RES   C25612100   0.544   3.341   2.301 -0.4678 -0.0006  0.4153
   43RES   C25712101   0.515   3.447   2.198  0.0521 -0.0958 -0.3928
   43RES   O25812102   0.627   3.468   2.113 -0.3685  0.4780 -0.0851
   43RES   C25912103   0.592   3.541   1.996 -0.1982 -0.0658  0.2140
   43RES   H26012104   0.341   3.299   2.347 -0.3884 -0.5231  0.9517
   43RES   H26112105   0.417   3.401   2.462 -1.1628  0.4372 -0.9730
   43RES   H26212106   0.590   3.253   2.257  2.3105  1.2833  0.6655
   43RES   H26312107   0.427   3.414   2.143 -0.0189  0.8739 -0.8867
   43RES   H26412108   0.497   3.544   2.246  1.3161  0.0563 -0.2094
   43RES   H26512109   0.684   3.576   1.948  0.0219 -1.9835 -0.8045
   43RES   H26612110   0.553   3.641   2.014  0.2386 -0.2212  2.1227
   43RES   H26712111   0.535   3.481   1.924 -0.1357  0.5273 -0.3356
   43RES   O26812112   0.653   3.390   2.380 -0.2769  0.4220 -0.0073
   43RES   C26912113   0.785   3.364   2.349  0.3475  0.0459  0.1257
   43RES   C27012114   0.876   3.466   2.424  0.2770 -0.3076  0.9016
   43RES   C27112115   1.022   3.441   2.387  0.1600 -0.5661  0.1759
   43RES   O27212116   1.096   3.562   2.408  0.4014  0.0987  0.1082
   43RES   C27312117   1.124   3.589   2.542 -0.3366  0.6005  0.2423
   43RES   H27412118   0.803   3.362   2.242 -1.8719 -1.4710 -0.2536
   43RES   H27512119   0.806   3.261   2.380  2.2944  0.6941  1.0066
   43RES   H27612120   0.850   3.568   2.397 -0.2309 -0.7364 -0.2705
   43RES   H27712121   1.020   3.415   2.281  1.7343  1.2200 -0.3271
   43RES   H27812122   1.068   3.359   2.442  2.0598  0.4219  0.1022
   43RES   H27912123   1.212   3.652   2.550  0.8777 -1.0595  0.3815
   43RES   H28012124   1.149   3.491   2.582  1.4612  1.4515  1.2313
   43RES   H28112125   1.035   3.624   2.594 -0.3464  1.3254 -0.2569
   43RES   H28212126   0.859   3.467   2.532  1.0952 -3.7238  1.1067
   44RES     O112127   6.447   0.276   7.643 -0.0240  0.3068 -0.4748
   44RES     C212128   6.551   0.209   7.581  0.5487 -0.1144  0.5338
   44RES     C312129   6.683   0.281   7.580  0.4808  0.1232  0.7995
   44RES     C412130   6.787   0.181   7.528 -1.0554  0.1089 -0.1061
   44RES     O512131   6.908   0.256   7.532 -0.0191 -0.1048  0.2563
   44RES     C612132   7.017   0.168   7.525  0.6245 -0.3746 -0.3670
   44RES     H712133   6.558   0.105   7.612  1.9087 -0.0824  0.3491
   44RES     H812134   6.525   0.187   7.477 -2.0603  1.0421  0.8993
   44RES     H912135   6.714   0.323   7.676 -1.1220  0.6593  1.1101
   44RES    H1012136   6.758   0.144   7.429 -0.8088  0.6264 -0.3725
   44RES    H1112137   6.797   0.086   7.580  0.2586 -0.8071 -1.9942
   44RES    H1212138   7.035   0.095   7.604  1.4762 -0.6584 -0.8090
   44RES    H1312139   7.028   0.121   7.427  0.1202  0.3482 -0.7719
   44RES    H1412140   7.094   0.245   7.520 -0.5878  0.8943  0.2861
   44RES    H1512141   6.471   0.249   7.730 -0.8714  2.4182  0.4491
   44RES    O1612142   6.678   0.374   7.476  0.1735 -0.3167 -0.0956
   44RES    C1712143   6.611   0.499   7.495 -0.3699  0.6244  0.2614
   44RES    C1812144   6.678   0.614   7.420  0.0058 -0.4588 -0.0876
   44RES    C1912145   6.584   0.728   7.387  0.3078 -0.0463 -0.0926
   44RES    O2012146   6.594   0.758   7.251  0.4913  0.2602 -0.0429
   44RES    C2112147   6.519   0.871   7.225 -0.7374 -1.1244  0.0365
   44RES    H2212148   6.600   0.527   7.600 -1.6307 -0.0643  0.3171
   44RES    H2312149   6.507   0.479   7.469 -0.7253  2.7564 -0.1192
   44RES    H2412150   6.711   0.571   7.326  2.0946  0.7378  0.0575
   44RES    H2512151   6.484   0.692   7.409  0.4582  0.5611  1.6653
   44RES    H2612152   6.599   0.817   7.448  1.7787  0.8877 -1.7626
   44RES    H2712153   6.531   0.902   7.121  1.7784  1.0704  0.9031
   44RES    H2812154   6.560   0.956   7.280 -1.3921 -0.0791 -1.0520
   44RES    H2912155   6.412   0.857   7.235 -0.4019 -2.1052  2.5004
   44RES    O3012156   6.791   0.669   7.487  0.1061 -0.5137 -0.2498
   44RES    C3112157   6.871   0.592   7.576  0.1943 -0.4799 -0.0249
   44RES    C3212158   6.999   0.663   7.612 -0.3052  0.1467 -0.0169
   44RES    C3312159   7.080   0.591   7.708 -0.4329 -0.1363  0.0500
   44RES    O3412160   7.221   0.618   7.676 -0.4927 -0.1954  0.0831
   44RES    C3512161   7.297   0.553   7.776  0.4987 -0.9804  0.0130
   44RES    H3612162   6.820   0.570   7.670 -0.7980 -0.3545 -0.5245
   44RES    H3712163   6.895   0.497   7.528  0.2747 -0.8814  0.7938
   44RES    H3812164   7.055   0.681   7.520  0.4858  1.1008  0.6389
   44RES    H3912165   7.074   0.483   7.696 -0.4023 -0.0190 -1.0309
   44RES    H4012166   7.055   0.622   7.809  1.2747  3.1305 -0.4794
   44RES    H4112167   7.252   0.552   0.058  0.8920 -0.1749  0.2081
   44RES    H4212168   7.395   0.602   7.772 -0.9443  2.0513  0.2725
   44RES    H4312169   7.308   0.451   7.738  2.1415 -0.3906 -1.1635
   44RES    O4412170   6.961   0.787   7.669 -0.1515  0.0237 -0.3421
   44RES    C4512171   7.065   0.888   7.640 -0.4524 -0.0309 -0.3146
   44RES    C4612172   7.049   1.021   7.715  0.2303 -0.3786 -0.1923
   44RES    C4712173   6.907   1.085   7.711  0.4911 -0.4401  0.2039
   44RES    O4812174   6.929   1.219   7.716  0.4372  0.1073  0.4974
   44RES    C4912175   6.815   1.291   7.686  0.6613 -0.6785 -0.3954
   44RES    H5012176   7.067   0.903   7.532  0.8698  1.9288 -0.0418
   44RES    H5112177   7.165   0.848   7.656  0.2315  0.6662 -2.5942
   44RES    H5212178   7.111   1.092   7.661  1.6325 -2.5348 -1.4878
   44RES    H5312179   6.861   1.057   7.616  0.6165 -0.1224  0.0493
   44RES    H5412180   6.846   1.034   7.786  0.4924  1.2223  1.3454
   44RES    H5512181   6.756   1.306   7.776  2.3390  0.7122  0.5096
   44RES    H5612182   6.765   1.258   7.595  0.2060  1.1432 -0.8220
   44RES    H5712183   6.846   1.394   7.668 -1.7251  0.0911 -0.2201
   44RES    O5812184   7.096   0.982   0.030  0.2036 -0.3753 -0.0529
   44RES    C5912185   7.140   1.090   0.109 -0.1409 -0.2950 -0.6802
   44RES    C6012186   7.207   1.031   0.235  0.0952  0.0696  1.0962
   44RES    C6112187   7.183   1.095   0.375  0.2598 -0.3156 -0.3221
   44RES    O6212188   7.204   1.233   0.363  0.1392 -0.4695  0.0697
   44RES    C6312189   7.182   1.307   0.482  0.3945 -0.7135  0.0714
   44RES    H6412190   7.054   1.154   0.128  0.1423  0.1053 -0.7309
   44RES    H6512191   7.217   1.142   0.052  3.0338  1.3521  4.7817
   44RES    H6612192   7.158   0.935   0.247 -2.8129  1.5516  1.6529
   44RES    H6712193   7.085   1.075   0.419  0.4327  0.6953  0.5443
   44RES    H6812194   7.255   1.051   0.444  1.2542  2.0525  0.1943
   44RES    H6912195   7.253   1.261   0.551  0.0053  0.1242  1.0416
   44RES    H7012196   7.083   1.302   0.526  1.1086  1.9427  2.0875
   44RES    H7112197   7.212   1.410   0.462 -0.0292 -0.5442  0.3197
   44RES    O7212198   7.347   1.025   0.213  0.1129 -0.2491 -0.0941
   44RES    C7312199   7.395   0.904   0.154 -0.2028 -0.0068 -0.2017
   44RES    C7412200   7.543   0.879   0.196  1.1660  0.6617 -0.0531
   44RES    C7512201   7.587   0.733   0.159 -0.6948 -0.2383  0.2781
   44RES    O7612202   7.721   0.717   0.130  0.5072  0.0385 -0.3697
   44RES    C7712203   7.778   0.587   0.106 -0.7591  0.0853 -0.2499
   44RES    H7812204   7.346   0.814   0.190  1.6408 -1.9394 -2.3371
   44RES    H7912205   7.379   0.906   0.047 -0.6019  2.2052 -0.1225
   44RES    H8012206   7.599   0.948   0.133  1.0655 -0.9773 -1.9885
   44RES    H8112207   7.542   0.708   0.063 -2.0247  0.4709  0.7017
   44RES    H8212208   7.557   0.665   0.238  3.2375 -1.6121  0.7191
   44RES    H8312209   7.769   0.563   0.001  2.5310 -0.7957 -0.3886
   44RES    H8412210   7.722   0.516   0.167 -1.4199  1.4810  0.8109
   44RES    H8512211   0.065   0.586   0.140 -0.5218  1.9454 -0.8857
   44RES    O8612212   7.554   0.884   0.343  0.1474 -0.3000 -0.0185
   44RES    C8712213   7.598   1.011   0.384  0.3675  0.0741 -0.3851
   44RES    C8812214   7.620   1.004   0.539 -0.1700  0.8267  0.6919
   44RES    C8912215   7.669   1.133   0.606  0.8494  0.3341  0.2608
   44RES    O9012216   7.766   1.108   0.705  0.1019 -0.1930  0.3282
   44RES    C9112217   7.793   1.215   0.792 -0.3662 -0.6414 -0.2105
   44RES    H9212218   7.682   1.057   0.331  0.5408 -0.2474 -0.3875
   44RES    H9312219   7.508   1.067   0.360  0.0775 -0.7728 -1.3012
   44RES    H9412220   7.692   0.923   0.544 -1.8636 -0.7187  0.8210
   44RES    H9512221   7.704   1.198   0.526 -0.7007 -0.2307 -0.8996
   44RES    H9612222   7.586   1.195   0.639  0.5917  0.2917 -0.2991
   44RES    H9712223   0.009   1.291   0.721  0.5404 -1.3660 -0.5720
   44RES    H9812224   7.711   1.256   0.851 -0.4389 -0.7035 -0.2688
   44RES    H9912225   0.052   1.203   0.870 -0.1198  3.1891  0.2453
   44RES   O10012226   7.499   0.970   0.592  0.0784 -0.6696 -0.1770
   44RES   C10112227   7.505   0.909   0.722 -0.3259  0.2115  0.3925
   44RES   C10212228   7.387   0.811   0.738  0.2842  0.7726  0.8350
   44RES   C10312229   7.360   0.780   0.887  0.0692 -0.1289  0.1105
   44RES   O10412230   7.284   0.897   0.934 -0.0788 -0.1031  0.0210
   44RES   C10512231   7.291   0.931   1.070 -0.5353  0.2559 -0.3257
   44RES   H10612232   7.499   0.989   0.797  2.8454  0.2683  0.6483
   44RES   H10712233   7.600   0.861   0.744 -1.4382 -1.9226  0.6704
   44RES   H10812234   7.298   0.851   0.689  1.2106  0.9500 -0.7373
   44RES   H10912235   7.448   0.774   0.951 -0.9675 -0.2214  1.5581
   44RES   H11012236   7.297   0.691   0.900  0.0172 -0.1042  0.0259
   44RES   H11112237   7.222   1.011   1.097  0.3459  1.0699 -0.4526
   44RES   H11212238   7.388   0.952   1.117  0.0428 -3.3026  0.1941
   44RES   H11312239   7.260   0.850   1.137 -1.5316  1.3521  0.5613
   44RES   O11412240   7.414   0.678   0.683  0.3174 -0.2604  0.3189
   44RES   C11512241   7.435   0.669   0.543 -0.3750 -0.3468  0.2573
   44RES   C11612242   7.438   0.517   0.516  0.0630 -0.5894 -0.1700
   44RES   C11712243   7.524   0.439   0.619  0.2859 -0.0503 -0.1983
   44RES   O11812244   7.583   0.310   0.576  0.3554 -0.2513 -0.2257
   44RES   C11912245   7.514   0.193   0.597  0.2453 -0.3410  0.4571
   44RES   H12012246   7.367   0.725   0.478  2.0089  0.5632 -1.5101
   44RES   H12112247   7.535   0.702   0.516  0.0126 -1.4887  0.3107
   44RES   H12212248   7.478   0.499   0.417  0.5206 -2.4879  0.3433
   44RES   H12312249   7.617   0.494   0.636 -0.7384  1.6034  0.1665
   44RES   H12412250   7.478   0.427   0.717  0.6089  2.7011  0.3194
   44RES   H12512251   7.425   0.182   0.535 -0.7880  0.4356  1.7873
   44RES   H12612252   7.490   0.182   0.702 -1.8531 -1.8195 -0.1530
   44RES   H12712253   7.583   0.111   0.579  0.2713 -0.1447 -0.3582
   44RES   O12812254   7.303   0.478   0.525  0.0704 -0.0464 -0.1525
   44RES   C12912255   7.252   0.443   0.395 -0.0902  0.3776  0.4135
   44RES   C13012256   7.103   0.431   0.362  0.3786 -0.0004  0.2689
   44RES   C13112257   7.082   0.353   0.232 -0.3657  0.4127  0.1518
   44RES   O13212258   6.946   0.325   0.224  0.2165  0.1707  0.1477
   44RES   C13312259   6.864   0.398   0.125  0.0276 -0.5113 -0.7009
   44RES   H13412260   7.290   0.518   0.325  0.3113  0.4631  0.7229
   44RES   H13512261   7.302   0.357   0.351  0.3533  0.6314  0.4165
   44RES   H13612262   7.063   0.374   0.446  0.1392  0.1354  0.2508
   44RES   H13712263   7.126   0.256   0.256  1.4388  1.5166  1.4958
   44RES   H13812264   7.126   0.399   0.143 -0.5871  0.1869 -0.0740
   44RES   H13912265   6.761   0.364   0.132 -0.4754  1.2741  1.0904
   44RES   H14012266   6.864   0.504   0.149  0.6102 -0.6301 -0.1430
   44RES   H14112267   6.884   0.384   0.019  0.1694 -0.1423 -0.7224
   44RES   O14212268   7.063   0.570   0.347  0.6014  0.0387  0.6444
   44RES   C14312269   6.995   0.628   0.460 -0.2928  0.7049  0.3046
   44RES   C14412270   6.950   0.772   0.422 -0.8214 -0.0846 -0.5092
   44RES   C14512271   6.888   0.837   0.542 -0.4172  0.1247 -0.1737
   44RES   O14612272   6.840   0.968   0.512  0.5107 -0.0767  1.1231
   44RES   C14712273   6.715   1.004   0.568 -0.3635  0.2905  0.2829
   44RES   H14812274   6.908   0.570   0.489  0.2069  0.8112  2.0616
   44RES   H14912275   7.055   0.631   0.551 -2.0139  1.4382  1.4371
   44RES   H15012276   7.035   0.825   0.380 -1.8639  0.9866 -1.3405
   44RES   H15112277   6.966   0.832   0.618 -0.2293  0.9921 -0.3084
   44RES   H15212278   6.814   0.776   0.594  1.2762 -0.2033  1.8967
   44RES   H15312279   6.639   0.930   0.542  0.1063 -0.8576  2.0773
   44RES   H15412280   6.694   1.095   0.512  1.5524 -0.6267 -2.0423
   44RES   H15512281   6.712   1.009   0.677  0.7149  0.7950  0.2995
   44RES   O15612282   6.840   0.764   0.333  0.2430  0.3261  0.1718
   44RES   C15712283   6.876   0.805   0.202  0.2759 -0.1506 -0.0101
   44RES   C15812284   6.741   0.836   0.135 -0.2810 -0.3817 -0.1008
   44RES   C15912285   6.675   0.970   0.184 -1.0201 -0.5609 -0.4630
   44RES   O16012286   6.596   1.040   0.081 -0.8254  0.2108 -0.7743
   44RES   C16112287   6.498   1.123   0.143 -0.7753  0.2418  0.7677
   44RES   H16212288   6.934   0.897   0.208  0.8963 -0.7011  2.7104
   44RES   H16312289   6.933   0.735   0.141 -1.3713  0.7081 -2.6320
   44RES   H16412290   6.765   0.857   0.030 -0.6620 -2.0810 -0.5403
   44RES   H16512291   6.608   0.937   0.264 -1.0681 -2.3131 -1.2068
   44RES   H16612292   6.753   1.036   0.221 -1.1562  0.1116 -1.3582
   44RES   H16712293   6.436   1.061   0.209 -0.1930  0.2009  1.2832
   44RES   H16812294   6.437   1.167   0.064 -0.0585 -1.9117 -1.0336
   44RES   H16912295   6.549   1.205   0.195  0.4922  1.2771 -2.0403
   44RES   O17012296   6.654   0.724   0.129  0.5106  0.1317  0.2216
   44RES   C17112297   6.523   0.741   0.080 -0.3268  1.0334 -0.9397
   44RES   C17212298   6.434   0.629   0.130  1.2915  0.2245  0.0157
   44RES   C17312299   6.310   0.614   0.037 -0.4669 -0.4233 -0.3644
   44RES   O17412300   6.243   0.495   0.061  0.1084 -0.0435 -0.3929
   44RES   C17512301   6.105   0.499   0.009 -0.1008  0.1419  0.2114
   44RES   H17612302   6.521   0.730   7.789 -1.7705 -0.0350 -0.8137
   44RES   H17712303   6.475   0.832   0.117  1.1296  1.7462 -0.7770
   44RES   H17812304   6.494   0.538   0.124 -3.5466 -3.1373 -0.2006
   44RES   H17912305   6.242   0.696   0.060  0.4111  0.2766 -0.2475
   44RES   H18012306   6.336   0.634   7.750  1.4562 -0.9258  0.0099
   44RES   H18112307   6.099   0.547   7.729  2.4506  1.2400  0.5325
   44RES   H18212308   6.052   0.554   0.087  1.1069  2.5576 -0.6173
   44RES   H18312309   6.069   0.396   0.009  0.5105 -0.0779 -0.4371
   44RES   O18412310   6.369   0.642   0.260  0.3629  0.6631  0.1190
   44RES   C18512311   6.464   0.640   0.371  0.2788  0.1697  0.3609
   44RES   C18612312   6.383   0.628   0.505 -0.4065  0.6404  0.0542
   44RES   C18712313   6.461   0.652   0.631 -0.2919  0.5218 -0.7468
   44RES   O18812314   6.381   0.647   0.750  0.0181  0.3736 -0.0091
   44RES   C18912315   6.284   0.753   0.757 -0.4597 -0.4019  0.7162
   44RES   H19012316   6.531   0.725   0.377  0.6115  0.5022 -5.5529
   44RES   H19112317   6.519   0.547   0.358 -1.5683 -0.5500 -2.8972
   44RES   H19212318   6.293   0.689   0.497  0.9106  2.6803  0.5000
   44RES   H19312319   6.510   0.750   0.632  0.8126 -0.0305  0.4118
   44RES   H19412320   6.542   0.580   0.640  0.0048  1.2179  3.1708
   44RES   H19512321   6.241   0.743   0.856  0.9860 -0.7773  1.3256
   44RES   H19612322   6.330   0.852   0.751  0.0753 -0.7230 -0.9700
   44RES   H19712323   6.203   0.748   0.685  0.5472 -3.1213 -0.3072
   44RES   O19812324   6.356   0.486   0.523 -0.3075 -0.0047  0.5144
   44RES   C19912325   6.258   0.430   0.431  0.3869 -0.0273 -0.1199
   44RES   C20012326   6.206   0.299   0.491  0.4876 -0.4685  0.1962
   44RES   C20112327   6.170   0.325   0.637  0.0929 -0.3855  0.5046
   44RES   O20212328   6.071   0.245   0.700  0.5534  0.7712 -0.2739
   44RES   C20312329   6.066   0.259   0.844  0.9630 -0.1159 -0.1899
   44RES   H20412330   6.298   0.414   0.330 -0.5891  3.6254 -1.1783
   44RES   H20512331   6.177   0.503   0.426  0.6342  0.3406  1.1014
   44RES   H20612332   6.114   0.272   0.438  1.5727 -2.9527 -0.4812
   44RES   H20712333   6.260   0.284   0.684 -0.6777 -2.1684  0.4865
   44RES   H20812334   6.169   0.430   0.664  0.4953 -0.6129  1.4368
   44RES   H20912335   6.165   0.253   0.891  1.5009  0.8586 -1.1740
   44RES   H21012336   5.995   0.189   0.887 -1.2747  3.8440  2.8191
   44RES   H21112337   6.023   0.356   0.867 -1.5784 -1.7692  2.2883
   44RES   O21212338   6.301   0.199   0.467  0.1749 -0.2359  0.1557
   44RES   C21312339   6.307   0.145   0.336  0.1844  0.3490  0.2467
   44RES   C21412340   6.448   0.160   0.281  0.4481 -0.2851 -0.5063
   44RES   C21512341   6.446   0.110   0.136 -0.5201 -0.2491  0.1703
   44RES   O21612342   6.552   0.167   0.064 -0.4336  0.1112  0.7508
   44RES   C21712343   6.674   0.087   0.073  0.7266 -0.2343  0.2950
   44RES   H21812344   6.244   0.210   0.276 -0.8609 -0.1402  0.8012
   44RES   H21912345   6.279   0.040   0.331  0.6996  0.2042  0.3226
   44RES   H22012346   6.475   0.265   0.286 -0.7204  0.0068 -0.0739
   44RES   H22112347   6.449   0.002   0.119 -0.4101 -0.0530 -1.1212
   44RES   H22212348   6.355   0.150   0.092 -0.9502 -1.3140  0.0669
   44RES   H22312349   6.660   7.800   0.045  3.3244 -0.1363 -1.6009
   44RES   H22412350   6.719   0.104   0.171 -0.0508 -2.3671  1.0330
   44RES   H22512351   6.735   0.115   7.804 -1.2693  1.9121 -0.4942
   44RES   O22612352   6.544   0.068   0.339 -0.2295  0.3574  0.1880
   44RES   C22712353   6.609   0.112   0.458  0.9638 -0.1249 -0.1318
   44RES   C22812354   6.702   0.003   0.512  0.3063  0.0253  0.0369
   44RES   C22912355   6.636   7.678   0.523  0.2378 -0.1008  0.2478
   44RES   O23012356   6.692   7.618   0.640 -0.2127 -0.9516  0.4612
   44RES   C23112357   6.635   7.486   0.664  0.3224  0.2664 -0.0088
   44RES   H23212358   6.533   0.139   0.532 -1.3177 -1.3709 -1.9224
   44RES   H23312359   6.665   0.202   0.434  1.5026 -0.8464 -1.6591
   44RES   H23412360   6.734   0.023   0.614  0.9468 -1.1360  0.0690
   44RES   H23512361   6.660   7.637   0.425  0.4056 -0.3659  0.3983
   44RES   H23612362   6.529   7.675   0.539  0.2025  0.8602  0.2210
   44RES   H23712363   6.630   7.422   0.575  1.2995 -0.0985  0.1968
   44RES   H23812364   6.530   7.493   0.693 -0.1048 -2.0210 -0.8530
   44RES   H23912365   6.681   7.422   0.739  2.1415  2.0228  0.3906
   44RES   O24012366   6.821   0.005   0.431 -0.0256  0.0368  0.1726
   44RES   C24112367   6.946   7.778   0.494 -0.6301  0.2189  0.1509
   44RES   C24212368   7.066   7.789   0.399  0.1644  0.0194  0.0759
   44RES   C24312369   7.203   7.769   0.480 -0.3149 -0.7320 -0.0355
   44RES   O24412370   7.322   7.805   0.410  0.3696  0.2567 -0.4221
   44RES   C24512371   7.402   7.695   0.379  1.0640  0.7252  0.3929
   44RES   H24612372   6.933   7.673   0.519  0.4744  0.0962  0.2038
   44RES   H24712373   6.961   0.019   0.585  1.2895 -2.1860  1.4291
   44RES   H24812374   7.064   0.075   0.364 -0.9637  1.0337  2.9912
   44RES   H24912375   7.198   0.020   0.565  0.6793 -1.8651  0.9371
   44RES   H25012376   7.204   7.665   0.512 -1.9144 -0.9720 -0.6883
   44RES   H25112377   7.501   7.726   0.346  1.1313  1.6520  1.4433
   44RES   H25212378   7.356   7.632   0.303  2.1534  0.6295 -0.2014
   44RES   H25312379   7.433   7.641   0.469 -0.1178  1.8333  1.4972
   44RES   O25412380   7.063   7.688   0.300 -0.3830  0.0559  0.5365
   44RES   C25512381   6.998   7.737   0.182 -0.1485  0.0807 -0.5820
   44RES   C25612382   7.054   7.663   0.058 -0.5780  0.0275 -0.5459
   44RES   C25712383   6.945   7.620   7.787  0.2501  0.4671 -0.2943
   44RES   O25812384   7.002   7.532   7.687 -0.0439 -0.4309  0.0178
   44RES   C25912385   6.907   7.438   7.633 -0.6819 -0.1303  0.5384
   44RES   H26012386   6.891   7.719   0.191 -0.3216  2.0215  2.1248
   44RES   H26112387   7.008   0.026   0.158  0.6917  0.1567  0.0602
   44RES   H26212388   7.110   7.574   0.088 -0.0737  0.0467 -1.4314
   44RES   H26312389   6.870   7.571   0.032  2.1304  0.1274  1.7896
   44RES   H26412390   6.900   7.710   7.745  0.1723  0.6137  0.1031
   44RES   H26512391   6.840   7.481   7.559  3.6999 -0.9588 -4.1667
   44RES   H26612392   6.848   7.396   7.714 -0.6092 -2.0158 -0.3590
   44RES   H26712393   6.960   7.360   7.579 -0.3049  0.1310  0.5316
   44RES   O26812394   7.149   7.750   7.804  0.5865 -0.0104 -0.0565
   44RES   C26912395   7.273   7.769   0.054  1.0162  0.8506 -0.3319
   44RES   C27012396   7.369   0.019   7.779 -0.7710 -0.3870 -0.2505
   44RES   C27112397   7.482   0.089   0.036 -0.1825 -0.3653 -0.5412
   44RES   O27212398   7.577   0.129   7.753 -0.1422 -0.3126 -1.1011
   44RES   C27312399   7.684   0.202   7.800 -0.1623  0.3904  0.3430
   44RES   H27412400   7.312   7.671   0.084 -2.3328  0.0443  1.6263
   44RES   H27512401   7.262   0.024   0.136  0.9957  1.3049 -0.7354
   44RES   H27612402   7.418   7.758   7.722  0.5397  0.5553 -0.4312
   44RES   H27712403   7.530   0.024   0.109 -1.6654 -0.9868 -0.1107
   44RES   H27812404   7.453   0.171   0.101  1.6346 -1.2083  1.4025
   44RES   H27912405   7.748   0.143   0.048 -1.8230 -1.1377  0.6074
   44RES   H28012406   7.669   0.293   0.041  2.6154 -0.3823  2.3891
   44RES   H28112407   7.761   0.216   7.723  1.0531  2.7669  1.9110
   44RES   H28212408   7.329   0.096   7.714  1.9098 -0.7006 -2.3572
   45RES     O112409   0.978   1.635   2.188  0.0680 -0.4804 -0.6836
   45RES     C212410   0.943   1.748   2.263 -0.2706 -0.1607  0.9450
   45RES     C312411   0.789   1.735   2.295 -0.2247  0.0767 -0.3080
   45RES     C412412   0.746   1.826   2.412 -0.3151 -0.0864 -0.2494
   45RES     O512413   0.619   1.783   2.452 -1.0644  0.6781 -0.1860
   45RES     C612414   0.568   1.850   2.567 -0.3024 -0.6032  0.1240
   45RES     H712415   1.012   1.754   2.347 -0.3385  1.1348  0.9184
   45RES     H812416   0.954   1.841   2.206 -1.1347  0.4372  1.7367
   45RES     H912417   0.757   1.635   2.324 -0.0312 -0.0343 -0.4711
   45RES    H1012418   0.750   1.931   2.382  2.2213 -0.5637 -1.7068
   45RES    H1112419   0.808   1.815   2.501  2.2951 -0.5086 -2.0456
   45RES    H1212420   0.542   1.955   2.552  0.0051 -0.2701  1.8676
   45RES    H1312421   0.473   1.807   2.598 -0.9999  0.5061 -0.4599
   45RES    H1412422   0.625   1.836   2.659  0.2604 -0.1875 -0.1554
   45RES    H1512423   0.899   1.612   2.141 -0.4201  0.7772 -0.4962
   45RES    O1612424   0.725   1.765   2.174  0.0708  0.4006  0.2900
   45RES    C1712425   0.588   1.726   2.157 -0.5918 -0.3127  0.7391
   45RES    C1812426   0.560   1.698   2.006  1.0985  0.7456  0.5888
   45RES    C1912427   0.591   1.827   1.926 -0.1204 -0.0550  0.2608
   45RES    O2012428   0.549   1.799   1.791 -0.0723 -0.4975 -0.5506
   45RES    C2112429   0.616   1.884   1.695 -0.7237 -0.5509 -0.4521
   45RES    H2212430   0.528   1.813   2.184  0.8340  2.0713 -3.2691
   45RES    H2312431   0.566   1.641   2.221  0.3050  0.9658  2.7976
   45RES    H2412432   0.453   1.684   1.992  1.6601 -1.8730 -1.4601
   45RES    H2512433   0.522   1.904   1.962 -0.2069  0.6447 -1.3763
   45RES    H2612434   0.693   1.864   1.937  0.3957 -1.5649  0.6804
   45RES    H2712435   0.585   1.877   1.590  0.1471 -0.9713 -0.6840
   45RES    H2812436   0.719   1.848   1.694 -1.0966 -1.7021  1.4637
   45RES    H2912437   0.615   1.988   1.727  2.6638 -0.1760 -1.3403
   45RES    O3012438   0.615   1.569   1.963 -0.1359  0.2614 -0.2343
   45RES    C3112439   0.592   1.521   1.832 -0.0818 -0.8753 -0.4056
   45RES    C3212440   0.715   1.513   1.747 -0.4593  0.1997  0.3482
   45RES    C3312441   0.693   1.431   1.617  0.4669  0.2344  0.0449
   45RES    O3412442   0.802   1.445   1.530 -0.0452  0.7369 -0.6767
   45RES    C3512443   0.769   1.390   1.409  0.1000 -0.1469 -0.1897
   45RES    H3612444   0.547   1.423   1.846 -1.2788 -0.0966  1.5150
   45RES    H3712445   0.515   1.570   1.773 -0.0130 -0.1958  0.0577
   45RES    H3812446   0.758   1.612   1.729 -2.1144  1.2776  2.2067
   45RES    H3912447   0.601   1.469   1.572 -1.8494 -2.8471  1.9099
   45RES    H4012448   0.670   1.329   1.649 -1.8127  0.7408  0.1007
   45RES    H4112449   0.741   1.285   1.418 -1.4889  0.1155 -1.9261
   45RES    H4212450   0.857   1.391   1.344  1.8969 -1.5992  2.1128
   45RES    H4312451   0.681   1.440   1.370 -0.5269 -1.9895 -1.1769
   45RES    O4412452   0.796   1.439   1.829  0.3136 -0.2130  0.2137
   45RES    C4512453   0.930   1.451   1.819 -0.3410  0.4651 -0.1260
   45RES    C4612454   0.996   1.314   1.829 -0.3865  0.1404  0.0824
   45RES    C4712455   0.977   1.247   1.687 -0.2783 -0.3558  0.8987
   45RES    O4812456   0.972   1.104   1.698 -0.6526  0.3006 -0.5728
   45RES    C4912457   0.866   1.048   1.770  0.3265 -0.1862 -0.1209
   45RES    H5012458   0.974   1.508   1.901 -1.5257 -0.6693  1.3312
   45RES    H5112459   0.955   1.508   1.730 -0.2155  0.7729  0.1036
   45RES    H5212460   0.955   1.256   1.911 -0.3938  0.1609  0.0931
   45RES    H5312461   0.879   1.262   1.642  0.2760 -1.0068 -0.5408
   45RES    H5412462   1.062   1.280   1.627  0.8061 -1.0915  2.0032
   45RES    H5512463   0.908   1.045   1.871  2.7488  1.3798 -1.0199
   45RES    H5612464   0.836   0.948   1.739 -0.7713  0.5526 -1.4657
   45RES    H5712465   0.782   1.117   1.770 -0.4117 -1.0913 -2.0296
   45RES    O5812466   1.140   1.335   1.857  0.3158 -0.5238 -0.3136
   45RES    C5912467   1.216   1.218   1.894  1.0284 -0.0397  0.1763
   45RES    C6012468   1.334   1.251   1.989 -0.0130 -0.0445  0.1138
   45RES    C6112469   1.285   1.326   2.110  0.4387  0.1570 -0.1536
   45RES    O6212470   1.389   1.323   2.208  0.1347  0.5066 -0.0973
   45RES    C6312471   1.360   1.406   2.322  0.4249  0.2747  0.6901
   45RES    H6412472   1.233   1.165   1.800 -0.2108 -0.7007  0.3135
   45RES    H6512473   1.150   1.144   1.939  1.7439 -1.1106 -0.5043
   45RES    H6612474   1.386   1.160   2.019  1.6007  0.9320  0.3186
   45RES    H6712475   1.246   1.426   2.090 -1.7743 -0.7620 -0.5658
   45RES    H6812476   1.195   1.272   2.138  0.0816  1.1495  0.6552
   45RES    H6912477   1.398   1.343   2.403  2.4459  0.0892 -0.3735
   45RES    H7012478   1.255   1.435   2.330 -0.3108 -2.4031  1.0759
   45RES    H7112479   1.425   1.491   2.299  0.7345 -0.2409 -0.3513
   45RES    O7212480   1.429   1.333   1.911 -0.4497  0.3835  0.6597
   45RES    C7312481   1.511   1.268   1.814  0.1694  0.6905  0.3797
   45RES    C7412482   1.600   1.381   1.758  0.3538  0.1803 -0.3311
   45RES    C7512483   1.669   1.338   1.630 -0.1037  1.0562 -0.5733
   45RES    O7612484   1.679   1.454   1.539 -0.2516 -0.9047 -0.5500
   45RES    C7712485   1.765   1.426   1.428 -0.4385 -0.0323  0.8508
   45RES    H7812486   1.570   1.186   1.854  1.3914  0.0688 -2.5537
   45RES    H7912487   1.452   1.228   1.732 -1.3626  3.8154 -0.1342
   45RES    H8012488   1.540   1.468   1.733  2.6019  1.7751 -0.3457
   45RES    H8112489   1.612   1.264   1.573  0.8301  0.5522 -0.8609
   45RES    H8212490   1.757   1.277   1.650  0.7119  2.2573 -0.4570
   45RES    H8312491   1.865   1.399   1.464  0.2694  0.7304 -0.4949
   45RES    H8412492   1.768   1.514   1.364 -1.7282 -1.3856 -1.1241
   45RES    H8512493   1.723   1.348   1.364 -2.3159 -0.2635  2.3412
   45RES    O8612494   1.695   1.431   1.855 -0.0243  0.0951 -0.2005
   45RES    C8712495   1.639   1.505   1.961  0.4422 -0.3369  0.3347
   45RES    C8812496   1.759   1.584   2.022 -0.4419 -0.7416  0.0836
   45RES    C8912497   1.817   1.687   1.929  0.2101 -0.2400 -0.2833
   45RES    O9012498   1.914   1.763   1.997  0.1559  0.4976 -0.7534
   45RES    C9112499   1.962   1.874   1.929  0.3439  0.6439  0.1084
   45RES    H9212500   1.565   1.577   1.926  1.7729  2.1679  2.4902
   45RES    H9312501   1.601   1.431   2.032 -0.0159 -0.1044  0.3351
   45RES    H9412502   1.836   1.507   2.035 -2.1209 -2.2936  1.1028
   45RES    H9512503   1.862   1.651   1.836  0.4266 -0.0510 -0.2534
   45RES    H9612504   1.730   1.742   1.893 -0.9933 -1.9661 -0.0739
   45RES    H9712505   2.031   1.862   1.845  0.5075  3.6659 -0.2463
   45RES    H9812506   1.879   1.941   1.907  1.4693  2.3006  0.7458
   45RES    H9912507   2.026   1.931   1.997  1.4956 -2.6810  1.8834
   45RES   O10012508   1.716   1.636   2.149 -0.4466 -0.0101  0.1882
   45RES   C10112509   1.817   1.614   2.258 -0.1932  0.8309 -1.2075
   45RES   C10212510   1.767   1.708   2.374 -0.0040 -0.2404 -0.3328
   45RES   C10312511   1.784   1.863   2.356 -0.3168  0.4489  0.5866
   45RES   O10412512   1.726   1.936   2.467  0.2234  0.1250  0.8602
   45RES   C10512513   1.698   2.079   2.438  0.3095  0.2969 -0.3245
   45RES   H10612514   1.916   1.641   2.224  0.6014  2.4184  2.0940
   45RES   H10712515   1.821   1.509   2.287 -0.8205  1.1667  0.1608
   45RES   H10812516   1.663   1.680   2.393 -0.5679  0.0753 -2.6870
   45RES   H10912517   1.753   1.886   2.254 -0.3700  0.5130  0.6170
   45RES   H11012518   1.891   1.883   2.364 -0.3799  1.0146  0.0817
   45RES   H11112519   1.619   2.092   2.364  0.5450 -0.8875 -0.7886
   45RES   H11212520   1.793   2.122   2.407 -0.1556  0.0707 -2.1048
   45RES   H11312521   1.667   2.132   2.529 -0.9053  0.1137 -0.6178
   45RES   O11412522   1.856   1.682   2.483  0.0597  0.3633 -0.0684
   45RES   C11512523   1.807   1.586   2.583 -0.0388  0.2685 -0.3960
   45RES   C11612524   1.885   1.562   2.714 -0.0549  0.1323 -0.0103
   45RES   C11712525   2.033   1.519   2.677 -0.0349  0.5472  0.1901
   45RES   O11812526   2.087   1.431   2.776  0.3417  0.0172 -0.3022
   45RES   C11912527   2.152   1.496   2.884  0.4057 -0.2497  0.0728
   45RES   H12012528   1.707   1.610   2.619 -1.3147 -2.6870 -1.8285
   45RES   H12112529   1.785   1.502   2.517 -1.6009 -0.8293  1.4597
   45RES   H12212530   1.838   1.477   2.762 -0.2056 -0.4029 -1.1004
   45RES   H12312531   2.036   1.469   2.580  0.0928 -2.0272  1.4950
   45RES   H12412532   2.101   1.603   2.669 -2.9297  2.8633 -1.4065
   45RES   H12512533   2.086   1.561   2.941 -1.0627 -2.4737  0.9835
   45RES   H12612534   2.242   1.551   2.854  0.0747  0.8083  0.9815
   45RES   H12712535   2.186   1.416   2.951  3.4763  1.7587  1.0171
   45RES   O12812536   1.878   1.673   2.801 -0.4684 -0.0170 -0.1165
   45RES   C12912537   1.911   1.805   2.754 -0.4204 -0.1869 -0.4061
   45RES   C13012538   1.950   1.895   2.870  0.4516  0.0900 -0.2008
   45RES   C13112539   1.879   2.029   2.860 -0.5786 -0.1584  0.1624
   45RES   O13212540   1.897   2.105   2.976 -0.1588  0.0635  0.2150
   45RES   C13312541   1.906   2.249   2.960 -0.5639 -0.7772 -0.4809
   45RES   H13412542   1.981   1.812   2.671  0.5699 -2.2165  0.2355
   45RES   H13512543   1.814   1.840   2.718  0.1898  0.1107 -1.7850
   45RES   H13612544   1.919   1.858   2.968 -2.5564  0.7008 -0.8517
   45RES   H13712545   1.776   2.027   2.825  0.1697 -1.2556 -2.0767
   45RES   H13812546   1.932   2.080   2.780  1.0380  0.4489  1.5903
   45RES   H13912547   1.823   2.287   2.900 -0.4040  0.5545  0.1163
   45RES   H14012548   1.896   2.276   3.065  1.8793  1.8684 -0.8721
   45RES   H14112549   2.005   2.272   2.922 -0.6406 -0.6604 -0.6114
   45RES   O14212550   2.095   1.915   2.874  0.0104 -0.0023 -0.6050
   45RES   C14312551   2.158   1.918   2.996 -0.0693 -0.3193 -0.2044
   45RES   C14412552   2.315   1.892   2.971 -0.6699 -0.0927 -0.3431
   45RES   C14512553   2.381   1.857   3.106 -0.2558 -0.6581 -0.0518
   45RES   O14612554   2.497   1.778   3.080  0.1659 -0.0331 -0.0050
   45RES   C14712555   2.613   1.859   3.044 -0.2133 -0.6691 -0.5745
   45RES   H14812556   2.150   2.008   3.057 -1.2413 -0.1196 -0.6481
   45RES   H14912557   2.125   1.838   3.061  0.5914 -0.7605 -0.4093
   45RES   H15012558   2.312   1.804   2.907 -1.4494 -0.4952  0.2352
   45RES   H15112559   2.313   1.792   3.163  0.4767 -0.3213  1.2205
   45RES   H15212560   2.399   1.942   3.171  1.2023 -2.7057  2.3460
   45RES   H15312561   2.694   1.800   3.001 -0.7339 -0.6681 -1.5711
   45RES   H15412562   2.638   1.920   3.131 -0.8316 -1.0580 -0.1201
   45RES   H15512563   2.601   1.916   2.952  3.6563 -1.6030 -1.7801
   45RES   O15612564   2.369   2.012   2.929 -0.8417  0.3280  0.2127
   45RES   C15712565   2.362   2.041   2.784 -0.5814  0.1721 -0.3549
   45RES   C15812566   2.409   2.187   2.751  0.6588  0.1028  0.5196
   45RES   C15912567   2.555   2.200   2.796 -0.4356 -0.4566 -0.0092
   45RES   O16012568   2.614   2.318   2.749 -0.5879  0.1132  0.2502
   45RES   C16112569   2.730   2.351   2.827  0.5739  0.5659  0.8070
   45RES   H16212570   2.430   1.966   2.745 -1.2540 -1.4988  1.6034
   45RES   H16312571   2.261   2.024   2.748 -0.5133  2.3825 -1.6825
   45RES   H16412572   2.414   2.206   2.644  1.4587  1.7624  0.8530
   45RES   H16512573   2.564   2.196   2.905  0.3805  1.1004 -0.0011
   45RES   H16612574   2.620   2.120   2.761 -1.2297 -0.5726 -1.2354
   45RES   H16712575   2.794   2.418   2.769  0.6770 -0.9306 -0.8244
   45RES   H16812576   2.783   2.259   2.852 -3.5127 -1.7974  1.2567
   45RES   H16912577   2.700   2.390   2.925  0.1427  0.9308  0.5276
   45RES   O17012578   2.329   2.283   2.822 -0.5428 -0.1563  0.4783
   45RES   C17112579   2.253   2.366   2.736  0.4132 -0.0771 -0.2558
   45RES   C17212580   2.186   2.481   2.815 -0.3787 -0.0192 -0.0016
   45RES   C17312581   2.065   2.534   2.745  0.6683 -0.6337  0.4351
   45RES   O17412582   1.969   2.581   2.838  0.4690  0.4736  0.2552
   45RES   C17512583   1.863   2.631   2.760  0.1104  0.8442 -0.1711
   45RES   H17612584   2.180   2.301   2.689 -1.0114  0.1511  1.5625
   45RES   H17712585   2.312   2.422   2.663  1.1752 -0.9595 -0.3179
   45RES   H17812586   2.157   2.445   2.913  0.3362 -0.1798  0.1596
   45RES   H17912587   2.087   2.603   2.663 -4.7419  0.4109 -0.2893
   45RES   H18012588   2.020   2.444   2.703  2.6325 -0.4135 -2.3169
   45RES   H18112589   1.816   2.551   2.701  1.9795  0.7509 -1.5720
   45RES   H18212590   1.889   2.714   2.694  1.3104  0.8228  0.2689
   45RES   H18312591   1.777   2.666   2.817  0.7147 -0.4113  1.5462
   45RES   O18412592   2.274   2.586   2.836  0.4209  0.2666  0.1135
   45RES   C18512593   2.358   2.570   2.949 -0.0216 -0.1501 -0.0932
   45RES   C18612594   2.429   2.696   2.981 -0.5018 -0.1305 -0.0584
   45RES   C18712595   2.574   2.668   3.040 -0.1757  0.2331 -0.5709
   45RES   O18812596   2.642   2.784   3.065 -0.5204  0.3691  0.3803
   45RES   C18912597   2.736   2.776   3.171 -0.1308 -0.2181  0.4824
   45RES   H19012598   2.434   2.498   2.919  0.5311  0.6637 -0.6417
   45RES   H19112599   2.307   2.532   3.038  0.8208  1.3271  1.0528
   45RES   H19212600   2.455   2.739   2.884  1.1577 -1.6750 -0.3182
   45RES   H19312601   2.646   2.607   2.985 -2.0775 -2.2191 -0.4097
   45RES   H19412602   2.555   2.608   3.129 -2.2500 -1.6936 -2.2649
   45RES   H19512603   2.801   2.863   3.161 -0.1131 -0.4655 -1.6968
   45RES   H19612604   2.678   2.774   3.263 -0.2162 -2.4589  0.3905
   45RES   H19712605   2.775   2.675   3.176 -1.7124 -0.9311 -1.1619
   45RES   O19812606   2.355   2.782   3.061 -0.4859  0.7206 -0.7134
   45RES   C19912607   2.236   2.844   3.010  0.5560 -0.1494  0.0421
   45RES   C20012608   2.233   2.998   3.043 -0.0230 -0.1842  0.4278
   45RES   C20112609   2.089   3.066   3.056 -0.5625  0.6073 -0.1345
   45RES   O20212610   2.009   3.044   2.938  0.3070 -0.6234 -0.4748
   45RES   C20312611   1.901   3.136   2.926  0.0442 -0.7423  0.4182
   45RES   H20412612   2.148   2.801   3.056  1.1075 -0.7091  0.5718
   45RES   H20512613   2.226   2.822   2.904  0.7501  0.0954 -0.0293
   45RES   H20612614   2.297   3.003   3.131  0.4411 -0.4704  0.1112
   45RES   H20712615   2.033   3.029   3.142 -1.4383  2.5646  0.1582
   45RES   H20812616   2.096   3.170   3.086 -0.4393  0.3795  0.6558
   45RES   H20912617   1.837   3.150   3.013 -1.6170 -0.5888 -0.8054
   45RES   H21012618   1.844   3.124   2.833 -0.3094  1.3250  0.3469
   45RES   H21112619   1.945   3.235   2.928 -0.0096 -0.6309 -1.8787
   45RES   O21212620   2.299   3.057   2.929  0.2957 -0.2794 -0.2330
   45RES   C21312621   2.439   3.075   2.948  0.2003  0.0318 -0.1590
   45RES   C21412622   2.498   3.163   2.837 -0.4172 -0.2421 -0.0863
   45RES   C21512623   2.640   3.133   2.807  0.0370 -0.7496 -0.2627
   45RES   O21612624   2.658   3.015   2.731  0.1107  0.2567 -0.1283
   45RES   C21712625   2.787   3.009   2.677 -0.6757  0.0499  0.2734
   45RES   H21812626   2.478   2.973   2.950  0.2588 -0.0173 -2.6922
   45RES   H21912627   2.467   3.117   3.044  1.3718 -0.9091 -0.0771
   45RES   H22012628   2.448   3.147   2.741  1.8070 -0.3799 -1.2558
   45RES   H22112629   2.672   3.220   2.750 -1.4390 -1.0540 -1.5823
   45RES   H22212630   2.710   3.125   2.890  1.2594 -3.9884 -1.5177
   45RES   H22312631   2.799   2.914   2.626 -2.1021 -0.5523  1.0404
   45RES   H22412632   2.865   3.005   2.752 -0.3848  1.5523  0.0784
   45RES   H22512633   2.810   3.094   2.613 -0.7865 -0.0598  0.0866
   45RES   O22612634   2.478   3.297   2.880  0.0866 -0.0938  0.3206
   45RES   C22712635   2.341   3.340   2.902 -0.5804 -0.0448  0.7606
   45RES   C22812636   2.342   3.491   2.914  0.1523 -0.0833 -0.5379
   45RES   C22912637   2.206   3.550   2.882 -0.0276  0.1591  0.0338
   45RES   O23012638   2.207   3.689   2.874 -0.5523 -0.4818  0.1736
   45RES   C23112639   2.074   3.740   2.852 -0.0422  0.4697 -0.7652
   45RES   H23212640   2.288   3.293   2.985  0.4392 -2.7796 -0.0705
   45RES   H23312641   2.289   3.323   2.808 -1.4341 -2.2823  1.6028
   45RES   H23412642   2.423   3.530   2.853 -0.0873 -2.6364 -2.5943
   45RES   H23512643   2.139   3.514   2.959  0.1801 -1.9609 -0.7325
   45RES   H23612644   2.167   3.494   2.797 -2.3605  0.5195  0.8418
   45RES   H23712645   2.028   3.725   2.950  2.6674  0.6045  0.5697
   45RES   H23812646   2.019   3.689   2.773 -0.4815 -0.0724 -0.1108
   45RES   H23912647   2.075   3.846   2.825  1.1652  1.1991  1.9034
   45RES   O24012648   2.368   3.521   3.057 -0.1583 -0.2198  0.3098
   45RES   C24112649   2.480   3.614   3.078 -0.4438  0.0815  0.0441
   45RES   C24212650   2.479   3.668   3.232 -0.0025  0.6219 -0.9359
   45RES   C24312651   2.572   3.572   3.318  0.2025 -0.3555 -0.2570
   45RES   O24412652   2.565   3.614   3.451  0.5829  0.3130  0.2371
   45RES   C24512653   2.650   3.548   3.534  0.0009 -0.1524 -0.0111
   45RES   H24612654   2.464   3.700   3.013  3.9377  0.2184 -1.0366
   45RES   H24712655   2.570   3.557   3.054 -0.2904  0.5307 -0.4358
   45RES   H24812656   2.375   3.679   3.264 -0.0525 -0.9237 -0.5552
   45RES   H24912657   2.538   3.468   3.319 -1.9647  0.3154 -0.5766
   45RES   H25012658   2.674   3.569   3.282  0.7701 -1.2877  1.3924
   45RES   H25112659   2.745   3.532   3.482 -0.8612  0.1916 -1.7098
   45RES   H25212660   2.602   3.456   3.567 -1.4275  0.1420 -1.2264
   45RES   H25312661   2.654   3.612   3.622  0.9490 -1.0214  0.5946
   45RES   O25412662   2.533   3.801   3.221  0.0641 -0.2474 -0.0896
   45RES   C25512663   2.451   3.912   3.217 -0.1381 -1.0944  0.3462
   45RES   C25612664   2.523   4.040   3.262 -0.5847  0.2299 -0.2885
   45RES   C25712665   2.459   4.171   3.212  0.2566 -0.5727 -0.0110
   45RES   O25812666   2.497   4.181   3.071  0.6353 -0.6149 -0.4726
   45RES   C25912667   2.431   4.289   2.997  0.1195 -0.2407 -0.1167
   45RES   H26012668   2.420   3.931   3.114  0.6960 -0.0961  0.2653
   45RES   H26112669   2.357   3.896   3.270  1.2831 -2.2771  2.5633
   45RES   H26212670   2.618   4.040   3.208 -1.7709  1.3950 -2.4076
   45RES   H26312671   2.351   4.175   3.225  0.0117 -1.6341 -1.6640
   45RES   H26412672   2.503   4.259   3.260 -0.5265  0.3290 -0.9288
   45RES   H26512673   2.484   4.280   2.902 -0.1944 -0.9616 -0.2206
   45RES   H26612674   2.456   4.385   3.043  0.6087 -0.1239 -0.6237
   45RES   H26712675   2.324   4.271   2.989  0.4635 -2.2299 -0.4406
   45RES   O26812676   2.550   4.054   3.404  0.0651 -0.1402  1.2412
   45RES   C26912677   2.633   3.961   3.461 -0.0021  0.2713 -0.7461
   45RES   C27012678   2.682   4.012   3.596 -0.3386  0.8485  0.4653
   45RES   C27112679   2.783   3.928   3.676 -0.1040 -0.2737  0.4043
   45RES   O27212680   2.834   4.018   3.772  0.2214  0.1402 -0.2099
   45RES   C27312681   2.884   3.962   3.892 -0.2330  0.1575  0.5930
   45RES   H27412682   2.715   3.943   3.392  0.6613 -1.8000  0.5308
   45RES   H27512683   2.581   3.866   3.478 -2.0130  1.5254  0.3124
   45RES   H27612684   2.723   4.110   3.571  0.7456  0.5566  1.0810
   45RES   H27712685   2.861   3.891   3.609 -0.1344 -2.2336  1.4265
   45RES   H27812686   2.740   3.841   3.724 -1.3876 -0.6296 -1.3330
   45RES   H27912687   2.826   3.877   3.929 -0.3392  0.0343  0.1502
   45RES   H28012688   2.864   4.032   3.973 -1.3947 -0.5540  0.9456
   45RES   H28112689   2.989   3.933   3.882 -0.3544 -0.0311 -0.2219
   45RES   H28212690   2.590   4.022   3.654 -1.9387  0.7433 -1.9759
   46RES     O112691   6.302   2.895   1.770 -0.0455  0.0531 -0.0501
   46RES     C212692   6.301   3.028   1.726  0.1267 -0.3046  0.0291
   46RES     C312693   6.242   3.036   1.582 -1.0601  0.5071 -0.2519
   46RES     C412694   6.230   3.174   1.535 -0.3546 -0.0007  0.3883
   46RES     O512695   6.133   3.179   1.426  0.1201  0.2428  0.5770
   46RES     C612696   6.085   3.308   1.399  0.2450  0.1159  0.3910
   46RES     H712697   6.241   3.086   1.796 -0.1783 -0.3037 -0.2337
   46RES     H812698   6.401   3.071   1.732  0.5804 -1.3266  0.0937
   46RES     H912699   6.141   2.994   1.585 -0.5963 -0.6870 -0.7623
   46RES    H1012700   6.324   3.207   1.489 -0.6406  0.3578  0.0562
   46RES    H1112701   6.209   3.240   1.619 -1.9290 -3.0457  2.4459
   46RES    H1212702   6.014   3.301   1.316  0.6250 -1.9334  0.2082
   46RES    H1312703   6.032   3.346   1.487 -1.3390  0.5362 -0.7197
   46RES    H1412704   6.170   3.369   1.368  0.1475  0.1152  0.1233
   46RES    H1512705   6.354   2.837   1.716 -0.4383 -0.9194  0.5980
   46RES    O1612706   6.324   2.952   1.498  0.3313  0.0769  0.5043
   46RES    C1712707   6.255   2.891   1.387  0.7761  0.1084 -0.5605
   46RES    C1812708   6.327   2.777   1.319 -0.0518  0.2612 -0.5664
   46RES    C1912709   6.240   2.721   1.209 -0.0387  0.6075 -0.0607
   46RES    O2012710   6.133   2.640   1.261  0.5479  0.1451 -0.3846
   46RES    C2112711   6.055   2.593   1.159  0.4146  0.4019 -0.2500
   46RES    H2212712   6.241   2.970   1.314  0.0034  2.1508  1.7658
   46RES    H2312713   6.156   2.861   1.423  1.4933  0.3323  1.7046
   46RES    H2412714   6.348   2.693   1.386 -0.8407  0.7527  0.3151
   46RES    H2512715   6.209   2.801   1.142  1.9909  0.7576 -0.8849
   46RES    H2612716   6.308   2.655   1.154  1.3905  2.6716 -0.8346
   46RES    H2712717   6.095   2.496   1.129  2.2819  0.8159  0.7660
   46RES    H2812718   6.044   2.658   1.073  1.2530  1.3023  0.3105
   46RES    H2912719   5.955   2.575   1.198  0.2473  0.5236 -0.6179
   46RES    O3012720   6.447   2.816   1.265 -0.0950  0.0166 -0.0603
   46RES    C3112721   6.561   2.765   1.343  0.7988 -0.2193  0.3158
   46RES    C3212722   6.701   2.810   1.285 -0.0668 -0.3744  0.0527
   46RES    C3312723   6.816   2.712   1.325 -0.4977 -0.0565  0.3039
   46RES    O3412724   6.831   2.700   1.466  0.4566  0.5148  0.3113
   46RES    C3512725   6.946   2.617   1.506 -0.7090  0.9326  0.1838
   46RES    H3612726   6.544   2.808   1.442 -1.8396 -0.2954 -0.0691
   46RES    H3712727   6.550   2.657   1.342 -2.0494  0.0216  0.7193
   46RES    H3812728   6.693   2.808   1.176  1.8135 -0.4841 -0.0899
   46RES    H3912729   6.907   2.758   1.285 -0.9845  0.2876 -0.4319
   46RES    H4012730   6.817   2.615   1.276  2.4509  0.7935 -1.5078
   46RES    H4112731   6.956   2.614   1.615  1.2605 -0.9733 -0.0146
   46RES    H4212732   7.042   2.643   1.462  0.2623  1.5369  2.5464
   46RES    H4312733   6.922   2.514   1.477 -1.3398  0.3178  2.7675
   46RES    O4412734   6.746   2.930   1.342 -0.4351 -0.1957  1.1977
   46RES    C4512735   6.657   3.044   1.319 -0.5445  0.3249  0.3881
   46RES    C4612736   6.699   3.167   1.403 -0.2733  0.3535  0.1385
   46RES    C4712737   6.700   3.144   1.558  0.5930 -0.3227  0.1410
   46RES    O4812738   6.692   3.266   1.628 -0.3052  0.0354 -0.6830
   46RES    C4912739   6.731   3.237   1.763 -0.1535 -0.0389  0.5631
   46RES    H5012740   6.555   3.018   1.347  0.1872 -2.5962  0.5587
   46RES    H5112741   6.671   3.054   1.212 -0.1471 -0.1950  0.3892
   46RES    H5212742   6.624   3.246   1.390 -0.0489  0.8162  1.5405
   46RES    H5312743   6.615   3.082   1.586 -0.1781  1.0840  0.9726
   46RES    H5412744   6.790   3.093   1.591  1.9917  0.7326 -1.9501
   46RES    H5512745   6.839   3.236   1.778 -0.1692  2.2401  0.9513
   46RES    H5612746   6.683   3.148   1.802  2.1910 -1.0962  1.1387
   46RES    H5712747   6.700   3.326   1.818  0.0042  0.7264 -0.5705
   46RES    O5812748   6.806   3.247   1.355 -0.1831 -0.2914 -0.0767
   46RES    C5912749   6.924   3.171   1.345  0.1561 -1.2355 -0.2323
   46RES    C6012750   7.050   3.262   1.324 -0.3673  0.5593  0.6044
   46RES    C6112751   7.159   3.174   1.262 -0.8280  0.3562  0.4228
   46RES    O6212752   7.109   3.138   1.134  0.2495  0.1496  0.0043
   46RES    C6312753   7.135   3.006   1.084  0.1124 -0.1030  0.2147
   46RES    H6412754   6.906   3.112   1.255 -1.2515 -1.5271  0.2170
   46RES    H6512755   6.940   3.095   1.421  2.3813 -0.4656  0.0950
   46RES    H6612756   7.030   3.346   1.257  1.5319 -0.2671 -1.0498
   46RES    H6712757   7.251   3.228   1.241 -0.6648  1.2545  3.3159
   46RES    H6812758   7.171   3.079   1.315 -0.0277 -0.2739 -0.8737
   46RES    H6912759   7.242   2.986   1.079  0.0791 -0.4494  0.7736
   46RES    H7012760   7.087   3.012   0.986 -0.9839 -1.2731  0.6530
   46RES    H7112761   7.086   2.922   1.133  0.8759  0.0115  1.1772
   46RES    O7212762   7.096   3.318   1.445 -0.3448 -0.3262 -0.3876
   46RES    C7312763   7.139   3.452   1.439  0.1895  0.8093 -0.1251
   46RES    C7412764   7.154   3.498   1.582 -0.1425 -0.3505 -0.6734
   46RES    C7512765   7.020   3.504   1.658 -0.7741 -0.2044  0.1557
   46RES    O7612766   7.051   3.548   1.790 -0.0730 -0.3283 -0.3784
   46RES    C7712767   6.948   3.537   1.882 -0.6965  0.3046  0.2828
   46RES    H7812768   7.225   3.464   1.373  1.0447  0.9327  0.9811
   46RES    H7912769   7.062   3.515   1.394 -1.2504  0.8490  2.2892
   46RES    H8012770   7.230   3.442   1.636  0.6138  0.6061 -0.7388
   46RES    H8112771   6.979   3.403   1.665 -0.8853 -0.2944 -1.5006
   46RES    H8212772   6.955   3.574   1.606 -3.0128 -0.8643  1.9735
   46RES    H8312773   6.943   3.431   1.907  1.9762  0.2886  0.9496
   46RES    H8412774   6.854   3.555   1.829  0.4596  1.6860 -1.3688
   46RES    H8512775   6.963   3.607   1.963  0.6053 -1.8436  1.9476
   46RES    O8612776   7.201   3.633   1.584 -0.0677 -0.4778 -1.0076
   46RES    C8712777   7.342   3.649   1.565 -0.3074  0.0376 -0.5329
   46RES    C8812778   7.388   3.788   1.627 -0.8058 -0.3070  1.1138
   46RES    C8912779   7.542   3.791   1.632 -0.7449 -0.4857  0.2106
   46RES    O9012780   7.596   3.904   1.711  0.4346 -0.1039  0.2033
   46RES    C9112781   7.737   3.922   1.727 -0.0928  0.0682 -0.3475
   46RES    H9212782   7.404   3.577   1.618 -0.0412 -0.8848 -2.0757
   46RES    H9312783   7.367   3.641   1.459 -0.4410  2.1012 -0.7389
   46RES    H9412784   7.360   3.800   1.732  0.9167 -0.9994  1.6659
   46RES    H9512785   7.586   3.700   1.674  2.3167  0.6773 -0.3557
   46RES    H9612786   7.580   3.779   1.530 -1.0746  1.5682 -0.1725
   46RES    H9712787   7.789   3.965   1.641  0.0850  0.1946 -0.1761
   46RES    H9812788   7.762   3.993   1.806  0.1295 -0.6303  0.2127
   46RES    H9912789   7.785   3.827   1.751  2.6065  1.8152  1.4629
   46RES   O10012790   7.360   3.902   1.550  0.3008  0.5164  0.0088
   46RES   C10112791   7.227   3.963   1.558 -0.1982 -0.3567 -0.9937
   46RES   C10212792   7.209   4.089   1.459  0.5436 -0.4265 -0.4113
   46RES   C10312793   7.096   4.193   1.506  0.1077  0.6667 -0.1915
   46RES   O10412794   7.045   4.277   1.394  0.4109 -0.0803 -0.4274
   46RES   C10512795   7.129   4.388   1.367 -0.0116  0.1484 -0.4921
   46RES   H10612796   7.214   3.992   1.663  0.3068 -0.7349 -0.8253
   46RES   H10712797   7.149   3.890   1.535 -1.3009  0.3225  0.4619
   46RES   H10812798   7.304   4.143   1.456  0.4071 -0.2025 -0.8375
   46RES   H10912799   7.123   4.251   1.595  1.2683 -2.3842  1.5298
   46RES   H11012800   7.014   4.124   1.526  1.1871 -0.7665 -0.6516
   46RES   H11112801   7.216   4.376   1.303 -0.1629 -3.2979 -0.1524
   46RES   H11212802   7.168   4.438   1.456 -1.1120 -1.3871  0.8815
   46RES   H11312803   7.065   4.465   1.323  1.0260  1.1299 -0.3278
   46RES   O11412804   7.174   4.056   1.331 -0.0462  0.1505  0.3531
   46RES   C11512805   7.287   4.018   1.250  0.6696  0.0762  0.0213
   46RES   C11612806   7.240   3.958   1.116 -0.6248  0.2831  0.1082
   46RES   C11712807   7.137   3.852   1.110  0.1199  0.2804 -0.4415
   46RES   O11812808   7.190   3.719   1.109  0.2296  0.4911 -0.2523
   46RES   C11912809   7.094   3.612   1.088  0.0856 -0.1615 -0.3188
   46RES   H12012810   7.352   4.104   1.234  2.2528 -1.2623 -0.9903
   46RES   H12112811   7.343   3.934   1.293  0.9436 -0.5192 -1.4446
   46RES   H12212812   7.328   3.908   1.077 -0.2636  0.6025  0.5045
   46RES   H12312813   7.082   3.859   1.204  1.0261  0.6145  0.0764
   46RES   H12412814   7.078   3.877   1.022  0.1222  1.9212  0.0003
   46RES   H12512815   7.144   3.516   1.079 -0.3803 -0.5230  0.7939
   46RES   H12612816   7.056   3.629   0.988 -1.2460  0.3463  0.2575
   46RES   H12712817   7.014   3.617   1.163  0.5790 -0.3295  0.2250
   46RES   O12812818   7.222   4.063   1.025  0.1729 -0.0886 -0.4717
   46RES   C12912819   7.092   4.130   1.023 -0.8453 -0.1086 -0.3164
   46RES   C13012820   7.119   4.281   1.000  0.4903 -0.2778 -0.3756
   46RES   C13112821   7.001   4.373   1.019 -0.5591 -0.5394 -1.0932
   46RES   O13212822   7.061   4.496   1.052 -0.5892  0.0250  0.3252
   46RES   C13312823   6.969   4.595   1.058 -0.2845  0.6342 -0.1854
   46RES   H13412824   7.037   4.097   0.935  1.6241 -0.0534 -1.9147
   46RES   H13512825   7.020   4.118   1.104 -2.5419 -0.6954 -1.8621
   46RES   H13612826   7.213   4.303   1.050 -0.8052 -0.5640  2.2469
   46RES   H13712827   6.939   4.333   1.100  0.7241  0.7054  0.5483
   46RES   H13812828   6.938   4.375   0.930  2.0512 -1.1136 -2.9786
   46RES   H13912829   6.915   4.603   0.964 -2.9731  2.1067  1.4207
   46RES   H14012830   6.887   4.589   1.130 -1.9101 -0.9409 -2.0801
   46RES   H14112831   7.025   4.688   1.066 -0.4318  0.7606 -0.6485
   46RES   O14212832   7.142   4.285   0.859 -0.3345 -0.1157  0.7336
   46RES   C14312833   7.207   4.405   0.797  0.0197  0.7226  0.3642
   46RES   C14412834   7.216   4.365   0.644  0.2576  0.5770 -0.3673
   46RES   C14512835   7.329   4.438   0.569  0.1916  0.2339  0.1643
   46RES   O14612836   7.431   4.347   0.531  0.5280  0.1642 -0.0386
   46RES   C14712837   7.499   4.394   0.408  0.4289 -0.7921  0.5113
   46RES   H14812838   7.146   4.492   0.821 -0.7182 -0.5920  3.4224
   46RES   H14912839   7.308   4.425   0.832  0.2025 -0.6248  0.6668
   46RES   H15012840   7.235   4.257   0.638  0.9490  0.7643 -1.7780
   46RES   H15112841   7.371   4.526   0.619 -1.0424  0.6327  0.5254
   46RES   H15212842   7.279   4.488   0.485 -3.3965  0.3702  2.2872
   46RES   H15312843   7.581   4.328   0.379  1.3152  0.0826  0.9890
   46RES   H15412844   7.548   4.488   0.430  1.1436 -0.8922 -0.6089
   46RES   H15512845   7.426   4.408   0.329 -0.1436 -0.4297  1.1021
   46RES   O15612846   7.095   4.383   0.581 -0.0939  0.0345 -0.9771
   46RES   C15712847   7.006   4.269   0.567 -0.8991  0.0920 -0.5318
   46RES   C15812848   6.893   4.311   0.482  0.3641 -0.4774 -0.3720
   46RES   C15912849   6.762   4.234   0.495  0.0297  0.3536 -0.3299
   46RES   O16012850   6.788   4.097   0.474  0.2012 -0.2413  0.3889
   46RES   C16112851   6.691   4.045   0.381 -0.2687 -0.1269  0.0699
   46RES   H16212852   7.055   4.184   0.519  0.2542 -0.3448  1.3722
   46RES   H16312853   6.970   4.229   0.661 -2.6811  2.9145  0.0588
   46RES   H16412854   6.853   4.407   0.515 -1.3569 -1.5447  0.7107
   46RES   H16512855   6.717   4.234   0.594  0.9759  1.1358  0.1115
   46RES   H16612856   6.690   4.281   0.429  1.4865  1.6978 -1.0112
   46RES   H16712857   6.695   3.938   0.360 -1.0642 -0.0641 -0.4371
   46RES   H16812858   6.688   4.101   0.288  2.0323  0.2627  0.2047
   46RES   H16912859   6.588   4.056   0.416 -0.3681  1.4712 -0.6949
   46RES   O17012860   6.925   4.314   0.343  0.1785  0.2156  0.5019
   46RES   C17112861   6.971   4.439   0.283  0.7716  0.4812 -0.2276
   46RES   C17212862   6.926   4.446   0.132 -0.3646  0.1376 -0.0882
   46RES   C17312863   6.786   4.383   0.110  0.2847  0.0093  0.0274
   46RES   O17412864   6.726   4.434   7.810 -0.1648  0.1252  0.4029
   46RES   C17512865   6.614   4.522   0.020 -0.4313 -0.2284  0.2999
   46RES   H17612866   7.078   4.455   0.300  0.5989 -0.5121  2.0003
   46RES   H17712867   6.929   4.520   0.344  0.0514  1.3753 -1.8819
   46RES   H17812868   6.910   4.552   0.114 -2.1002 -0.1965 -0.6044
   46RES   H17912869   6.794   4.278   0.083  0.0587  0.1857 -0.7570
   46RES   H18012870   6.714   4.386   0.192 -0.4652 -0.5601 -0.5959
   46RES   H18112871   6.586   4.570   7.743  2.3615 -0.3293 -0.6143
   46RES   H18212872   6.648   4.596   0.092 -1.2332  0.2072  0.2429
   46RES   H18312873   6.527   4.467   0.057 -1.0955 -0.1178 -1.0565
   46RES   O18412874   7.021   4.393   0.048  0.9964 -0.6713  0.1593
   46RES   C18512875   6.991   4.405   7.725 -1.1619  0.5414  0.4085
   46RES   C18612876   7.123   4.423   7.648 -0.7826  0.5753 -0.0233
   46RES   C18712877   7.102   4.465   7.499 -0.3416  0.2939  0.0141
   46RES   O18812878   7.044   4.592   7.485  0.3218 -0.1720 -0.2793
   46RES   C18912879   7.035   4.624   7.349 -0.5212 -0.0427 -0.2020
   46RES   H19012880   6.938   4.500   7.714 -2.8911 -0.2808  1.3829
   46RES   H19112881   6.943   4.311   7.700 -0.6604  0.3801  0.0542
   46RES   H19212882   7.198   4.488   7.693 -0.4764  2.4114 -3.0589
   46RES   H19312883   7.037   4.387   7.460 -0.4395 -0.7095  2.0941
   46RES   H19412884   7.201   4.464   7.453 -0.2852  0.9393  0.1110
   46RES   H19512885   6.957   4.557   7.313 -0.4132  0.2556 -1.0040
   46RES   H19612886   7.018   4.730   7.331 -1.4052 -0.0467  0.5659
   46RES   H19712887   7.121   4.596   7.289  0.5515  1.0070  0.8265
   46RES   O19812888   7.182   4.294   7.633 -0.0368  0.1419 -0.0661
   46RES   C19912889   7.240   4.238   7.751  0.2641 -0.4931 -0.0790
   46RES   C20012890   7.170   4.105   7.788 -0.2660  0.4861  0.2652
   46RES   C20112891   7.169   4.079   0.128 -0.3801  0.6402  0.0024
   46RES   O20212892   7.074   3.973   0.153 -0.2350  0.0294 -0.2988
   46RES   C20312893   7.030   3.974   0.288  0.0051  0.1064  0.1095
   46RES   H20412894   7.239   4.312   0.014 -0.1377 -0.9901  0.3740
   46RES   H20512895   7.347   4.223   7.733  0.7410  0.9561  1.3805
   46RES   H20612896   7.068   4.113   7.750  0.2412  4.5208 -0.4571
   46RES   H20712897   7.272   4.065   0.163 -0.5829 -0.0485  0.3350
   46RES   H20812898   7.155   4.170   0.186  1.5161  0.0092  1.5355
   46RES   H20912899   6.964   3.889   0.308  1.1516 -0.8976 -0.3063
   46RES   H21012900   6.980   4.066   0.319 -0.7743 -0.5459  0.8121
   46RES   H21112901   7.112   3.942   0.353 -0.9910 -2.4976  0.1204
   46RES   O21212902   7.238   3.995   7.726 -0.2396  0.4148 -0.5091
   46RES   C21312903   7.216   3.981   7.592  0.7678 -0.5039 -0.1826
   46RES   C21412904   7.244   3.834   7.548  0.4931 -0.5994 -0.5044
   46RES   C21512905   7.305   3.828   7.401  0.2316  0.0216  0.0190
   46RES   O21612906   7.363   3.699   7.381  0.1074 -0.1163 -0.2172
   46RES   C21712907   7.467   3.680   7.276 -0.1613  0.4307 -0.4768
   46RES   H21812908   7.279   4.053   7.539  0.4067 -1.0155 -1.3141
   46RES   H21912909   7.113   4.000   7.561  0.8761  1.1982  0.4490
   46RES   H22012910   7.325   3.803   7.615  0.5073  1.6161  0.5618
   46RES   H22112911   7.230   3.835   7.323  0.1659 -2.6386 -0.1823
   46RES   H22212912   7.371   3.914   7.390 -1.5712  1.3091 -0.8780
   46RES   H22312913   7.423   3.698   7.178  0.4407  1.0941 -0.6281
   46RES   H22412914   7.493   3.574   7.273  1.1971  0.7189  0.5070
   46RES   H22512915   7.559   3.739   7.285 -0.1856  0.3476  0.3573
   46RES   O22612916   7.130   3.753   7.561 -0.1812 -0.0434 -0.0899
   46RES   C22712917   7.087   3.727   7.689  0.0585  0.2250 -0.6147
   46RES   C22812918   6.942   3.685   7.698  0.1950  0.2766 -0.1947
   46RES   C22912919   6.885   3.702   0.026 -0.6944  0.2055  0.5612
   46RES   O23012920   6.777   3.620   0.050 -0.3448  0.2163 -0.1231
   46RES   C23112921   6.683   3.675   0.136  0.2789  0.1550 -0.5553
   46RES   H23212922   7.109   3.809   7.758  0.4599 -1.6334  1.4913
   46RES   H23312923   7.161   3.653   7.718 -1.0201 -0.8985 -0.7416
   46RES   H23412924   6.947   3.580   7.667  1.6427  0.0211  0.8795
   46RES   H23512925   6.864   3.805   0.054  1.9932  0.1191  3.0785
   46RES   H23612926   6.956   3.668   0.101 -0.6078  0.4121  0.5719
   46RES   H23712927   6.606   3.599   0.147  0.9030 -0.5170 -0.7456
   46RES   H23812928   6.640   3.767   0.098 -1.2839  0.2975  1.4734
   46RES   H23912929   6.732   3.710   0.227 -2.4505  1.4038  0.4880
   46RES   O24012930   6.850   3.751   7.612  0.0035  0.2450 -0.4894
   46RES   C24112931   6.855   3.705   7.481 -0.3640 -0.0669 -0.2951
   46RES   C24212932   6.814   3.830   7.382  0.0127  0.6620 -0.3094
   46RES   C24312933   6.909   3.828   7.260 -0.1825  0.5762 -0.2785
   46RES   O24412934   6.871   3.928   7.169  0.5714 -0.3203 -0.3620
   46RES   C24512935   6.886   4.064   7.223  0.9376 -0.9816 -0.3543
   46RES   H24612936   6.785   3.623   7.466 -2.0618  1.1593  0.8206
   46RES   H24712937   6.953   3.673   7.445  1.0582  3.4093  0.3671
   46RES   H24812938   6.809   3.927   7.431 -0.5657 -0.2877  1.5702
   46RES   H24912939   7.010   3.849   7.294 -0.6156  0.7895  0.8960
   46RES   H25012940   6.916   3.732   7.209  1.8369 -0.4978  1.9433
   46RES   H25112941   6.885   4.140   7.145  0.3554  0.8498  1.3938
   46RES   H25212942   6.982   4.083   7.272  1.2312  0.0311 -1.3097
   46RES   H25312943   6.797   4.099   7.277  2.0443  0.5336  0.5596
   46RES   O25412944   6.675   3.818   7.345 -0.4150  0.2590  0.1182
   46RES   C25512945   6.587   3.872   7.442  0.2714 -0.5183 -0.0193
   46RES   C25612946   6.446   3.830   7.404  0.0674 -0.5578 -0.1031
   46RES   C25712947   6.359   3.839   7.531 -0.9133 -0.5831 -0.0181
   46RES   O25812948   6.255   3.738   7.531 -0.5666  0.6629 -0.2316
   46RES   C25912949   6.134   3.776   7.460 -0.1152 -0.1075 -0.1380
   46RES   H26012950   6.626   3.823   7.532  2.2048 -0.8459 -0.9976
   46RES   H26112951   6.595   3.980   7.446 -1.6996 -0.3401 -0.6732
   46RES   H26212952   6.455   3.731   7.360  0.7836 -1.1371  1.3417
   46RES   H26312953   6.411   3.814   7.623 -0.8493 -0.0963  0.0786
   46RES   H26412954   6.322   3.940   7.547  1.1100  0.3890 -1.2228
   46RES   H26512955   6.057   3.699   7.465 -0.4304  0.2822  1.0946
   46RES   H26612956   6.153   3.773   7.353 -0.0760  1.2628 -0.1713
   46RES   H26712957   6.095   3.875   7.484 -0.6593 -0.4592  0.4492
   46RES   O26812958   6.381   3.917   7.312 -0.0702 -0.1692 -0.4799
   46RES   C26912959   6.426   3.900   7.176  0.1221 -0.9949  0.1455
   46RES   C27012960   6.352   4.009   7.092  0.0518 -0.2284  0.8009
   46RES   C27112961   6.372   3.991   6.947  0.6577  0.3571  0.3542
   46RES   O27212962   6.276   4.067   6.870 -0.3622 -0.3524  0.3566
   46RES   C27312963   6.276   4.019   6.740 -0.7676 -0.1541 -0.0394
   46RES   H27412964   6.412   3.796   7.147 -0.4089 -1.3117  1.4789
   46RES   H27512965   6.533   3.916   7.167 -0.3981  2.4263 -0.4850
   46RES   H27612966   6.246   4.013   7.116 -0.6239 -2.2651 -1.6613
   46RES   H27712967   6.361   3.886   6.919 -0.2784  1.0564 -2.0467
   46RES   H27812968   6.470   4.022   6.913  0.2600 -0.5560 -1.7233
   46RES   H27912969   6.277   3.910   6.733  0.3452 -0.1239 -0.5089
   46RES   H28012970   6.362   4.051   6.681  0.7616 -2.7933  0.6950
   46RES   H28112971   6.189   4.054   6.684 -0.7893  1.4398  0.9703
   46RES   H28212972   6.395   4.108   7.113 -2.0316  0.8977 -0.1220
   47RES     O112973   4.103   5.478   3.134  0.3890  0.3719  0.5824
   47RES     C212974   4.120   5.617   3.113  0.5303  0.2426  0.7706
   47RES     C312975   3.992   5.670   3.054  0.0054  0.1193  0.0958
   47RES     C412976   4.006   5.819   3.029 -0.0201 -0.0557 -0.4749
   47RES     O512977   4.092   5.821   2.914 -0.7854 -0.3015 -0.1013
   47RES     C612978   4.126   5.948   2.862  0.0345  0.1765 -0.1199
   47RES     H712979   4.141   5.660   3.211  0.7552  1.0161  0.3939
   47RES     H812980   4.206   5.640   3.049  0.6210  0.8834  1.1143
   47RES     H912981   3.908   5.635   3.113  0.8642 -1.3103  0.5074
   47RES    H1012982   4.036   5.870   3.120 -1.1616  0.6553 -0.4893
   47RES    H1112983   3.911   5.868   3.009  0.5128  0.5122 -1.6942
   47RES    H1212984   4.049   6.022   2.842  0.7595  0.9195 -0.1889
   47RES    H1312985   4.183   5.997   2.941 -0.3406  0.3775  0.0274
   47RES    H1412986   4.181   5.915   2.774  3.4621  1.1399  1.5769
   47RES    H1512987   4.077   5.438   3.053 -0.2970 -0.5367  1.2438
   47RES    O1612988   3.972   5.599   2.932 -0.0891  0.2222 -0.0358
   47RES    C1712989   3.842   5.626   2.870 -0.3606 -0.3035  0.4267
   47RES    C1812990   3.826   5.546   2.736 -0.1585  0.2090  0.0096
   47RES    C1912991   3.684   5.508   2.717  0.2241  0.4347 -0.4404
   47RES    O2012992   3.648   5.385   2.780 -0.7183  0.4641 -0.3355
   47RES    C2112993   3.524   5.340   2.736 -0.3014  0.0090  0.3437
   47RES    H2212994   3.820   5.728   2.839 -2.9491 -0.7237  0.7235
   47RES    H2312995   3.760   5.603   2.939  0.7065 -2.3229  1.0577
   47RES    H2412996   3.883   5.455   2.717 -0.4613 -0.3514  1.7325
   47RES    H2512997   3.611   5.585   2.742  0.3949  0.5723 -0.3694
   47RES    H2612998   3.681   5.505   2.608 -0.6451  2.1705 -0.4866
   47RES    H2712999   3.518   5.239   2.778 -0.0942  0.7245  2.1282
   47RES    H2813000   3.526   5.333   2.627 -1.1532 -1.4503  0.4039
   47RES    H2913001   3.434   5.390   2.772 -0.8879 -1.2938  0.7268
   47RES    O3013002   3.846   5.644   2.631  0.2418  0.3852  0.4179
   47RES    C3113003   3.979   5.669   2.592  0.7655 -0.0862  0.3903
   47RES    C3213004   3.981   5.800   2.511  0.6812  0.4168  0.2671
   47RES    C3313005   3.913   5.914   2.591  0.2426 -0.2734  0.6932
   47RES    O3413006   3.999   6.022   2.597  0.0077  0.2312 -1.0112
   47RES    C3513007   3.929   6.141   2.619 -0.2090  0.1781  0.5099
   47RES    H3613008   4.041   5.689   2.680 -0.3168 -0.8661  1.3485
   47RES    H3713009   4.024   5.597   2.523  1.7366  1.1835 -0.3224
   47RES    H3813010   4.081   5.825   2.476  0.9867 -2.2131 -0.8363
   47RES    H3913011   3.886   5.885   2.692 -2.9375  1.8220  0.5230
   47RES    H4013012   3.823   5.942   2.536  0.4397 -1.0222 -0.0355
   47RES    H4113013   4.001   6.217   2.649 -2.2511  1.0434  3.4693
   47RES    H4213014   3.849   6.136   2.693 -1.1091  1.8768 -0.3258
   47RES    H4313015   3.894   6.166   2.519 -2.4045  0.2403  1.2527
   47RES    O4413016   3.903   5.766   2.390 -0.3508  0.5034  0.6695
   47RES    C4513017   3.991   5.747   2.279 -0.2607 -0.0721 -0.2140
   47RES    C4613018   3.915   5.703   2.156  0.3526 -0.0821  0.5837
   47RES    C4713019   3.884   5.823   2.053  0.1300 -0.6248  0.0143
   47RES    O4813020   3.769   5.794   1.970 -0.4335  0.2274 -0.2318
   47RES    C4913021   3.726   5.912   1.907  0.4119 -0.0401  0.5582
   47RES    H5013022   4.072   5.678   2.306 -0.5970 -0.7184 -0.8468
   47RES    H5113023   4.038   5.842   2.254  2.3538 -0.7904  1.7479
   47RES    H5213024   3.821   5.652   2.177  1.1464 -2.1687 -0.7801
   47RES    H5313025   3.874   5.918   2.104  0.5698 -0.4091 -0.2962
   47RES    H5413026   3.967   5.838   1.983  1.3392 -0.6389  1.4234
   47RES    H5513027   3.703   5.995   1.974  0.2634 -1.9482  2.9626
   47RES    H5613028   3.638   5.889   1.847  0.2482 -2.9659  1.8173
   47RES    H5713029   3.803   5.942   1.835 -1.1255  1.8699 -0.3436
   47RES    O5813030   3.999   5.606   2.087  0.2146  0.3069  0.0585
   47RES    C5913031   3.922   5.520   1.999  0.5343  0.6749  0.0055
   47RES    C6013032   4.011   5.407   1.942 -0.1585  0.8537 -0.1715
   47RES    C6113033   4.019   5.410   1.788 -0.1760  0.2096  0.1933
   47RES    O6213034   3.909   5.359   1.723 -0.1550  0.3646 -0.2577
   47RES    C6313035   3.903   5.366   1.583 -0.8868  0.5311 -0.1012
   47RES    H6413036   3.867   5.577   1.924  1.7777 -1.2540 -2.4769
   47RES    H6513037   3.842   5.475   2.058  0.9160 -0.1039 -0.0728
   47RES    H6613038   4.110   5.427   1.982  1.6107 -1.2320 -3.3328
   47RES    H6713039   4.045   5.514   1.767  2.9727 -0.3273  1.1216
   47RES    H6813040   4.106   5.351   1.758  0.0082  0.8291 -0.5191
   47RES    H6913041   3.928   5.469   1.559  0.5639 -0.2877 -2.2264
   47RES    H7013042   3.800   5.345   1.554 -0.5072  0.2500 -1.2558
   47RES    H7113043   3.969   5.305   1.522 -0.6334 -0.5026  1.1754
   47RES    O7213044   3.964   5.280   1.989  0.0710 -0.3740  0.9266
   47RES    C7313045   4.069   5.183   1.994  0.5292  0.7307  0.0432
   47RES    C7413046   4.022   5.041   2.017 -0.4576  0.0615 -0.0181
   47RES    C7513047   4.114   4.946   2.101  0.2169  0.0955 -0.0141
   47RES    O7613048   4.228   4.905   2.031 -0.0219  0.2950 -0.2788
   47RES    C7713049   4.224   4.779   1.969 -0.0187  0.4675  0.8567
   47RES    H7813050   4.141   5.180   1.913 -0.7649  0.7977 -1.1189
   47RES    H7913051   4.130   5.209   2.081  1.5446 -1.4846  0.0295
   47RES    H8013052   3.933   5.045   2.080  1.3575  0.6128  2.5759
   47RES    H8113053   4.055   4.864   2.140 -0.9645  0.5536 -0.8262
   47RES    H8213054   4.149   4.994   2.193  0.1236 -1.4151  0.8366
   47RES    H8313055   4.323   4.777   1.923  0.0704  2.4275  0.9312
   47RES    H8413056   4.143   4.763   1.899  0.3134 -0.0209  0.5841
   47RES    H8513057   4.229   4.706   2.050  1.5973 -1.6158 -1.0639
   47RES    O8613058   3.989   4.966   1.898 -0.2166 -0.3897 -0.4243
   47RES    C8713059   3.883   5.021   1.814  0.0263  0.1647  0.9340
   47RES    C8813060   3.860   4.924   1.696  0.5513  0.3497  0.8849
   47RES    C8913061   3.721   4.926   1.645  1.0167 -0.0945 -0.0454
   47RES    O9013062   3.703   4.850   1.530 -0.0715 -0.3829  0.3671
   47RES    C9113063   3.572   4.819   1.490  1.1974  0.9123 -0.0422
   47RES    H9213064   3.788   5.028   1.867 -1.9930 -0.1234 -2.5342
   47RES    H9313065   3.912   5.113   1.763  1.2263 -0.0634  1.1879
   47RES    H9413066   3.890   4.826   1.734  0.2054 -0.8057 -1.7353
   47RES    H9513067   3.649   4.882   1.714 -0.2807  0.9410 -0.7030
   47RES    H9613068   3.695   5.028   1.615  0.4617 -0.6889 -1.6367
   47RES    H9713069   3.508   4.903   1.465 -1.0769 -0.9447 -0.6707
   47RES    H9813070   3.575   4.750   1.405  2.1958  0.2061  0.5514
   47RES    H9913071   3.526   4.758   1.568 -1.2454 -0.1015 -2.2307
   47RES   O10013072   3.941   4.971   1.592 -0.0536  0.1441 -0.1453
   47RES   C10113073   4.070   4.911   1.585  0.0731 -0.1301  0.4604
   47RES   C10213074   4.126   4.950   1.449 -0.0350  0.2391 -0.6626
   47RES   C10313075   4.091   4.850   1.341 -0.7176  0.1856 -0.1650
   47RES   O10413076   4.128   4.900   1.215  0.5093 -0.2668  0.1166
   47RES   C10513077   4.134   4.803   1.118 -0.0409  0.2990 -0.0791
   47RES   H10613078   4.076   4.806   1.611 -2.1466  0.4655  3.5888
   47RES   H10713079   4.127   4.962   1.662 -1.8654  1.1575  1.0728
   47RES   H10813080   4.101   5.054   1.432 -0.1997  0.1712 -0.8304
   47RES   H10913081   3.984   4.828   1.335 -1.0613  1.8219 -0.0543
   47RES   H11013082   4.148   4.760   1.363  1.8029  1.5534 -0.9284
   47RES   H11113083   4.192   4.714   1.139 -1.1928 -0.3687  0.3080
   47RES   H11213084   4.166   4.859   1.030 -1.0036  0.2210 -0.4900
   47RES   H11313085   4.034   4.768   1.091  0.0450 -1.3684  1.6797
   47RES   O11413086   4.269   4.934   1.458  0.1184 -0.2453 -0.4230
   47RES   C11513087   4.349   5.050   1.427 -0.0183 -0.4631  0.2613
   47RES   C11613088   4.335   5.164   1.532 -0.2160  0.0733 -0.8754
   47RES   C11713089   4.417   5.127   1.661 -0.2654  0.0248 -0.3000
   47RES   O11813090   4.360   5.192   1.777 -0.5168 -0.1502 -0.7827
   47RES   C11913091   4.415   5.151   1.899 -0.6071  0.9698  0.1599
   47RES   H12013092   4.454   5.028   1.405  0.5518  1.3110  1.2164
   47RES   H12113093   4.321   5.104   1.336 -1.3878  0.6758  1.3485
   47RES   H12213094   4.229   5.169   1.555 -0.6262 -4.1159 -1.4380
   47RES   H12313095   4.449   5.024   1.678 -1.2214 -0.6117 -2.2574
   47RES   H12413096   4.514   5.177   1.655  0.5797 -1.2449  1.8612
   47RES   H12513097   4.388   5.046   1.907  0.5462  0.7156  0.8499
   47RES   H12613098   4.366   5.208   1.978 -0.0087 -1.3045  2.2342
   47RES   H12713099   4.523   5.165   1.898 -0.7493  2.2184  1.1594
   47RES   O12813100   4.370   5.289   1.474  0.4224  0.5878 -0.2312
   47RES   C12913101   4.300   5.399   1.532  0.6131  0.2839 -0.3280
   47RES   C13013102   4.313   5.529   1.449 -0.3476 -0.0129 -0.1458
   47RES   C13113103   4.282   5.660   1.526  0.4916  0.3309  0.1675
   47RES   O13213104   4.147   5.674   1.570 -0.2201 -0.3717  0.2621
   47RES   C13313105   4.132   5.786   1.656  0.4075 -0.1528  0.6317
   47RES   H13413106   4.195   5.382   1.554  0.3799  0.0547 -1.6167
   47RES   H13513107   4.345   5.419   1.630 -1.3455  1.4211  0.3571
   47RES   H13613108   4.419   5.541   1.428  0.2932 -3.7212  0.4797
   47RES   H13713109   4.308   5.743   1.460  0.2463  1.2575  1.2192
   47RES   H13813110   4.350   5.681   1.609 -0.4795 -1.4303  1.4364
   47RES   H13913111   4.176   5.876   1.612 -1.2774 -0.3235 -1.4767
   47RES   H14013112   4.024   5.798   1.665  0.4868  0.4237  0.8594
   47RES   H14113113   4.173   5.767   1.755  0.4728  2.0107  1.0563
   47RES   O14213114   4.232   5.529   1.336  0.2026  0.3002  0.1967
   47RES   C14313115   4.295   5.464   1.229 -0.1431  0.2991 -0.3366
   47RES   C14413116   4.204   5.480   1.102  0.6259  0.5380  0.1335
   47RES   C14513117   4.200   5.630   1.076  0.2361  0.3243  0.0806
   47RES   O14613118   4.146   5.639   0.939  0.0203 -0.2903  0.4449
   47RES   C14713119   4.246   5.627   0.835  0.1537  0.1494  0.2901
   47RES   H14813120   4.390   5.510   1.201 -0.9615  2.7325  0.7183
   47RES   H14913121   4.321   5.363   1.260 -0.0488 -0.0201 -1.4084
   47RES   H15013122   4.256   5.422   1.026  0.7259  2.7840 -1.5457
   47RES   H15113123   4.304   5.664   1.081  1.8750 -4.2904 -0.5527
   47RES   H15213124   4.133   5.678   1.147 -0.6737 -1.3680  0.3844
   47RES   H15313125   4.332   5.563   0.857  1.5014  1.8396  0.0072
   47RES   H15413126   4.282   5.725   0.806  0.3631 -0.5021 -1.7474
   47RES   H15513127   4.187   5.576   0.758 -1.2001 -1.5850  2.4228
   47RES   O15613128   4.070   5.436   1.121  0.4986 -0.6062  0.0518
   47RES   C15713129   4.049   5.314   1.186  0.5002  0.0792 -0.5249
   47RES   C15813130   3.912   5.253   1.145 -0.5025 -0.2522  0.3318
   47RES   C15913131   3.847   5.159   1.254 -0.0106 -0.3657 -0.1034
   47RES   O16013132   3.706   5.184   1.235  0.6189  0.9630  0.5091
   47RES   C16113133   3.628   5.136   1.340 -0.3365  0.5330  0.3304
   47RES   H16213134   4.136   5.249   1.176  1.4552  1.4267 -0.9995
   47RES   H16313135   4.040   5.337   1.292  1.8205  1.8275 -0.7873
   47RES   H16413136   3.847   5.340   1.135 -0.6370 -0.1782  1.6742
   47RES   H16513137   3.852   5.056   1.219 -2.1418 -1.1425  1.7908
   47RES   H16613138   3.889   5.163   1.355 -0.1702 -0.0688 -0.0497
   47RES   H16713139   3.534   5.192   1.347  0.7074  2.1541  1.9127
   47RES   H16813140   3.674   5.159   1.436  2.6059  0.0128 -0.8980
   47RES   H16913141   3.606   5.030   1.325 -0.5196  0.0670  3.6103
   47RES   O17013142   3.916   5.182   1.021 -0.2755  0.0439  0.0144
   47RES   C17113143   3.903   5.263   0.905  0.4745 -0.8960  0.0217
   47RES   C17213144   3.892   5.178   0.785  0.1090 -0.3265  0.1855
   47RES   C17313145   3.901   5.270   0.662 -0.3295 -0.7813  0.3250
   47RES   O17413146   3.914   5.187   0.544 -0.2831 -0.6330 -0.1785
   47RES   C17513147   3.961   5.277   0.433 -0.1864 -0.3418  0.0339
   47RES   H17613148   3.985   5.332   0.885  1.0369 -0.7197  2.7541
   47RES   H17713149   3.813   5.324   0.911  1.4999  0.6514 -0.1865
   47RES   H17813150   3.964   5.096   0.784 -0.5641 -0.9228 -1.2335
   47RES   H17913151   3.813   5.331   0.641 -2.7448 -3.7442  1.5401
   47RES   H18013152   3.977   5.347   0.677 -0.5244 -0.7098  0.9835
   47RES   H18113153   3.961   5.239   0.331  1.5563  0.9044 -0.4471
   47RES   H18213154   4.061   5.320   0.437 -0.0978 -0.5353 -0.0971
   47RES   H18313155   3.888   5.357   0.421 -0.3312 -0.5015 -0.1413
   47RES   O18413156   3.761   5.116   0.807  0.0709  0.1814  0.0346
   47RES   C18513157   3.733   5.003   0.729  0.3694  0.2053 -0.3694
   47RES   C18613158   3.581   4.974   0.749 -0.1291  0.5205 -0.3230
   47RES   C18713159   3.567   4.819   0.727 -0.1780  0.3614  0.2841
   47RES   O18813160   3.435   4.764   0.762 -0.1486  0.1879  0.4215
   47RES   C18913161   3.335   4.784   0.666 -0.2090 -0.1742  0.0307
   47RES   H19013162   3.783   4.915   0.769 -2.3219 -0.2494  2.1375
   47RES   H19113163   3.748   5.010   0.622 -0.5028  2.0932 -0.3897
   47RES   H19213164   3.553   5.000   0.851  1.7543 -2.2018  0.9486
   47RES   H19313165   3.633   4.762   0.793 -0.8929  0.1028  0.7832
   47RES   H19413166   3.588   4.790   0.624 -1.4076  3.0037 -0.7610
   47RES   H19513167   3.239   4.753   0.707 -0.3093 -0.0131 -0.0838
   47RES   H19613168   3.332   4.889   0.638 -0.5001  0.1392  1.2080
   47RES   H19713169   3.352   4.729   0.574 -0.0995  0.2561 -0.2056
   47RES   O19813170   3.514   5.043   0.646  0.2194  0.2321 -0.1925
   47RES   C19913171   3.490   5.180   0.676 -0.5852  0.1513  0.3665
   47RES   C20013172   3.423   5.236   0.557 -1.0352 -0.6191  0.1215
   47RES   C20113173   3.521   5.248   0.441  0.1386 -0.3041 -0.3069
   47RES   O20213174   3.449   5.260   0.320  0.0342  0.1071 -0.3364
   47RES   C20313175   3.525   5.278   0.202 -0.4486 -0.4004 -0.2435
   47RES   H20413176   3.574   5.247   0.693 -0.5612 -0.1122  1.3851
   47RES   H20513177   3.416   5.190   0.756 -3.9189  1.9587 -2.8217
   47RES   H20613178   3.346   5.170   0.518 -2.6157  1.6480 -0.7169
   47RES   H20713179   3.566   5.345   0.458 -1.3219  0.1335  1.2534
   47RES   H20813180   3.589   5.163   0.436  2.1302  1.2626 -0.3457
   47RES   H20913181   3.605   5.204   0.200  0.0417  0.1025  0.7139
   47RES   H21013182   3.563   5.380   0.200 -0.6943 -0.3176 -2.4418
   47RES   H21113183   3.457   5.267   0.118 -2.9528 -0.6491  1.7774
   47RES   O21213184   3.369   5.366   0.570  0.4180  0.3012  0.0189
   47RES   C21313185   3.277   5.386   0.684 -0.0869  0.0566 -0.3184
   47RES   C21413186   3.196   5.507   0.663  0.1854 -0.7011  0.6888
   47RES   C21513187   3.104   5.546   0.780  0.2843  0.1994  0.2322
   47RES   O21613188   3.041   5.677   0.749 -0.6453 -0.6336  0.0584
   47RES   C21713189   2.927   5.713   0.830 -0.4603  0.4898 -0.6672
   47RES   H21813190   3.341   5.398   0.771 -0.6117  0.3887  0.0287
   47RES   H21913191   3.219   5.295   0.704  0.5633 -0.1606  0.6197
   47RES   H22013192   3.257   5.596   0.645  0.6386 -1.1346  0.0469
   47RES   H22113193   3.034   5.466   0.805 -0.3775  0.6081 -0.2638
   47RES   H22213194   3.164   5.558   0.870  0.5725  1.8544 -0.1695
   47RES   H22313195   2.955   5.671   0.927  0.2171 -0.1218 -1.1226
   47RES   H22413196   2.840   5.667   0.784  0.4347 -3.0733  0.9910
   47RES   H22513197   2.921   5.821   0.840 -2.0281  0.1666  2.5787
   47RES   O22613198   3.112   5.473   0.552  0.8194 -0.1632  0.6116
   47RES   C22713199   3.073   5.570   0.460  0.0886  0.0866 -0.0769
   47RES   C22813200   3.180   5.602   0.359  0.0580 -1.2277 -0.0265
   47RES   C22913201   3.119   5.685   0.243 -1.1437  0.2331 -0.1571
   47RES   O23013202   3.190   5.653   0.125 -0.1490  0.3174 -0.1737
   47RES   C23113203   3.125   5.665   7.815 -0.7176 -0.7504  0.1841
   47RES   H23213204   3.030   5.660   0.505 -1.1867 -0.6611  0.2182
   47RES   H23313205   2.996   5.520   0.401 -1.1313  1.1986  0.5379
   47RES   H23413206   3.225   5.507   0.330  1.3264 -0.6346 -0.0325
   47RES   H23513207   3.119   5.793   0.256  2.2757  0.1785  0.8101
   47RES   H23613208   3.014   5.659   0.229 -1.1799  0.2356  0.1000
   47RES   H23713209   3.186   5.617   7.738  3.2739  2.0348  1.4526
   47RES   H23813210   3.124   5.768   7.778  0.1627 -0.6175  0.5166
   47RES   H23913211   3.024   5.626   7.815 -1.4239  0.9717  2.5003
   47RES   O24013212   3.276   5.682   0.423  0.3548 -0.2255 -0.0723
   47RES   C24113213   3.411   5.659   0.390  0.5401  0.0620 -0.5300
   47RES   C24213214   3.487   5.783   0.350  0.0717  0.2358 -0.4059
   47RES   C24313215   3.462   5.892   0.461 -0.4240 -0.5678  0.0225
   47RES   O24413216   3.513   6.018   0.416 -0.1438 -0.0056 -0.1762
   47RES   C24513217   3.473   6.128   0.498 -0.3697  0.7305  0.4417
   47RES   H24613218   3.432   5.586   0.312 -0.6615 -1.6644  0.7154
   47RES   H24713219   3.456   5.611   0.478  0.6847  0.1003 -0.5829
   47RES   H24813220   3.447   5.837   0.265  1.5580  0.4154 -1.0003
   47RES   H24913221   3.355   5.908   0.477 -0.3159  0.2589 -0.0263
   47RES   H25013222   3.496   5.867   0.562 -0.9743  0.4377  0.4742
   47RES   H25113223   3.508   6.118   0.601 -1.6733 -1.6012  0.6982
   47RES   H25213224   3.366   6.143   0.508 -0.5561  0.1104 -0.5492
   47RES   H25313225   3.511   6.219   0.452  0.2417  0.0414 -0.4452
   47RES   O25413226   3.626   5.761   0.362  0.4069 -0.4225  0.0583
   47RES   C25513227   3.680   5.657   0.282  0.5549 -0.1713 -0.0622
   47RES   C25613228   3.826   5.698   0.241  0.2045  0.6009 -0.0767
   47RES   C25713229   3.884   5.576   0.177 -0.2714 -0.0349 -0.5494
   47RES   O25813230   3.823   5.541   0.048 -0.6242  0.2533  0.0587
   47RES   C25913231   3.893   5.431   7.815  0.1776  0.4416  0.0217
   47RES   H26013232   3.689   5.559   0.329  0.9119 -1.6824 -3.1472
   47RES   H26113233   3.617   5.644   0.194  1.7716  1.2778 -1.1766
   47RES   H26213234   3.886   5.715   0.330  0.4847  1.6066 -0.4510
   47RES   H26313235   3.990   5.594   0.158 -0.1300 -0.5732 -0.2785
   47RES   H26413236   3.871   5.490   0.242  1.3684 -0.6920 -1.0560
   47RES   H26513237   3.889   5.334   0.049  2.8599  0.3797  0.1859
   47RES   H26613238   3.998   5.457   7.802  0.5368  0.7160  3.0067
   47RES   H26713239   3.861   5.393   7.718 -0.9205 -1.6350  1.1472
   47RES   O26813240   3.846   5.810   0.160  0.4229 -0.0270  0.8968
   47RES   C26913241   3.825   5.939   0.215  0.1372 -0.1715  0.0461
   47RES   C27013242   3.867   6.039   0.111 -0.1583 -0.4109  0.5088
   47RES   C27113243   3.852   6.179   0.178  0.1362  0.2323 -0.5084
   47RES   O27213244   3.848   6.276   0.078  0.6411  0.1115  0.1629
   47RES   C27313245   3.905   6.401   0.111  0.0649 -0.0644  0.3934
   47RES   H27413246   3.889   5.952   0.302  1.2083 -3.3603 -0.1779
   47RES   H27513247   3.724   5.956   0.252 -0.2030  1.5380 -1.6265
   47RES   H27613248   3.964   6.012   0.069 -0.2900  2.4579 -1.8274
   47RES   H27713249   3.933   6.183   0.250 -0.7325 -0.6593  0.5354
   47RES   H27813250   3.760   6.175   0.236  1.7802  1.0412  2.2412
   47RES   H27913251   4.013   6.416   0.109 -0.0663  1.2975  2.5809
   47RES   H28013252   3.872   6.429   0.211  2.9822  0.1082  1.3441
   47RES   H28113253   3.853   6.474   0.049  0.9308 -0.1438 -0.4327
   47RES   H28213254   3.796   6.029   0.030  0.5323 -1.0154 -0.0296
   48RES     O113255   4.392   0.554   2.097 -0.1910  0.0017  0.3571
   48RES     C213256   4.321   0.676   2.077  0.1678 -0.2081 -0.4437
   48RES     C313257   4.194   0.636   1.986 -0.4681 -0.0065 -0.2292
   48RES     C413258   4.102   0.750   2.007 -0.7290  0.6591  0.2799
   48RES     O513259   3.986   0.722   1.923 -0.1531  0.6604  0.2415
   48RES     C613260   3.871   0.803   1.941 -0.3838 -1.2306 -0.4653
   48RES     H713261   4.286   0.705   2.176  1.1280 -0.5543 -0.0004
   48RES     H813262   4.379   0.759   2.037  1.0718 -1.2771 -1.3776
   48RES     H913263   4.145   0.551   2.034  0.8145  0.1033  1.3083
   48RES    H1013264   4.145   0.848   1.985 -1.4189  0.8764 -0.0983
   48RES    H1113265   4.066   0.748   2.110 -0.3528 -1.1526  0.3913
   48RES    H1213266   3.899   0.909   1.947 -0.6700 -1.1910  0.1345
   48RES    H1313267   3.801   0.784   1.860  0.4835 -1.0773 -1.2658
   48RES    H1413268   3.809   0.779   2.027 -1.0346  0.8684 -0.3240
   48RES    H1513269   4.405   0.511   2.014  0.6964  1.3544 -0.2296
   48RES    O1613270   4.229   0.606   1.853  0.2755 -0.4795 -0.4459
   48RES    C1713271   4.277   0.712   1.781  0.5058 -0.3414 -0.0850
   48RES    C1813272   4.320   0.666   1.643 -0.3390  0.2198 -0.3648
   48RES    C1913273   4.322   0.775   1.534  0.7123 -0.0644 -1.1478
   48RES    O2013274   4.336   0.718   1.406  0.3778  0.0715  0.0584
   48RES    C2113275   4.387   0.801   1.308  0.2611 -0.6172 -0.1323
   48RES    H2213276   4.361   0.754   1.836  0.4367  1.3821 -1.2515
   48RES    H2313277   4.199   0.789   1.774  0.3037 -0.1020  3.5066
   48RES    H2413278   4.251   0.587   1.613 -1.8293  1.4627 -0.2737
   48RES    H2513279   4.228   0.831   1.544 -0.2779 -2.0477  1.2060
   48RES    H2613280   4.394   0.853   1.558 -0.3819  0.6335 -0.0929
   48RES    H2713281   4.360   0.757   1.212 -0.6171  0.7524 -0.5301
   48RES    H2813282   4.496   0.806   1.315  0.1502  3.2413 -0.2805
   48RES    H2913283   4.356   0.905   1.306 -1.5787 -1.1646 -1.0556
   48RES    O3013284   4.457   0.616   1.649  0.8432 -0.4219  0.4205
   48RES    C3113285   4.473   0.477   1.603  0.3420  0.1304  0.6204
   48RES    C3213286   4.604   0.417   1.657  0.1036 -0.7089 -0.1669
   48RES    C3313287   4.623   0.274   1.613 -0.3830 -0.2898  0.5013
   48RES    O3413288   4.754   0.248   1.638  0.0181  0.1901  0.5553
   48RES    C3513289   4.788   0.115   1.602 -0.4640  0.3217 -0.0646
   48RES    H3613290   4.394   0.409   1.635  1.6260 -1.6803  0.0574
   48RES    H3713291   4.467   0.483   1.494 -2.4683  0.5870  0.7671
   48RES    H3813292   4.687   0.479   1.625  1.3437 -2.4398 -0.4150
   48RES    H3913293   4.594   0.264   1.508  0.0283 -0.7745  0.4338
   48RES    H4013294   4.548   0.219   1.670 -1.4410  0.3781 -0.2303
   48RES    H4113295   4.885   0.109   1.652 -0.7252  0.8661  0.5206
   48RES    H4213296   4.809   0.116   1.495 -4.2111 -2.8778 -0.9257
   48RES    H4313297   4.721   0.039   1.640  0.8977 -1.3240 -0.9143
   48RES    O4413298   4.598   0.410   1.806 -0.2476 -0.1743  0.0512
   48RES    C4513299   4.697   0.497   1.864 -0.1911  0.3374 -0.2698
   48RES    C4613300   4.849   0.453   1.875 -0.3554  0.1147  0.5931
   48RES    C4713301   4.934   0.572   1.900 -0.3549 -0.0667  0.8529
   48RES    O4813302   5.065   0.544   1.945 -0.2570 -0.3506 -0.3997
   48RES    C4913303   5.149   0.482   1.855 -0.5520 -0.8214  0.3687
   48RES    H5013304   4.669   0.526   1.966 -1.0784  2.0945 -0.9878
   48RES    H5113305   4.696   0.589   1.806  0.4559 -1.0137 -2.4584
   48RES    H5213306   4.887   0.401   1.787  0.3858 -1.8379  2.0565
   48RES    H5313307   4.956   0.629   1.809 -0.4107  0.7356  1.3398
   48RES    H5413308   4.889   0.641   1.972 -0.9611 -1.6856  2.0530
   48RES    H5513309   5.158   0.524   1.755  1.2051 -1.0305  0.4201
   48RES    H5613310   5.125   0.376   1.852 -1.1806 -0.6748  0.1305
   48RES    H5713311   5.247   0.489   1.903  0.6530  3.3964 -2.3941
   48RES    O5813312   4.865   0.380   1.997  0.2704 -0.2174  0.4766
   48RES    C5913313   4.843   0.235   1.969 -0.1481 -1.6648  0.2036
   48RES    C6013314   4.921   0.157   2.073 -0.0342 -0.1969 -0.8687
   48RES    C6113315   4.951   0.015   2.021 -0.5598  1.1584  0.1071
   48RES    O6213316   5.034   7.753   2.101 -0.4454  0.3117 -0.4689
   48RES    C6313317   5.067   7.627   2.047  0.2066 -0.6807 -0.7616
   48RES    H6413318   4.875   0.204   1.870 -3.5001 -2.8174 -0.6127
   48RES    H6513319   4.735   0.218   1.979 -0.3119  0.0721  1.6397
   48RES    H6613320   5.018   0.206   2.082 -1.5627  3.0013 -1.1199
   48RES    H6713321   4.855   7.779   2.027 -0.1304  0.3423 -0.1758
   48RES    H6813322   4.993   0.013   1.921 -0.6792 -0.5270  0.0679
   48RES    H6913323   5.138   7.585   2.117  1.9795  0.2184 -1.9782
   48RES    H7013324   5.116   7.643   1.950  2.7320  1.9817  0.8649
   48RES    H7113325   4.972   7.578   2.025  0.2147 -2.1443  2.2377
   48RES    O7213326   4.845   0.146   2.190  0.5039  0.0230  0.0866
   48RES    C7313327   4.925   0.118   2.304 -0.1772  0.2951 -0.3583
   48RES    C7413328   4.850   0.115   2.436  0.2888 -0.6168  0.3674
   48RES    C7513329   4.941   0.147   2.560 -0.7907 -1.0360 -0.5951
   48RES    O7613330   4.868   0.207   2.669  0.1495  0.0555 -0.1908
   48RES    C7713331   4.944   0.212   2.792  0.2605  0.3026  0.3941
   48RES    H7813332   4.973   0.020   2.305 -0.0019  0.3533  3.7102
   48RES    H7913333   4.999   0.198   2.301  0.4784 -0.3411 -2.1774
   48RES    H8013334   4.761   0.177   2.427  0.0010 -1.2442 -1.3308
   48RES    H8113335   5.019   0.219   2.533 -0.1282  0.3861  4.6379
   48RES    H8213336   5.002   0.061   2.589 -0.5062 -1.0025 -1.0729
   48RES    H8313337   5.038   0.263   2.771 -0.0482  0.3338 -0.9400
   48RES    H8413338   4.982   0.117   2.828 -1.9407 -1.1637 -1.0533
   48RES    H8513339   4.894   0.256   2.879 -1.6001 -1.5915  0.3200
   48RES    O8613340   4.805   7.797   2.460  0.1847 -0.1822  0.7501
   48RES    C8713341   4.699   7.744   2.375 -0.4473 -0.4275  0.0357
   48RES    C8813342   4.676   7.591   2.404 -0.0549 -0.1370  0.1282
   48RES    C8913343   4.553   7.542   2.324  0.0373  0.1337  0.2397
   48RES    O9013344   4.504   7.436   2.408 -0.0158 -0.2975  0.2261
   48RES    C9113345   4.372   7.398   2.400 -0.3580 -0.3825  0.2521
   48RES    H9213346   4.609   7.801   2.398 -0.6714 -1.1528  0.9956
   48RES    H9313347   4.725   7.750   2.269 -1.0268  0.1648 -0.0794
   48RES    H9413348   4.651   7.594   2.510 -1.0409  2.5350 -0.1497
   48RES    H9513349   4.469   7.609   2.305 -0.6932 -0.7404  0.3302
   48RES    H9613350   4.586   7.493   2.232  0.2620  0.7184  0.0117
   48RES    H9713351   4.315   7.479   2.443 -1.2017 -1.6747  1.6259
   48RES    H9813352   4.331   7.380   2.301 -1.0176  1.8023  0.1126
   48RES    H9913353   4.355   7.315   2.469  0.4687 -0.5821  0.2262
   48RES   O10013354   4.779   7.500   2.371 -0.3738  0.0035  0.5164
   48RES   C10113355   4.895   7.504   2.453 -0.0101 -0.1854 -0.4422
   48RES   C10213356   5.009   7.419   2.392 -0.2872  0.8681 -0.1926
   48RES   C10313357   4.964   7.275   2.357  0.4807 -0.0949  0.0910
   48RES   O10413358   5.080   7.201   2.310 -0.3278  0.0930  0.0143
   48RES   C10513359   5.078   7.067   2.354  0.2582  1.2176 -0.1697
   48RES   H10613360   4.867   7.457   2.547 -0.9207 -2.8494 -2.0027
   48RES   H10713361   4.925   7.607   2.473 -1.1691  0.0190  0.3181
   48RES   H10813362   5.044   7.466   2.300 -0.2881 -1.3024 -1.3441
   48RES   H10913363   4.881   7.263   2.287 -0.3215  0.8717  0.8524
   48RES   H11013364   4.929   7.238   2.454 -1.1194  1.1020 -0.0026
   48RES   H11113365   5.092   7.053   2.461  0.9518  0.2114 -0.3781
   48RES   H11213366   5.166   7.020   2.309 -1.3956 -2.0808 -0.1673
   48RES   H11313367   4.994   7.003   2.325  1.2896 -1.0012  1.5842
   48RES   O11413368   5.116   7.420   2.490 -0.0747 -0.1210 -0.6238
   48RES   C11513369   5.253   7.410   2.442  0.0421  0.1159  0.0051
   48RES   C11613370   5.347   7.386   2.570 -0.9040 -0.1526 -0.3244
   48RES   C11713371   5.474   7.290   2.538 -0.0000  0.0421  0.4154
   48RES   O11813372   5.512   7.201   2.639 -0.2063 -0.2310 -0.2398
   48RES   C11913373   5.568   7.276   2.744 -0.0808 -1.2613 -0.0684
   48RES   H12013374   5.260   7.319   2.382  1.0414  0.5632 -0.5703
   48RES   H12113375   5.287   7.491   2.379  1.6208  0.1497  0.8634
   48RES   H12213376   5.286   7.344   2.650  0.8195 -1.0578  0.5689
   48RES   H12313377   5.468   7.233   2.446  1.5880  1.1591 -0.3905
   48RES   H12413378   5.557   7.356   2.518 -0.0831 -0.3831 -1.3800
   48RES   H12513379   5.492   7.300   2.818 -2.2865 -2.5930 -1.8494
   48RES   H12613380   5.623   7.365   2.716 -1.7596 -0.1276  0.1724
   48RES   H12713381   5.637   7.213   2.801  0.1250 -1.4488 -0.5228
   48RES   O12813382   5.398   7.516   2.612  1.0250  0.0591 -0.8720
   48RES   C12913383   5.302   7.615   2.650 -0.0803 -0.1813 -0.5947
   48RES   C13013384   5.377   7.737   2.713  1.0225 -0.0832 -0.5721
   48RES   C13113385   5.297   0.050   2.697  0.4759 -0.7641 -0.6867
   48RES   O13213386   5.311   0.135   2.810 -0.3621  0.0529  1.1221
   48RES   C13313387   5.428   0.221   2.821 -0.5871  0.2796 -0.2700
   48RES   H13413388   5.250   7.657   2.564 -1.4217 -0.3961  0.0954
   48RES   H13513389   5.234   7.568   2.721 -1.2773 -1.1536 -2.3174
   48RES   H13613390   5.409   7.718   2.815  1.6873  0.9544 -0.5776
   48RES   H13713391   5.192   0.021   2.695 -0.1654  1.4545 -0.3412
   48RES   H13813392   5.312   0.109   2.606  2.1919  0.6411  0.4479
   48RES   H13913393   5.437   0.285   2.733 -1.0726 -0.8906 -1.1870
   48RES   H14013394   5.420   0.285   2.909 -1.5327  0.7778 -0.7154
   48RES   H14113395   5.530   0.183   2.817  1.0032  4.3803 -1.6335
   48RES   O14213396   5.491   7.778   2.632  0.0510  0.3891  0.3475
   48RES   C14313397   5.614   7.745   2.690  0.3512 -0.6313 -0.5394
   48RES   C14413398   5.730   7.757   2.589  0.9717  0.0674  0.5120
   48RES   C14513399   5.868   7.699   2.628 -0.4950  0.1381 -0.2353
   48RES   O14613400   5.979   7.747   2.545 -0.2589  0.4597 -0.2917
   48RES   C14713401   5.980   7.685   2.417 -1.0253  0.3515 -0.4191
   48RES   H14813402   5.628   7.808   2.777  0.6942 -0.9531 -0.3576
   48RES   H14913403   5.605   7.642   2.723 -2.5461 -0.6880 -1.4147
   48RES   H15013404   5.708   7.708   2.494 -0.6249  0.1764  0.8146
   48RES   H15113405   5.861   7.590   2.619 -0.3945  0.0835  0.3632
   48RES   H15213406   5.884   7.722   2.733  1.4896 -0.0561 -0.4728
   48RES   H15313407   5.910   7.728   2.347 -0.9752  1.1969  0.0380
   48RES   H15413408   5.954   7.579   2.419  0.4252 -0.0131  0.8655
   48RES   H15513409   6.081   7.683   2.376 -0.4422 -0.6285  0.9979
   48RES   O15613410   5.761   0.075   2.570  1.0108 -0.8824  0.2840
   48RES   C15713411   5.691   0.137   2.467 -0.5331 -0.2145  0.0678
   48RES   C15813412   5.716   0.286   2.478  0.5216 -0.0524 -0.5383
   48RES   C15913413   5.868   0.324   2.489  0.1944  0.9163 -0.1347
   48RES   O16013414   5.892   0.464   2.493 -0.1593 -0.8561  0.4454
   48RES   C16113415   5.878   0.528   2.369 -0.1315  0.4070  0.1814
   48RES   H16213416   5.730   0.105   2.370  0.0461 -1.4427  0.6812
   48RES   H16313417   5.585   0.114   2.470 -0.7390  0.8731  1.1420
   48RES   H16413418   5.675   0.334   2.389 -0.7863  0.2777  0.2116
   48RES   H16513419   5.902   0.280   2.582  1.8337  0.2418 -1.0335
   48RES   H16613420   5.926   0.278   2.409  0.0463 -0.3548  0.4780
   48RES   H16713421   5.775   0.525   2.332 -0.1120 -0.0606  0.1594
   48RES   H16813422   5.949   0.483   2.299  0.1491  0.1733  0.6145
   48RES   H16913423   5.889   0.635   2.384 -0.6110  0.6298 -0.9902
   48RES   O17013424   5.638   0.323   2.595 -0.6500  0.0599  0.0148
   48RES   C17113425   5.631   0.458   2.629 -0.3376 -0.0491 -0.4989
   48RES   C17213426   5.546   0.548   2.539 -0.1684  0.9217 -0.4025
   48RES   C17313427   5.585   0.695   2.543 -0.1196 -0.3962  0.1461
   48RES   O17413428   5.544   0.749   2.421  0.0098  0.6369 -0.3081
   48RES   C17513429   5.601   0.870   2.404  0.4714 -0.0729  0.7213
   48RES   H17613430   5.727   0.508   2.636 -0.4193 -0.1430  1.5775
   48RES   H17713431   5.594   0.464   2.731  1.7330 -2.1102  0.4258
   48RES   H17813432   5.552   0.501   2.441  1.9720  2.2556 -0.9232
   48RES   H17913433   5.552   0.750   2.632 -1.1853 -0.0241 -0.4695
   48RES   H18013434   5.693   0.700   2.537 -0.3161  1.5460 -2.4001
   48RES   H18113435   5.710   0.867   2.404  0.5307  0.7044 -1.6484
   48RES   H18213436   5.576   0.938   2.485  1.5127 -1.8380  2.5596
   48RES   H18313437   5.570   0.920   2.312 -0.3995  0.2957  1.2151
   48RES   O18413438   5.420   0.519   2.598 -0.4542 -0.7421 -0.6293
   48RES   C18513439   5.311   0.576   2.525 -0.8051 -0.0713 -0.5841
   48RES   C18613440   5.183   0.510   2.575 -0.5172 -0.6507 -0.5284
   48RES   C18713441   5.072   0.517   2.472 -0.2183  0.2320  0.5163
   48RES   O18813442   5.091   0.435   2.365 -0.0951 -0.3121 -0.2681
   48RES   C18913443   5.024   0.475   2.240  0.0113  0.3741  0.8477
   48RES   H19013444   5.333   0.545   2.422  0.9062 -2.4286  0.4476
   48RES   H19113445   5.302   0.684   2.524 -1.8748 -0.1564 -0.0954
   48RES   H19213446   5.196   0.405   2.598  0.7180 -0.1715  1.0655
   48RES   H19313447   5.064   0.622   2.443 -0.9243  0.0380 -0.0210
   48RES   H19413448   4.979   0.490   2.523 -1.5163  1.2554 -1.2692
   48RES   H19513449   4.916   0.486   2.247 -0.1235  0.1369 -0.6374
   48RES   H19613450   5.067   0.573   2.216  0.4127 -0.2366 -1.0274
   48RES   H19713451   5.046   0.400   2.164  0.9429 -1.1790  2.6070
   48RES   O19813452   5.142   0.579   2.691 -0.5287 -0.2195 -0.7229
   48RES   C19913453   5.210   0.546   2.816  0.6700  0.4161 -0.1190
   48RES   C20013454   5.135   0.612   2.937  0.1541 -0.1915  0.3843
   48RES   C20113455   5.215   0.602   3.065  0.2293  0.1837 -0.1243
   48RES   O20213456   5.189   0.730   3.119  0.0627  0.4119 -0.0722
   48RES   C20313457   5.285   0.779   3.203 -0.3023 -0.5835 -0.3740
   48RES   H20413458   5.308   0.594   2.813  0.4011  0.9577 -0.3497
   48RES   H20513459   5.223   0.439   2.834 -1.0475  0.1561 -0.2912
   48RES   H20613460   5.125   0.718   2.913 -0.5231 -0.4797 -0.6610
   48RES   H20713461   5.180   0.517   3.123 -0.6114  1.0059  0.5807
   48RES   H20813462   5.323   0.588   3.051  0.2426 -0.2115  0.3389
   48RES   H20913463   5.307   0.706   3.281 -0.1013 -0.5764 -0.4227
   48RES   H21013464   5.265   0.874   3.252 -0.8239 -0.4701 -0.8096
   48RES   H21113465   5.383   0.782   3.156  0.1106  0.5404  0.5197
   48RES   O21213466   5.009   0.544   2.938  0.3667  0.2900  0.1496
   48RES   C21313467   4.925   0.572   3.047  0.3642 -0.0948  0.1706
   48RES   C21413468   4.775   0.577   3.002  0.1755  0.1500 -0.2675
   48RES   C21513469   4.679   0.606   3.120  0.2516  1.0189 -0.7401
   48RES   O21613470   4.553   0.662   3.079 -0.4237 -0.3755  0.3870
   48RES   C21713471   4.477   0.700   3.187  0.1316 -0.4714  0.3601
   48RES   H21813472   4.958   0.671   3.079 -1.1612  0.8947 -1.2146
   48RES   H21913473   4.936   0.507   3.133 -2.4423  1.2011  1.5400
   48RES   H22013474   4.786   0.658   2.931 -0.0576  0.9274  0.5713
   48RES   H22113475   4.664   0.506   3.160  2.7172  0.0267 -2.2019
   48RES   H22213476   4.740   0.659   3.193  1.0920  1.1990 -1.5674
   48RES   H22313477   4.423   0.612   3.224 -0.2894 -0.6347 -0.6331
   48RES   H22413478   4.400   0.765   3.148 -1.1886 -1.6516  0.9423
   48RES   H22513479   4.515   0.756   3.272  1.2061 -2.6343  1.3668
   48RES   O22613480   4.744   0.446   2.944 -0.3626 -0.6386 -0.5372
   48RES   C22713481   4.650   0.456   2.841 -0.4210 -0.2722  0.1734
   48RES   C22813482   4.718   0.503   2.706  0.2503 -0.2059 -0.1724
   48RES   C22913483   4.643   0.430   2.591 -0.1206 -0.4375  0.8277
   48RES   O23013484   4.694   0.464   2.465 -0.4982  0.1750  0.6358
   48RES   C23113485   4.601   0.427   2.371  0.1853 -0.5834  0.0169
   48RES   H23213486   4.566   0.519   2.871  0.6828  1.0548  0.5419
   48RES   H23313487   4.606   0.357   2.829 -2.0658  0.6087 -1.2479
   48RES   H23413488   4.824   0.476   2.701  0.6679  0.8857  2.4220
   48RES   H23513489   4.535   0.443   2.605 -0.4751 -1.0634 -1.1552
   48RES   H23613490   4.664   0.323   2.595  0.8175 -0.2450  1.0255
   48RES   H23713491   4.657   0.416   2.278  2.8626 -1.4639  1.6946
   48RES   H23813492   4.524   0.502   2.355  0.1060  0.1785  3.5473
   48RES   H23913493   4.544   0.335   2.386 -0.8938  0.3216  1.6418
   48RES   O24013494   4.687   0.638   2.698 -0.1499 -0.4923 -0.0070
   48RES   C24113495   4.786   0.720   2.632  0.4552  0.3304 -0.6463
   48RES   C24213496   4.726   0.858   2.606 -0.1086 -0.4055 -0.1140
   48RES   C24313497   4.836   0.965   2.582  0.4180 -0.6965  0.4261
   48RES   O24413498   4.809   1.077   2.671  0.4437 -0.0596 -0.1040
   48RES   C24513499   4.910   1.180   2.682 -0.7631  0.0954  0.1478
   48RES   H24613500   4.818   0.685   2.534  1.7173 -1.2722  0.3113
   48RES   H24713501   4.864   0.725   2.707  1.0569 -0.9373 -1.1756
   48RES   H24813502   4.677   0.880   2.701 -0.8723  1.7198 -0.9713
   48RES   H24913503   4.933   0.923   2.606  0.8108 -0.6986 -1.1099
   48RES   H25013504   4.849   1.000   2.480 -0.9456  0.7472  0.7326
   48RES   H25113505   4.861   1.246   2.754 -0.0425 -1.2988  1.9561
   48RES   H25213506   4.931   1.234   2.590  0.6266 -0.2468  0.2664
   48RES   H25313507   5.007   1.146   2.718 -1.0078  0.0532  0.7794
   48RES   O25413508   4.642   0.847   2.497 -0.4303  0.1102 -0.1938
   48RES   C25513509   4.539   0.945   2.488 -0.6141 -0.1761  0.4026
   48RES   C25613510   4.456   0.933   2.362  0.8454  0.2433 -1.4502
   48RES   C25713511   4.319   1.004   2.383 -0.0002  0.5728 -0.0033
   48RES   O25813512   4.240   0.988   2.268  0.0487 -0.3583 -0.5673
   48RES   C25913513   4.102   1.007   2.286 -0.4528 -1.2894 -0.1055
   48RES   H26013514   4.466   0.940   2.568 -0.1193 -2.2309  0.7626
   48RES   H26113515   4.569   1.049   2.479 -0.8949 -0.1280 -0.0157
   48RES   H26213516   4.426   0.828   2.358  2.6628 -0.4472  1.2007
   48RES   H26313517   4.264   0.961   2.467  1.8671  0.3028  1.0855
   48RES   H26413518   4.339   1.109   2.403 -1.7983  0.6502  1.5379
   48RES   H26513519   4.070   0.930   2.357  1.0484  1.2996  3.5314
   48RES   H26613520   4.031   0.996   2.204 -0.1483  0.4755 -0.6172
   48RES   H26713521   4.082   1.098   2.343  1.8226 -0.1146 -1.1249
   48RES   O26813522   4.512   0.986   2.241 -0.4911 -0.1304  0.3310
   48RES   C26913523   4.633   0.927   2.196  0.4534  0.4661 -0.0214
   48RES   C27013524   4.655   0.980   2.044 -0.3391  0.3085 -0.1243
   48RES   C27113525   4.674   1.134   2.035  0.2738 -0.0716  0.2951
   48RES   O27213526   4.694   1.175   1.899 -0.5647 -0.4590 -0.1918
   48RES   C27313527   4.698   1.317   1.887  0.1172  0.2132 -0.3531
   48RES   H27413528   4.621   0.819   2.205 -0.4054  0.5960  0.4078
   48RES   H27513529   4.717   0.946   2.262  0.3577 -0.2008  0.2915
   48RES   H27613530   4.744   0.926   2.010 -0.9942 -1.1819  0.4613
   48RES   H27713531   4.750   1.173   2.102 -1.8054  0.0735  2.6639
   48RES   H27813532   4.578   1.173   2.070  1.0435  2.5830 -0.4348
   48RES   H27913533   4.709   1.342   1.781  1.5412  1.0738 -0.0133
   48RES   H28013534   4.795   1.340   1.931  1.4456 -1.2551 -2.4692
   48RES   H28113535   4.619   1.378   1.930  1.5703  0.6832  1.7259
   48RES   H28213536   4.568   0.953   1.985 -0.2529 -2.6963  0.9976
   49RES     O113537   5.053   4.069   1.319  0.1574  0.7381 -0.7866
   49RES     C213538   5.050   4.124   1.187 -0.1697 -0.6746 -0.1694
   49RES     C313539   5.110   4.020   1.087 -0.7822 -0.7288  0.3781
   49RES     C413540   5.096   4.059   0.932 -0.5799  0.4708 -0.0054
   49RES     O513541   5.095   3.943   0.851  1.1089 -1.0017 -0.1153
   49RES     C613542   5.103   3.970   0.710 -0.1997  0.3562 -0.3938
   49RES     H713543   4.949   4.151   1.157 -0.2089  0.7767  1.2090
   49RES     H813544   5.108   4.216   1.182 -1.5860  0.3101  1.0599
   49RES     H913545   5.051   3.931   1.109  1.0260 -2.0688 -0.0512
   49RES    H1013546   5.167   4.136   0.903 -0.7020  0.1410 -1.1918
   49RES    H1113547   4.994   4.099   0.928 -0.2493  1.0839 -2.5964
   49RES    H1213548   5.086   3.876   0.659 -0.1692  0.6305 -0.9098
   49RES    H1313549   5.036   4.050   0.679 -1.4967 -0.1916  0.9136
   49RES    H1413550   5.204   3.999   0.682  0.3754 -1.0700  0.1838
   49RES    H1513551   5.129   4.014   1.326 -0.7858 -0.3951  1.4517
   49RES    O1613552   5.241   4.001   1.133  0.0004  0.4113 -0.9766
   49RES    C1713553   5.302   3.878   1.082 -0.3006  0.2556  0.3470
   49RES    C1813554   5.453   3.886   1.079 -0.2392  0.0236 -0.5497
   49RES    C1913555   5.522   3.747   1.065 -0.4626 -0.1552 -0.3709
   49RES    O2013556   5.655   3.760   1.092  0.1545  0.1817  0.3832
   49RES    C2113557   5.715   3.631   1.100  0.0151 -0.0940 -0.5628
   49RES    H2213558   5.262   3.841   0.987  0.6407  0.7546 -0.2522
   49RES    H2313559   5.287   3.809   1.165 -2.0821  0.1220 -0.0658
   49RES    H2413560   5.488   3.924   1.176  0.3845  0.7936 -1.0689
   49RES    H2513561   5.473   3.689   1.144  0.4317  0.1619  0.4276
   49RES    H2613562   5.501   3.692   0.973  0.5601  1.3967 -1.5461
   49RES    H2713563   5.697   3.578   1.193  1.7579  2.8501  1.5088
   49RES    H2813564   5.822   3.648   1.112  0.5063 -3.2440 -0.0650
   49RES    H2913565   5.698   3.563   1.016  0.4034 -1.0058  0.0951
   49RES    O3013566   5.490   3.973   0.970 -1.0918  0.3609  0.2683
   49RES    C3113567   5.481   4.110   0.997 -0.0270 -0.4278  0.5256
   49RES    C3213568   5.578   4.185   0.908  0.0629 -0.5928 -0.4906
   49RES    C3313569   5.635   4.308   0.973  0.0784 -0.4179 -0.4737
   49RES    O3413570   5.537   4.406   0.987  1.0314 -0.2335 -0.3197
   49RES    C3513571   5.552   4.515   0.897  0.3684  0.3910  0.8732
   49RES    H3613572   5.385   4.157   0.978  0.0953 -0.2683  0.2985
   49RES    H3713573   5.502   4.125   1.103 -2.6308  1.4766  0.8226
   49RES    H3813574   5.664   4.117   0.901  0.5258 -0.4253  2.7143
   49RES    H3913575   5.721   4.352   0.923 -1.0885  1.7694 -0.5951
   49RES    H4013576   5.676   4.274   1.068  3.9138 -0.2900 -2.0219
   49RES    H4113577   5.503   4.499   0.801 -0.3893  2.9305  0.7947
   49RES    H4213578   5.654   4.552   0.887  0.6912 -0.9949 -1.2106
   49RES    H4313579   5.492   4.594   0.943 -0.2128  1.0834 -1.0031
   49RES    O4413580   5.528   4.224   0.780  0.3456  0.0920 -0.3529
   49RES    C4513581   5.512   4.117   0.693 -0.0957  1.0362 -0.1687
   49RES    C4613582   5.456   4.164   0.559  0.7563 -0.1031 -0.2610
   49RES    C4713583   5.469   4.051   0.444  1.0272 -0.3429 -0.2000
   49RES    O4813584   5.473   4.118   0.327 -0.2555  0.1352  0.1738
   49RES    C4913585   5.482   4.034   0.211  0.3506 -0.6565  0.1613
   49RES    H5013586   5.440   4.050   0.741  1.9231 -2.0298 -1.2456
   49RES    H5113587   5.603   4.062   0.670  0.1588  1.0032  0.9051
   49RES    H5213588   5.519   4.245   0.525  1.5792 -0.9492 -0.7588
   49RES    H5313589   5.564   3.997   0.446  0.0698 -2.1625 -2.0541
   49RES    H5413590   5.381   3.988   0.427  0.9012 -0.4626  0.9063
   49RES    H5513591   5.383   4.005   0.177  1.0502  0.0745 -2.6227
   49RES    H5613592   5.550   3.951   0.226  2.6975  0.7655 -2.1261
   49RES    H5713593   5.524   4.085   0.124  1.9303 -3.5115 -0.8184
   49RES    O5813594   5.326   4.200   0.592 -0.2390 -0.4224 -0.1699
   49RES    C5913595   5.268   4.285   0.497 -0.3089  0.1363  0.1409
   49RES    C6013596   5.139   4.341   0.555  0.4682  0.7733 -0.3034
   49RES    C6113597   5.037   4.380   0.448  0.0733  0.5097  0.3924
   49RES    O6213598   5.083   4.475   0.355 -0.1560 -0.2465  0.2345
   49RES    C6313599   4.988   4.531   0.269 -0.4027 -0.0705 -0.4261
   49RES    H6413600   5.251   4.224   0.408  1.8589 -0.5865  0.1783
   49RES    H6513601   5.323   4.377   0.476 -0.6846  0.6359  1.3406
   49RES    H6613602   5.095   4.255   0.606  2.1408 -0.3699 -0.7691
   49RES    H6713603   5.014   4.289   0.391  0.6337  0.4380  0.2762
   49RES    H6813604   4.941   4.419   0.481 -0.7496 -1.1788  0.0621
   49RES    H6913605   4.922   4.455   0.227 -0.8414 -1.3023  2.3810
   49RES    H7013606   5.018   4.612   0.203 -0.0877  0.1610  0.0024
   49RES    H7113607   4.919   4.590   0.330  0.8612  0.2588  0.6992
   49RES    O7213608   5.158   4.451   0.644 -0.2383  0.5020 -0.4876
   49RES    C7313609   5.201   4.415   0.775 -0.1459 -0.8029  0.0465
   49RES    C7413610   5.105   4.471   0.888  0.3074  0.2328  0.0906
   49RES    C7513611   5.176   4.475   1.022  0.3384  0.3223  0.3587
   49RES    O7613612   5.090   4.539   1.118  0.0383  0.4310  0.5820
   49RES    C7713613   5.166   4.564   1.237  0.2519 -0.3052  0.0028
   49RES    H7813614   5.217   4.308   0.778  1.0465 -0.6207  0.6115
   49RES    H7913615   5.300   4.460   0.791 -0.1621 -1.2230  1.4071
   49RES    H8013616   5.063   4.571   0.875 -2.3268 -0.9661 -1.0686
   49RES    H8113617   5.258   4.545   1.009  1.3135 -0.9645 -0.5373
   49RES    H8213618   5.219   4.380   1.053 -0.5230  0.0724  0.8119
   49RES    H8313619   5.262   4.615   1.228  0.0094  0.4884  1.6585
   49RES    H8413620   5.174   4.475   1.300  0.3470 -0.3647 -0.0946
   49RES    H8513621   5.094   4.621   1.296 -0.1238 -0.6832 -0.0850
   49RES    O8613622   4.993   4.380   0.891 -0.1450  0.4248  0.8954
   49RES    C8713623   4.883   4.425   0.823 -0.4176 -0.2257  0.4981
   49RES    C8813624   4.779   4.463   0.922 -0.3973 -0.0523 -0.9198
   49RES    C8913625   4.783   4.369   1.051 -0.1307  0.0923 -0.5154
   49RES    O9013626   4.668   4.389   1.128 -0.0315 -1.1583  0.2252
   49RES    C9113627   4.677   4.335   1.253 -0.8331  0.9096 -0.1906
   49RES    H9213628   4.895   4.493   0.738 -2.7375 -0.8186 -0.3373
   49RES    H9313629   4.846   4.334   0.777 -0.0612 -0.2720  0.3043
   49RES    H9413630   4.686   4.466   0.865  0.0371 -2.7086 -1.8164
   49RES    H9513631   4.789   4.265   1.019 -0.1525 -0.5475  1.5123
   49RES    H9613632   4.880   4.383   1.099 -0.0499 -0.4503 -0.5171
   49RES    H9713633   4.584   4.345   1.308 -2.5250 -1.6955 -2.4162
   49RES    H9813634   4.715   4.233   1.255 -0.3436  1.1072  0.8624
   49RES    H9913635   4.755   4.389   1.307  0.8148  1.6470 -3.1612
   49RES   O10013636   4.803   4.596   0.967 -0.2623 -0.0992 -0.4287
   49RES   C10113637   4.690   4.673   1.005  0.3069  0.4413  0.4385
   49RES   C10213638   4.724   4.811   1.060 -0.0462 -0.3400  0.5446
   49RES   C10313639   4.859   4.814   1.136  0.2687 -0.2575 -0.2454
   49RES   O10413640   4.884   4.946   1.185 -0.1260  0.2237 -0.5987
   49RES   C10513641   5.020   4.962   1.217  0.0876  0.1171  0.0296
   49RES   H10613642   4.631   4.626   1.084  0.4139 -1.6602 -0.6952
   49RES   H10713643   4.635   4.677   0.911 -1.0204 -1.2105  1.1125
   49RES   H10813644   4.734   4.879   0.975  0.4100 -0.7714  0.2413
   49RES   H10913645   4.945   4.787   1.075  0.8461 -0.1494  0.5167
   49RES   H11013646   4.870   4.745   1.219  0.3943  0.0747  0.0154
   49RES   H11113647   5.043   4.908   1.308  0.5945 -1.2938 -0.9095
   49RES   H11213648   5.041   5.066   1.242 -1.3448  0.7834 -1.4713
   49RES   H11313649   5.099   4.953   1.141 -0.5310 -1.4323 -0.4517
   49RES   O11413650   4.621   4.858   1.139 -0.3436 -0.8362  0.1177
   49RES   C11513651   4.493   4.892   1.079  0.4078 -0.0421 -0.2656
   49RES   C11613652   4.494   5.036   1.014 -0.2216 -0.0059  0.0564
   49RES   C11713653   4.357   5.083   0.943 -0.1459 -0.0699 -0.2418
   49RES   O11813654   4.394   5.190   0.866  0.1992 -0.7383 -0.7015
   49RES   C11913655   4.282   5.236   0.786  1.1082 -0.2210 -0.6892
   49RES   H12013656   4.476   4.819   1.000  0.9472 -0.3050 -0.1399
   49RES   H12113657   4.414   4.895   1.154  1.7763  2.0945  1.1702
   49RES   H12213658   4.567   5.022   0.934 -1.1925 -1.4868 -0.5914
   49RES   H12313659   4.327   5.000   0.879 -2.1557 -0.7373  1.5158
   49RES   H12413660   4.271   5.089   1.010 -0.1866  0.4004 -0.3317
   49RES   H12513661   4.300   5.320   0.720 -1.5920  0.3001 -0.8212
   49RES   H12613662   4.205   5.266   0.857  1.8816 -0.1182  0.1259
   49RES   H12713663   4.260   5.160   0.712  1.0822 -0.9263  0.0330
   49RES   O12813664   4.525   5.131   1.117 -0.1185  0.2320 -0.4983
   49RES   C12913665   4.625   5.229   1.076 -0.0589  0.3770 -0.1899
   49RES   C13013666   4.654   5.324   1.200 -0.0698  0.8357 -0.1080
   49RES   C13113667   4.707   5.455   1.144  0.6881  0.1021 -0.2768
   49RES   O13213668   4.690   5.550   1.254 -0.5129 -0.0206 -0.4212
   49RES   C13313669   4.723   5.681   1.214 -0.1977  0.6272 -0.4969
   49RES   H13413670   4.719   5.181   1.050 -1.1323 -3.2388  2.1511
   49RES   H13513671   4.580   5.280   0.991  1.2005 -0.6843 -1.5113
   49RES   H13613672   4.557   5.333   1.248 -0.9282 -1.0336 -1.3883
   49RES   H13713673   4.660   5.481   1.049  0.4611 -0.2806 -0.2679
   49RES   H13813674   4.810   5.451   1.108  0.4611 -1.1670 -0.8147
   49RES   H13913675   4.815   5.691   1.157  0.5734  1.3422  0.8559
   49RES   H14013676   4.646   5.745   1.169  0.5940  0.6611 -1.8227
   49RES   H14113677   4.735   5.721   1.315  1.4429 -1.1602  0.0242
   49RES   O14213678   4.749   5.284   1.298 -0.3094  0.2391  0.0751
   49RES   C14313679   4.689   5.193   1.393 -1.4238  0.0883 -0.0332
   49RES   C14413680   4.811   5.145   1.463 -1.0835 -0.4988 -0.0230
   49RES   C14513681   4.774   5.014   1.543  0.1708  0.4497 -0.1049
   49RES   O14613682   4.890   4.955   1.606 -0.3701  0.3390 -0.5459
   49RES   C14713683   4.854   4.833   1.673  0.1055 -0.2787  1.0016
   49RES   H14813684   4.613   5.235   1.457 -0.7473 -0.0086  0.8451
   49RES   H14913685   4.642   5.109   1.341 -2.2441 -1.0787  2.5362
   49RES   H15013686   4.895   5.129   1.396  0.9440  2.7513  1.5832
   49RES   H15113687   4.732   4.948   1.466 -0.9856  1.4633 -0.3521
   49RES   H15213688   4.699   5.034   1.619  0.5027  1.9111 -0.1541
   49RES   H15313689   4.942   4.789   1.718  0.5307 -0.7765 -0.2721
   49RES   H15413690   4.829   4.757   1.599  0.1920 -0.8562  1.5669
   49RES   H15513691   4.784   4.856   1.753 -1.3031 -0.2772 -0.2141
   49RES   O15613692   4.861   5.236   1.571 -0.6635  0.1635  0.0710
   49RES   C15713693   4.999   5.238   1.599  0.8172  1.1458 -0.0201
   49RES   C15813694   5.085   5.312   1.500  0.5299 -0.3120 -0.1030
   49RES   C15913695   5.230   5.277   1.512 -0.6100 -0.9728 -0.4764
   49RES   O16013696   5.304   5.335   1.410 -0.6244  0.1322 -0.3142
   49RES   C16113697   5.444   5.332   1.415 -0.0066 -0.1261  0.6924
   49RES   H16213698   5.010   5.279   1.700  1.8551  0.7257  0.0513
   49RES   H16313699   5.036   5.136   1.611  0.4078  1.0708  0.6577
   49RES   H16413700   5.047   5.279   1.403 -0.5831 -0.3069  0.3141
   49RES   H16513701   5.273   5.313   1.605 -2.0330 -3.3324  1.1619
   49RES   H16613702   5.252   5.170   1.503 -0.3918 -0.6815 -4.1611
   49RES   H16713703   5.482   5.389   1.330 -0.6357  0.2959  0.6959
   49RES   H16813704   5.476   5.227   1.413 -0.5684 -0.2937  0.2734
   49RES   H16913705   5.477   5.396   1.496  1.2974  0.8674 -0.5806
   49RES   O17013706   5.070   5.450   1.519 -0.3405  0.2953  0.1939
   49RES   C17113707   4.944   5.510   1.483 -0.3741 -0.0942 -0.1120
   49RES   C17213708   4.866   5.560   1.613 -0.1890  0.2518 -0.4112
   49RES   C17313709   4.716   5.590   1.570  0.1087 -0.3465 -0.1128
   49RES   O17413710   4.629   5.585   1.684 -0.1384 -0.0181 -0.3801
   49RES   C17513711   4.611   5.455   1.736  0.2772  0.2511 -1.0930
   49RES   H17613712   4.882   5.444   1.423 -1.1261  1.2469 -0.8247
   49RES   H17713713   4.964   5.594   1.418 -0.4246  0.6383  0.8110
   49RES   H17813714   4.877   5.496   1.701 -0.5050  1.2600  0.3743
   49RES   H17913715   4.711   5.687   1.520 -0.8307 -0.3508 -0.0478
   49RES   H18013716   4.674   5.513   1.506 -0.4292 -0.8293  0.7964
   49RES   H18113717   4.574   5.389   1.658 -0.2770 -0.6768 -0.0571
   49RES   H18213718   4.536   5.455   1.815  1.8347 -1.9175  0.4270
   49RES   H18313719   4.697   5.407   1.782  0.6793 -0.1829 -2.2883
   49RES   O18413720   4.930   5.687   1.654  0.4552 -0.2292 -0.0124
   49RES   C18513721   4.871   5.763   1.760  0.2072 -0.6765  0.3893
   49RES   C18613722   4.860   5.695   1.894 -0.4316  0.2029 -0.4738
   49RES   C18713723   4.797   5.788   1.998  0.7036 -0.0225  0.2158
   49RES   O18813724   4.729   5.704   2.092  0.1752  0.0856 -0.0023
   49RES   C18913725   4.715   5.755   2.217  0.0765 -0.4700 -0.2223
   49RES   H19013726   4.771   5.794   1.733  0.1309  0.8904  2.3900
   49RES   H19113727   4.929   5.855   1.765 -0.4773 -0.1686 -0.6972
   49RES   H19213728   4.811   5.598   1.897  0.4091 -0.2844 -1.7147
   49RES   H19313729   4.721   5.842   1.942  0.8058 -0.7008 -0.5841
   49RES   H19413730   4.868   5.860   2.039  1.5656 -0.5803 -0.2935
   49RES   H19513731   4.637   5.697   2.267  0.3314 -1.0601 -0.4925
   49RES   H19613732   4.811   5.741   2.267 -0.8033 -0.9688  1.3747
   49RES   H19713733   4.677   5.855   2.233  2.8409  0.7878 -1.2865
   49RES   O19813734   4.996   5.671   1.941  0.3545 -0.5203 -0.0063
   49RES   C19913735   5.046   5.542   1.921  0.0164 -0.4218 -0.7599
   49RES   C20013736   5.188   5.537   1.986  0.1710 -0.0263  0.5171
   49RES   C20113737   5.280   5.435   1.916  0.1783 -0.2201  0.3336
   49RES   O20213738   5.420   5.434   1.954 -0.7311  0.5911 -0.6290
   49RES   C20313739   5.454   5.381   2.082  0.2733 -0.0673 -0.3989
   49RES   H20413740   5.061   5.530   1.814  4.1353 -1.5191 -0.1446
   49RES   H20513741   4.981   5.460   1.952 -0.4563 -0.1308 -0.9865
   49RES   H20613742   5.235   5.635   1.978 -0.6177  0.3736  0.7053
   49RES   H20713743   5.239   5.336   1.939  3.7112 -2.3670 -2.2407
   49RES   H20813744   5.271   5.445   1.808 -0.9104  2.3199  0.6153
   49RES   H20913745   5.407   5.448   2.154 -0.2194 -1.5334  0.6715
   49RES   H21013746   5.563   5.385   2.083  0.3245 -1.2893 -0.8396
   49RES   H21113747   5.416   5.279   2.080  2.5963 -0.9716 -0.6102
   49RES   O21213748   5.177   5.483   2.124 -0.0514  0.1154 -0.6170
   49RES   C21313749   5.152   5.578   2.222  0.3592  0.1076  0.4167
   49RES   C21413750   5.149   5.492   2.352  0.8336  0.4641  0.6619
   49RES   C21513751   5.073   5.559   2.468  0.3569 -0.1763  0.9698
   49RES   O21613752   4.946   5.495   2.483  0.3240  0.6240 -0.1491
   49RES   C21713753   4.855   5.585   2.544 -0.9049 -0.1169 -0.3909
   49RES   H21813754   5.050   5.609   2.198 -0.7101 -1.9146  2.2001
   49RES   H21913755   5.224   5.660   2.210 -1.0213  1.3557  0.5661
   49RES   H22013756   5.110   5.391   2.339  3.6190 -0.4382 -0.9668
   49RES   H22113757   5.124   5.542   2.563  1.3242 -1.4252  0.2452
   49RES   H22213758   5.064   5.667   2.457  1.1039 -0.4045 -2.1470
   49RES   H22313759   4.852   5.685   2.502  0.7712 -0.1965 -0.7331
   49RES   H22413760   4.884   5.605   2.647  1.6804  0.2039 -1.1384
   49RES   H22513761   4.759   5.534   2.536  0.2188 -2.1534 -1.5201
   49RES   O22613762   5.283   5.471   2.398  0.3181 -0.1478  0.5439
   49RES   C22713763   5.313   5.331   2.413 -0.1398  0.2398 -0.6791
   49RES   C22813764   5.449   5.310   2.484 -0.4600 -0.3118  0.2251
   49RES   C22913765   5.473   5.157   2.511 -0.2714  0.3506  0.0269
   49RES   O23013766   5.541   5.148   2.634 -0.2912 -0.0553 -0.1693
   49RES   C23113767   5.611   5.034   2.656  0.1927 -0.0835  0.2568
   49RES   H23213768   5.302   5.289   2.313  0.7364 -0.4132 -0.5006
   49RES   H23313769   5.233   5.291   2.476  1.9814 -3.1641 -0.0464
   49RES   H23413770   5.443   5.364   2.579  1.4131 -1.0655  0.8054
   49RES   H23513771   5.536   5.117   2.431  0.3236 -1.3259  1.3057
   49RES   H23613772   5.383   5.096   2.509 -1.2851  1.7168  2.5480
   49RES   H23713773   5.550   4.958   2.704  2.9192 -2.2344  0.4421
   49RES   H23813774   5.692   5.057   2.726  0.7495  0.9800 -0.7120
   49RES   H23913775   5.660   4.991   2.568  1.9598  0.2763  1.0274
   49RES   O24013776   5.554   5.363   2.407  0.4891  0.0628 -0.6041
   49RES   C24113777   5.676   5.368   2.474 -0.1830 -0.4133  0.4578
   49RES   C24213778   5.782   5.422   2.373 -0.2345  0.1724 -0.1179
   49RES   C24313779   5.875   5.541   2.423 -0.1264  0.3276  1.0384
   49RES   O24413780   5.948   5.598   2.309 -0.3738 -0.3404 -0.0982
   49RES   C24513781   5.864   5.670   2.215  0.5830 -0.3046  0.1804
   49RES   H24613782   5.710   5.267   2.498 -2.1063 -1.3448 -0.6850
   49RES   H24713783   5.655   5.432   2.560 -2.1488  2.0564 -1.7618
   49RES   H24813784   5.716   5.455   2.293 -0.5984  2.1445  0.9441
   49RES   H24913785   5.815   5.618   2.470 -1.1703 -1.1986  2.2557
   49RES   H25013786   5.942   5.513   2.504  0.5888 -1.0528 -0.0092
   49RES   H25113787   5.789   5.612   2.161  0.9597 -0.4004 -0.2388
   49RES   H25213788   5.932   5.721   2.148  0.1009 -1.7107 -1.4254
   49RES   H25313789   5.811   5.751   2.266  2.3505  1.8478 -1.3267
   49RES   O25413790   5.855   5.313   2.328  0.3268 -0.6013 -0.5304
   49RES   C25513791   5.817   5.261   2.204 -0.5130 -0.0989 -0.2141
   49RES   C25613792   5.882   5.125   2.183  0.6363 -0.4708  0.1201
   49RES   C25713793   5.852   5.061   2.044 -0.2358  0.8103  0.3793
   49RES   O25813794   5.902   4.929   2.043  0.1583  0.4410  0.4498
   49RES   C25913795   5.935   4.887   1.910  0.6749 -0.2976 -0.1394
   49RES   H26013796   5.710   5.240   2.200 -0.8082  1.4355 -0.6428
   49RES   H26113797   5.841   5.319   2.115  1.1497 -1.4195 -0.6451
   49RES   H26213798   5.855   5.062   2.268 -1.7644  2.9105  1.9831
   49RES   H26313799   5.748   5.031   2.038  0.0370  0.0679 -0.6786
   49RES   H26413800   5.901   5.116   1.964 -0.1497  0.5651  0.2635
   49RES   H26513801   5.849   4.893   1.843  0.1782  1.3291  0.6307
   49RES   H26613802   5.965   4.782   1.915  0.7445 -0.4579 -2.9149
   49RES   H26713803   6.004   4.956   1.861 -0.8150  0.3664 -1.3438
   49RES   O26813804   6.026   5.146   2.183 -0.3828  0.0281 -0.0134
   49RES   C26913805   6.108   5.055   2.244 -0.2254  0.5802  0.0137
   49RES   C27013806   6.127   5.106   2.391  0.4227 -0.1341 -0.3125
   49RES   C27113807   6.183   5.243   2.402 -0.3574  0.5733  0.4776
   49RES   O27213808   6.323   5.251   2.380 -0.1543 -0.2093 -0.2412
   49RES   C27313809   6.387   5.357   2.437 -0.8628  0.0664  0.5653
   49RES   H27413810   6.201   5.050   2.187  0.6251  0.1191  1.4185
   49RES   H27513811   6.064   4.955   2.245 -3.2970  1.8821  2.7453
   49RES   H27613812   6.034   5.106   2.447 -0.0632 -0.0829 -1.1238
   49RES   H27713813   6.160   5.285   2.500  0.0570  1.2782  0.2759
   49RES   H27813814   6.119   5.312   2.345 -3.3730 -1.4282  1.3371
   49RES   H27913815   6.347   5.448   2.392 -1.0762 -0.1508  0.3175
   49RES   H28013816   6.495   5.348   2.440 -0.5982  1.4475 -2.8553
   49RES   H28113817   6.359   5.362   2.543 -0.3347  2.0846  0.6331
   49RES   H28213818   6.199   5.045   2.447  2.9013  1.3627 -1.7696
   50RES     O113819   4.189   4.613   7.396  0.0857 -0.4618  0.4529
   50RES     C213820   4.134   4.566   7.511  0.2815  0.6819 -0.6031
   50RES     C313821   4.234   4.603   7.626 -1.0833 -0.2212 -0.0879
   50RES     C413822   4.187   4.535   7.756 -0.2960 -0.3091 -0.1208
   50RES     O513823   4.269   4.589   0.031 -0.2024 -0.4874  0.0894
   50RES     C613824   4.280   4.518   0.150  0.4071 -0.7227 -0.0963
   50RES     H713825   4.033   4.605   7.520 -0.6841 -2.0468  0.7121
   50RES     H813826   4.124   4.458   7.517  1.8572  0.6174  1.3355
   50RES     H913827   4.231   4.712   7.629  1.9991 -0.0847 -0.6895
   50RES    H1013828   4.196   4.426   7.747  1.1791 -0.0355 -2.4725
   50RES    H1113829   4.082   4.553   7.780 -0.4681 -1.9969  0.4559
   50RES    H1213830   4.333   4.423   0.146 -0.3538 -1.2962  2.4034
   50RES    H1313831   4.332   4.573   0.229 -1.3564  1.3006 -0.3197
   50RES    H1413832   4.180   4.490   0.182  0.3787  1.1993  1.6249
   50RES    H1513833   4.278   4.581   7.389  0.0877 -0.3236 -0.1909
   50RES    O1613834   4.368   4.557   7.586  0.2354  0.1769  0.2924
   50RES    C1713835   4.475   4.640   7.637  0.2544  0.1625  0.7176
   50RES    C1813836   4.596   4.644   7.538  0.1542  0.0628 -0.0754
   50RES    C1913837   4.657   4.501   7.520  0.0181 -0.5616  0.2566
   50RES    O2013838   4.787   4.513   7.473  0.0659  0.5386 -0.1497
   50RES    C2113839   4.862   4.391   7.464 -0.1903  0.7802 -0.2164
   50RES    H2213840   4.502   4.586   7.729 -0.4430 -0.5320  0.5177
   50RES    H2313841   4.452   4.744   7.658  2.4494  0.4300  2.0198
   50RES    H2413842   4.671   4.704   7.591 -0.2120 -1.0130  1.6704
   50RES    H2513843   4.659   4.445   7.613 -0.9639 -4.7792 -2.1234
   50RES    H2613844   4.600   4.446   7.445  0.8039  0.2817 -0.9732
   50RES    H2713845   4.813   4.324   7.393  1.0793 -0.3339 -0.0487
   50RES    H2813846   4.880   4.342   7.559  0.7115  1.6064  0.0449
   50RES    H2913847   4.963   4.406   7.427 -0.1035  0.3795 -0.1387
   50RES    O3013848   4.543   4.696   7.421 -0.2905  0.0135 -0.6975
   50RES    C3113849   4.630   4.756   7.330  0.0185  0.3352 -0.1412
   50RES    C3213850   4.551   4.811   7.216 -0.5174 -0.3120  0.3671
   50RES    C3313851   4.641   4.848   7.097  0.2101  0.5423  0.4766
   50RES    O3413852   4.673   4.736   7.023  0.0206  0.6524 -0.5302
   50RES    C3513853   4.761   4.772   6.920 -1.0203 -0.0910  0.4113
   50RES    H3613854   4.699   4.831   7.370  0.5880  0.3980 -1.2263
   50RES    H3713855   4.686   4.672   7.289 -1.9316 -0.6733 -0.8192
   50RES    H3813856   4.483   4.738   7.173  0.3802  0.4068 -2.3632
   50RES    H3913857   4.727   4.907   7.129 -0.8506  1.6428  1.3580
   50RES    H4013858   4.593   4.923   7.034  2.7557 -0.6144 -2.9851
   50RES    H4113859   4.859   4.805   6.955 -0.9261 -0.2886  0.3343
   50RES    H4213860   4.715   4.851   6.862  2.4780  2.8576  1.4824
   50RES    H4313861   4.764   4.685   6.855 -1.4925  0.2239 -0.0343
   50RES    O4413862   4.477   4.921   7.243 -0.1121 -0.2672 -0.2311
   50RES    C4513863   4.367   4.898   7.322  0.2958  0.0633  0.1252
   50RES    C4613864   4.249   4.989   7.281 -0.1372 -0.1230  1.2517
   50RES    C4713865   4.119   4.944   7.349  0.3648 -0.4660  0.5080
   50RES    O4813866   4.017   4.940   7.247 -0.2757  0.4326 -0.0643
   50RES    C4913867   3.919   4.842   7.272 -0.1133 -0.0681  0.0140
   50RES    H5013868   4.389   4.908   7.428  0.4695  0.8089  0.0212
   50RES    H5113869   4.338   4.793   7.316  1.9325 -0.3955  0.1548
   50RES    H5213870   4.238   4.973   7.174 -2.7173 -0.3051  1.5149
   50RES    H5313871   4.136   4.844   7.389 -1.2579 -0.4845  1.2261
   50RES    H5413872   4.092   5.015   7.427 -0.4367  0.3742 -0.5172
   50RES    H5513873   3.832   4.861   7.209 -1.5223 -0.8569  1.6861
   50RES    H5613874   3.885   4.829   7.374  0.8471 -2.4798  0.0780
   50RES    H5713875   3.957   4.745   7.239 -1.3750 -0.3775 -0.5618
   50RES    O5813876   4.271   5.133   7.294  0.1307  0.1014 -0.1072
   50RES    C5913877   4.173   5.216   7.234  0.1810 -0.1684 -0.2541
   50RES    C6013878   4.252   5.337   7.177 -0.5819 -0.3005 -0.9342
   50RES    C6113879   4.159   5.446   7.129  0.8579 -0.8336  0.0697
   50RES    O6213880   4.239   5.550   7.067  0.4378 -0.3842 -1.1115
   50RES    C6313881   4.160   5.661   7.024 -0.5058  0.2769 -0.0428
   50RES    H6413882   4.094   5.246   7.303 -0.5034 -0.4727 -0.8983
   50RES    H6513883   4.129   5.155   7.156  0.4124 -1.1333  0.3658
   50RES    H6613884   4.312   5.370   7.261  1.2243 -3.1473 -1.0497
   50RES    H6713885   4.088   5.395   7.063 -1.6673  2.8072 -0.2152
   50RES    H6813886   4.111   5.490   7.216  1.2637 -2.7878  1.3071
   50RES    H6913887   4.224   5.740   6.986 -2.9053  1.2925 -2.1016
   50RES    H7013888   4.104   5.699   7.110  0.9700 -0.5863  1.3294
   50RES    H7113889   4.086   5.645   6.945 -1.0327 -1.5668  0.7779
   50RES    O7213890   4.337   5.289   7.070 -0.2680 -0.2432  0.2883
   50RES    C7313891   4.474   5.320   7.087 -0.7965 -0.1347 -0.0102
   50RES    C7413892   4.559   5.237   6.988  0.1725 -0.3231  0.0479
   50RES    C7513893   4.702   5.219   7.039  0.9595  0.5931  0.0478
   50RES    O7613894   4.790   5.122   6.978 -0.1710  0.3896 -0.3355
   50RES    C7713895   4.926   5.111   7.023 -0.5345 -0.3613  0.5847
   50RES    H7813896   4.492   5.426   7.074  0.2947 -0.2107  0.8078
   50RES    H7913897   4.508   5.300   7.188 -1.0412  1.8286  0.4754
   50RES    H8013898   4.523   5.135   6.970  0.8460 -0.5569  0.0053
   50RES    H8113899   4.704   5.185   7.143  1.8173  1.9578  0.4975
   50RES    H8213900   4.749   5.318   7.040  3.2685 -0.4524  2.3680
   50RES    H8313901   4.981   5.196   6.981 -2.2109  0.5769  0.2410
   50RES    H8413902   4.964   5.015   6.989 -0.9851 -0.5999  0.7531
   50RES    H8513903   4.929   5.116   7.132  0.3699  1.7895  0.4939
   50RES    O8613904   4.566   5.301   6.868  0.0309  0.3020 -0.8125
   50RES    C8713905   4.513   5.235   6.757  0.2186  0.1101  0.3294
   50RES    C8813906   4.599   5.115   6.696  0.1128 -0.3617 -0.2604
   50RES    C8913907   4.510   5.002   6.656  0.4444  0.7429  0.3513
   50RES    O9013908   4.586   4.890   6.618  0.4448 -0.7781  0.6086
   50RES    C9113909   4.508   4.770   6.610  0.1227 -0.0464 -0.2489
   50RES    H9213910   4.410   5.204   6.770 -0.0773 -0.5780 -3.0031
   50RES    H9313911   4.495   5.307   6.676  2.8749  0.0788 -0.3456
   50RES    H9413912   4.682   5.077   6.756 -0.2283  0.8369  1.0047
   50RES    H9513913   4.466   4.980   6.754  3.1554 -0.2985  1.4002
   50RES    H9613914   4.438   5.033   6.581  0.5864 -1.4834 -0.7448
   50RES    H9713915   4.588   4.697   6.629 -1.2726 -0.9636  2.3486
   50RES    H9813916   4.430   4.764   6.685 -1.0920  0.2393 -1.4751
   50RES    H9913917   4.473   4.750   6.509  0.9251  0.7696 -0.6949
   50RES   O10013918   4.649   5.164   6.574 -0.2733  0.3864  0.0945
   50RES   C10113919   4.753   5.261   6.572  0.6760 -0.6180  0.1329
   50RES   C10213920   4.885   5.185   6.563  0.1592 -0.0685  0.0528
   50RES   C10313921   5.002   5.272   6.626  0.3495 -0.2292 -0.5423
   50RES   O10413922   5.125   5.194   6.628 -0.2670  0.2381  0.2153
   50RES   C10513923   5.232   5.226   6.536 -0.2669 -0.0355  0.0397
   50RES   H10613924   4.753   5.336   6.652 -0.3148 -0.9348  0.4312
   50RES   H10713925   4.744   5.320   6.481  0.3137 -0.5994  0.1826
   50RES   H10813926   4.871   5.093   6.620 -3.2820  0.0303 -0.5331
   50RES   H10913927   4.974   5.313   6.724 -2.2273 -0.0797 -1.3024
   50RES   H11013928   5.016   5.364   6.569 -2.5534  0.9620  0.5678
   50RES   H11113929   5.317   5.170   6.576  0.0645 -0.1151 -0.7658
   50RES   H11213930   5.260   5.329   6.555 -0.9303 -0.0478  1.1762
   50RES   H11313931   5.218   5.184   6.437  0.0878 -1.6268  0.6464
   50RES   O11413932   4.918   5.166   6.430 -0.7035  0.2745  0.0691
   50RES   C11513933   4.952   5.034   6.404 -0.2174 -0.3740  0.6448
   50RES   C11613934   5.008   5.018   6.260 -0.1763  0.4610  0.5654
   50RES   C11713935   5.099   4.892   6.260 -0.1510 -0.6598  0.0535
   50RES   O11813936   5.177   4.892   6.140 -0.2218  0.1560 -0.4200
   50RES   C11913937   5.272   4.788   6.126 -0.3712  0.1825  0.1971
   50RES   H12013938   5.040   5.015   6.467  0.4624  2.4514  0.6161
   50RES   H12113939   4.867   4.972   6.430 -0.4523 -0.2428  0.1917
   50RES   H12213940   5.072   5.102   6.231 -2.3125  1.8559 -0.2450
   50RES   H12313941   5.172   4.900   6.341  2.3370 -1.3347 -2.0347
   50RES   H12413942   5.023   4.815   6.255 -0.8564  0.0590 -0.5341
   50RES   H12513943   5.321   4.803   6.030 -0.5549 -1.9770 -0.2585
   50RES   H12613944   5.225   4.690   6.131  0.2274 -0.0461  1.6675
   50RES   H12713945   5.347   4.781   6.205 -0.9062 -2.5604  0.5163
   50RES   O12813946   4.907   5.011   6.163 -0.0242 -0.1616  0.1336
   50RES   C12913947   4.825   5.129   6.142  0.7675 -0.8533  0.6326
   50RES   C13013948   4.745   5.131   6.011 -0.2431  0.8571 -0.3766
   50RES   C13113949   4.669   5.268   5.983  0.6004  0.0071 -0.1125
   50RES   O13213950   4.602   5.271   5.859 -0.3392 -0.1030 -0.1145
   50RES   C13313951   4.574   5.402   5.814 -0.5790  0.1003  0.0207
   50RES   H13413952   4.762   5.116   6.229 -0.2193 -1.1720 -0.1224
   50RES   H13513953   4.883   5.221   6.148  1.0344 -0.9786  0.0950
   50RES   H13613954   4.808   5.114   5.924  0.6869 -1.6887  0.7478
   50RES   H13713955   4.740   5.351   5.979 -0.0926  0.9415  4.2740
   50RES   H13813956   4.598   5.290   6.063  2.5969  0.6790  1.5461
   50RES   H13913957   4.664   5.460   5.792 -0.4369  0.6681  2.0709
   50RES   H14013958   4.510   5.393   5.726  0.1393 -1.3169 -0.3621
   50RES   H14113959   4.522   5.456   5.893 -0.2269  1.8301 -0.8853
   50RES   O14213960   4.641   5.034   6.025  0.2376 -0.2334  1.3433
   50RES   C14313961   4.629   4.954   5.908 -0.6000  0.3208 -0.0891
   50RES   C14413962   4.506   4.867   5.914 -0.3437  0.5048  0.3986
   50RES   C14513963   4.521   4.753   5.809 -0.1464  0.1927  0.2899
   50RES   O14613964   4.428   4.647   5.846  0.5978  0.0355  1.2606
   50RES   C14713965   4.426   4.532   5.758 -0.7717 -0.0362 -0.4782
   50RES   H14813966   4.636   5.006   5.812 -0.9132  0.8330  0.1640
   50RES   H14913967   4.716   4.889   5.906 -0.3853  0.6036  0.1447
   50RES   H15013968   4.498   4.829   6.016 -1.7546 -2.1202 -0.6246
   50RES   H15113969   4.618   4.705   5.805 -1.0192 -1.5358 -0.4211
   50RES   H15213970   4.494   4.789   5.709 -2.5175 -1.2898  0.3479
   50RES   H15313971   4.415   4.557   5.652  1.5339 -1.0728 -0.9983
   50RES   H15413972   4.361   4.450   5.790  1.1464 -0.8769  1.4402
   50RES   H15513973   4.515   4.469   5.771 -1.6798 -2.0429 -3.4288
   50RES   O15613974   4.395   4.949   5.875 -0.0775 -0.3664  0.2392
   50RES   C15713975   4.332   5.025   5.980 -0.0371  0.3912 -0.7395
   50RES   C15813976   4.184   5.068   5.951 -0.2252 -0.4971  0.1184
   50RES   C15913977   4.134   5.161   6.072  0.5000 -0.2444  0.3164
   50RES   O16013978   4.021   5.238   6.033  0.3794 -0.2437 -0.2921
   50RES   C16113979   3.893   5.161   6.018  1.1121 -0.2997 -0.0146
   50RES   H16213980   4.321   4.959   6.066  0.8906  0.8705 -0.2517
   50RES   H16313981   4.397   5.106   6.013  0.1478  0.5473 -1.4868
   50RES   H16413982   4.182   5.123   5.857 -0.0912  2.0384  1.5434
   50RES   H16513983   4.103   5.107   6.162 -1.7873 -0.7878 -0.7552
   50RES   H16613984   4.212   5.229   6.106 -1.7851  2.4678  0.1979
   50RES   H16713985   3.855   5.096   6.097  0.4098 -0.7168 -0.6843
   50RES   H16813986   3.892   5.110   5.922 -0.4378 -1.7072  0.7233
   50RES   H16913987   3.810   5.230   5.999  0.2710 -0.7998  1.7158
   50RES   O17013988   4.102   4.956   5.949  0.0475  0.2577 -0.3168
   50RES   C17113989   4.076   4.916   5.812 -0.2992  0.0396  0.1260
   50RES   C17213990   4.007   4.783   5.795 -0.1441  0.0850  0.2104
   50RES   C17313991   4.089   4.698   5.694  0.5439  0.0478  0.0910
   50RES   O17413992   4.014   4.589   5.638 -0.0653  0.0152 -0.0648
   50RES   C17513993   4.001   4.480   5.731  0.1903  0.5070  0.2498
   50RES   H17613994   4.171   4.925   5.759  0.4855  0.5212  1.5644
   50RES   H17713995   4.010   4.995   5.775 -1.2774 -0.9337 -0.2340
   50RES   H17813996   4.002   4.745   5.897  0.6518 -0.8505 -0.0906
   50RES   H17913997   4.121   4.760   5.609  0.2146 -0.1777 -0.1989
   50RES   H18013998   4.185   4.677   5.741  0.7825 -0.9115 -0.7952
   50RES   H18113999   3.940   4.404   5.682 -0.0560 -0.6906  2.3659
   50RES   H18214000   3.953   4.519   5.820 -1.4365 -0.3762 -0.2352
   50RES   H18314001   4.090   4.427   5.767  0.9729  0.1283 -2.1402
   50RES   O18414002   3.874   4.794   5.739 -0.7214  0.1706 -0.5540
   50RES   C18514003   3.773   4.807   5.840  0.2420  0.4483 -0.3194
   50RES   C18614004   3.661   4.885   5.769 -0.4029  0.7341 -0.4173
   50RES   C18714005   3.572   4.944   5.875 -0.7763 -0.4401 -0.9071
   50RES   O18814006   3.502   5.054   5.817 -0.0822  0.4204  0.1330
   50RES   C18914007   3.392   5.079   5.899 -0.0113 -0.2228  0.2748
   50RES   H19014008   3.817   4.866   5.920 -0.5838  2.0893 -1.0477
   50RES   H19114009   3.750   4.708   5.879 -0.5058  0.8634  0.3262
   50RES   H19214010   3.711   4.961   5.709  0.5939  0.5010  0.1091
   50RES   H19314011   3.634   4.979   5.957 -0.7408 -1.1989 -0.6029
   50RES   H19414012   3.511   4.867   5.922  1.0993 -0.9628  0.7495
   50RES   H19514013   3.315   5.002   5.904 -1.3291  1.0634  0.1932
   50RES   H19614014   3.426   5.106   5.999 -0.1067  0.8511  0.0246
   50RES   H19714015   3.343   5.171   5.867 -0.2560 -0.5538 -0.3108
   50RES   O19814016   3.585   4.799   5.681 -0.2159 -0.6789 -0.4161
   50RES   C19914017   3.609   4.805   5.539  0.5079 -0.1901 -0.0208
   50RES   C20014018   3.493   4.740   5.464 -0.0690 -0.5582  0.4558
   50RES   C20114019   3.536   4.711   5.316 -0.5700  0.5423 -0.0925
   50RES   O20214020   3.602   4.820   5.256  0.0797 -0.1277 -0.2975
   50RES   C20314021   3.617   4.808   5.113 -0.2306  0.5507 -0.1852
   50RES   H20414022   3.695   4.749   5.502  0.0996 -0.3041 -0.8162
   50RES   H20514023   3.633   4.906   5.506 -0.4463  0.3031  0.8008
   50RES   H20614024   3.478   4.642   5.511 -1.6459 -0.6060 -0.0936
   50RES   H20714025   3.607   4.630   5.301 -0.3484  0.8102 -0.4808
   50RES   H20814026   3.451   4.686   5.252  0.0787 -0.5040 -0.5384
   50RES   H20914027   3.527   4.830   5.056  0.7919  0.3708 -1.9199
   50RES   H21014028   3.665   4.714   5.086 -1.5973  0.0192 -0.8527
   50RES   H21114029   3.680   4.889   5.075  2.9711 -0.9793  1.6781
   50RES   O21214030   3.369   4.821   5.462 -0.4869 -0.0032  0.5393
   50RES   C21314031   3.296   4.820   5.586  0.2718  0.2334 -0.1878
   50RES   C21414032   3.154   4.846   5.551  0.8026 -0.1548 -0.4277
   50RES   C21514033   3.083   4.922   5.665  0.3148 -0.8481 -0.1502
   50RES   O21614034   3.083   4.852   5.785 -0.2509 -0.0124  0.2874
   50RES   C21714035   3.009   4.909   5.892 -0.2363 -1.0959 -0.0914
   50RES   H21814036   3.338   4.900   5.647 -2.7925  0.7961  1.2757
   50RES   H21914037   3.315   4.732   5.648 -0.5443 -0.5507 -1.0372
   50RES   H22014038   3.151   4.908   5.462 -1.8367 -0.3879 -0.5440
   50RES   H22114039   3.135   5.018   5.659 -0.9911 -0.1336 -0.3491
   50RES   H22214040   2.978   4.937   5.638 -0.4753 -1.6252  2.3653
   50RES   H22314041   3.047   5.009   5.913  1.3756 -1.2859 -1.9751
   50RES   H22414042   3.029   4.854   5.984  2.2322 -0.8694 -0.4492
   50RES   H22514043   2.902   4.925   5.879 -0.1253  0.0215  0.3606
   50RES   O22614044   3.087   4.721   5.532  0.1956  0.2416 -0.3626
   50RES   C22714045   3.139   4.646   5.415  0.5784 -0.4299  0.2924
   50RES   C22814046   3.127   4.709   5.275  0.1202  0.1421 -0.0129
   50RES   C22914047   3.164   4.602   5.168  0.0778  0.6186 -0.5286
   50RES   O23014048   3.232   4.651   5.054  0.0476 -0.2110 -0.1343
   50RES   C23114049   3.255   4.553   4.958  0.7489  0.4551 -0.0029
   50RES   H23214050   3.088   4.550   5.418 -0.2440 -0.0843 -2.0727
   50RES   H23314051   3.240   4.611   5.439  0.8918 -0.2389 -0.7234
   50RES   H23414052   3.199   4.790   5.268 -0.4810  0.8007  1.2888
   50RES   H23514053   3.075   4.548   5.138  0.5367  0.2531 -1.2500
   50RES   H23614054   3.230   4.528   5.213 -1.2698 -1.2243 -1.5266
   50RES   H23714055   3.272   4.610   4.867  1.1568 -0.9226 -0.8178
   50RES   H23814056   3.172   4.490   4.926  1.8021 -0.2543 -1.3913
   50RES   H23914057   3.347   4.496   4.971 -0.1962 -0.6261  2.3646
   50RES   O24014058   2.988   4.749   5.261 -0.9929  0.5962 -0.6240
   50RES   C24114059   2.969   4.809   5.128 -0.2811 -0.6987 -0.1340
   50RES   C24214060   2.816   4.843   5.116 -0.7650  0.2563 -0.0422
   50RES   C24314061   2.770   4.967   5.039  0.4717 -0.5362  0.4054
   50RES   O24414062   2.636   5.008   5.073  0.4881 -0.5782  0.6181
   50RES   C24514063   2.537   4.972   4.982  0.3987  0.2865  0.2053
   50RES   H24614064   3.015   4.759   5.043  1.1739  0.1008  0.1607
   50RES   H24714065   3.023   4.904   5.139  3.3917 -2.4357 -2.1586
   50RES   H24814066   2.774   4.864   5.214  0.0041  1.5426  0.0218
   50RES   H24914067   2.838   5.050   5.061  0.6066 -0.0839 -1.5611
   50RES   H25014068   2.771   4.954   4.930  0.5210 -1.2354  0.4909
   50RES   H25114069   2.563   5.014   4.885 -0.2295 -0.7695 -0.4221
   50RES   H25214070   2.449   5.032   5.008  2.3869  3.4302 -0.0934
   50RES   H25314071   2.528   4.864   4.979  1.4860  0.2189 -0.6726
   50RES   O25414072   2.734   4.730   5.066 -1.0869 -0.3125 -0.4539
   50RES   C25514073   2.749   4.613   5.135 -0.2494 -0.1287  0.0625
   50RES   C25614074   2.609   4.534   5.149 -0.3300 -0.8204 -0.0160
   50RES   C25714075   2.636   4.385   5.191 -0.1520 -0.9287  0.3140
   50RES   O25814076   2.536   4.311   5.135  0.4165  0.0950 -0.4033
   50RES   C25914077   2.552   4.176   5.163 -0.3222  0.1466  0.5962
   50RES   H26014078   2.828   4.552   5.092  1.0523  0.2182  1.9051
   50RES   H26114079   2.795   4.621   5.234  2.1009 -3.5554 -0.6841
   50RES   H26214080   2.565   4.533   5.050 -0.1619  0.3030 -0.1032
   50RES   H26314081   2.722   4.347   5.136 -0.4171  0.4805 -1.0807
   50RES   H26414082   2.630   4.380   5.300 -2.7682  0.5438  0.2656
   50RES   H26514083   2.463   4.130   5.120 -0.5873  0.9996  0.2018
   50RES   H26614084   2.552   4.146   5.268  0.1758  1.1866  0.9009
   50RES   H26714085   2.626   4.130   5.097 -1.0685 -0.4520  0.1778
   50RES   O26814086   2.528   4.585   5.258  0.4380  0.0025 -0.6057
   50RES   C26914087   2.476   4.718   5.245 -0.1476 -0.6429  0.2185
   50RES   C27014088   2.396   4.745   5.369  0.2067  0.0839  0.1128
   50RES   C27114089   2.481   4.770   5.493  0.4479  0.2496  0.0898
   50RES   O27214090   2.404   4.866   5.559 -0.6420  0.7799  0.2066
   50RES   C27314091   2.465   4.910   5.681  0.2857  0.1868  0.2335
   50RES   H27414092   2.432   4.737   5.147  0.0543 -1.9816 -0.1375
   50RES   H27514093   2.552   4.795   5.231 -1.3131  0.6773  0.9637
   50RES   H27614094   2.343   4.832   5.329  1.0015 -0.7605 -2.8678
   50RES   H27714095   2.581   4.803   5.464  1.3279 -2.4128 -0.0680
   50RES   H27814096   2.483   4.679   5.553  1.3822 -1.6215 -2.6789
   50RES   H27914097   2.520   5.002   5.661  1.2720 -0.4051  0.1755
   50RES   H28014098   2.543   4.844   5.720  2.0874  1.9206 -0.3313
   50RES   H28114099   2.380   4.926   5.747 -0.2768 -0.8296 -0.2264
   50RES   H28214100   2.322   4.666   5.382 -0.5489  0.5512 -1.2344
   51RES     O114101   4.705   5.415   2.076 -0.3719 -0.9065 -0.2588
   51RES     C214102   4.761   5.353   2.191 -0.1036 -0.1645 -0.1670
   51RES     C314103   4.651   5.319   2.292 -0.0179  0.1191  0.3490
   51RES     C414104   4.701   5.218   2.397 -0.0786  0.2913 -0.2991
   51RES     O514105   4.601   5.211   2.495  0.3582 -0.3201  0.2081
   51RES     C614106   4.622   5.111   2.591  0.9974  1.1056 -0.4631
   51RES     H714107   4.808   5.266   2.146 -0.9595  0.4188 -2.2209
   51RES     H814108   4.849   5.409   2.224 -1.2217  0.8657  1.1556
   51RES     H914109   4.577   5.265   2.234  0.8767  1.4730 -2.0921
   51RES    H1014110   4.787   5.251   2.456 -0.6073 -0.2428  0.7864
   51RES    H1114111   4.716   5.124   2.344 -1.3818  0.2076 -0.5130
   51RES    H1214112   4.535   5.103   2.656  1.4142 -0.4378 -0.0752
   51RES    H1314113   4.642   5.013   2.549 -2.4115  1.1894 -2.4834
   51RES    H1414114   4.698   5.147   2.659 -0.5284  0.1432  1.8019
   51RES    H1514115   4.701   5.507   2.099  1.8607 -0.7721 -0.2222
   51RES    O1614116   4.592   5.435   2.355  0.3461 -0.0696  0.0579
   51RES    C1714117   4.464   5.480   2.317  0.0476 -0.1730 -0.3702
   51RES    C1814118   4.395   5.544   2.431 -0.0190  0.3188  0.4224
   51RES    C1914119   4.385   5.457   2.553  0.4622 -0.4304 -0.2505
   51RES    O2014120   4.268   5.496   2.630  0.0749 -0.2279 -1.0053
   51RES    C2114121   4.263   5.428   2.754  0.3867  0.0641 -0.0170
   51RES    H2214122   4.415   5.386   2.292 -1.4581  0.2124  1.0280
   51RES    H2314123   4.478   5.549   2.234 -1.7470 -0.3407 -0.8249
   51RES    H2414124   4.295   5.575   2.400  0.3567 -0.8613 -2.1240
   51RES    H2514125   4.380   5.351   2.531  0.3794 -0.5378  0.2752
   51RES    H2614126   4.473   5.490   2.609  1.8052  0.5581 -2.8625
   51RES    H2714127   4.283   5.321   2.754  2.7942  0.4560 -1.8425
   51RES    H2814128   4.160   5.427   2.790  0.6468 -2.6861  0.8214
   51RES    H2914129   4.335   5.481   2.817  1.2017  0.8558 -1.6001
   51RES    O3014130   4.472   5.664   2.455 -0.2079  0.1373 -0.0236
   51RES    C3114131   4.411   5.762   2.538  0.4922 -0.1372 -0.5341
   51RES    C3214132   4.522   5.837   2.609 -0.4934 -0.5424 -0.3539
   51RES    C3314133   4.577   5.759   2.733  0.1081  0.0578  0.0210
   51RES    O3414134   4.701   5.811   2.787 -0.6139 -0.0444  0.4501
   51RES    C3514135   4.758   5.729   2.892 -0.1319 -0.0213 -0.3776
   51RES    H3614136   4.336   5.822   2.487  0.4284 -0.0812 -0.3747
   51RES    H3714137   4.358   5.713   2.621 -0.5619  2.9638  0.6989
   51RES    H3814138   4.601   5.854   2.536  0.5437  1.0657  1.0910
   51RES    H3914139   4.592   5.654   2.709  0.2450 -0.1984  1.2090
   51RES    H4014140   4.508   5.762   2.817  0.1230 -1.9201  0.1366
   51RES    H4114141   4.695   5.741   2.980  1.3005 -1.0967  0.8190
   51RES    H4214142   4.858   5.757   2.925 -0.0708 -1.0043  0.2794
   51RES    H4314143   4.750   5.623   2.871  0.1470  0.2465 -1.9800
   51RES    O4414144   4.462   5.962   2.640 -0.6400  0.1610  0.0214
   51RES    C4514145   4.550   6.054   2.706  0.0763 -1.0521  0.2578
   51RES    C4614146   4.501   6.200   2.715  0.8705 -0.0412 -0.3356
   51RES    C4714147   4.620   6.287   2.769  0.7338 -0.6190 -0.1509
   51RES    O4814148   4.727   6.302   2.682  1.1090 -0.0027 -0.0550
   51RES    C4914149   4.827   6.395   2.721  0.1568  0.6518 -0.2655
   51RES    H5014150   4.642   6.056   2.648 -0.2154 -3.1218 -0.3168
   51RES    H5114151   4.577   6.018   2.805 -0.2797  0.7469  1.0402
   51RES    H5214152   4.433   6.212   2.800 -1.7462 -1.8348 -2.0597
   51RES    H5314153   4.574   6.384   2.791 -1.7380 -1.5256 -1.1243
   51RES    H5414154   4.652   6.244   2.864  3.3326  0.6016 -0.4240
   51RES    H5514155   4.893   6.399   2.634 -1.4480 -2.0212 -1.6811
   51RES    H5614156   4.877   6.365   2.813  0.0005 -0.2380 -0.4708
   51RES    H5714157   4.771   6.488   2.736 -0.7220 -0.0530  0.8737
   51RES    O5814158   4.453   6.245   2.591  0.3399 -0.0969  0.2009
   51RES    C5914159   4.321   6.293   2.597 -0.3497  0.3197 -0.1518
   51RES    C6014160   4.275   6.333   2.458  0.0002 -0.5214 -0.1696
   51RES    C6114161   4.161   6.438   2.448  0.1711  0.4730  0.0172
   51RES    O6214162   4.155   6.486   2.315 -0.5573 -0.3170 -0.0851
   51RES    C6314163   4.107   6.619   2.299  0.6073  0.2218 -0.0428
   51RES    H6414164   4.317   6.379   2.664 -0.2187 -1.7142  2.5536
   51RES    H6514165   4.262   6.209   2.634 -0.5003 -0.2324 -1.5903
   51RES    H6614166   4.365   6.369   2.408 -0.3333 -0.4987 -0.7600
   51RES    H6714167   4.061   6.402   2.473  0.9474 -1.3889  0.4998
   51RES    H6814168   4.177   6.522   2.516 -0.6598  1.6833 -1.2656
   51RES    H6914169   4.114   6.647   2.194 -1.8176 -1.3587 -0.6769
   51RES    H7014170   4.170   6.689   2.355  1.6398 -0.3964 -0.4221
   51RES    H7114171   3.999   6.615   2.316  1.0583  0.2534  3.3374
   51RES    O7214172   4.232   6.209   2.397  0.2017  0.4937  0.1123
   51RES    C7314173   4.335   6.127   2.347  0.1128 -1.1306 -0.3039
   51RES    C7414174   4.274   6.048   2.239 -0.5679 -0.1035 -0.4196
   51RES    C7514175   4.354   5.925   2.197  0.1498 -0.2656 -0.5266
   51RES    O7614176   4.285   5.851   2.107  0.1771  0.6969  0.7096
   51RES    C7714177   4.377   5.785   2.021  0.1916  0.1632 -0.2169
   51RES    H7814178   4.421   6.188   2.322 -0.7577 -0.3720 -1.5013
   51RES    H7914179   4.360   6.065   2.433  0.6916 -0.6214 -0.1006
   51RES    H8014180   4.172   6.033   2.274  0.5964 -0.4340  3.0955
   51RES    H8114181   4.375   5.853   2.277 -1.2707 -0.8993 -0.7124
   51RES    H8214182   4.448   5.971   2.166 -0.7042  0.9373 -1.3531
   51RES    H8314183   4.423   5.844   1.941  0.8662  2.6207  1.9287
   51RES    H8414184   4.332   5.694   1.982  0.3982 -0.1295  0.2250
   51RES    H8514185   4.455   5.755   2.091 -0.1578  0.1312  0.1605
   51RES    O8614186   4.254   6.135   2.133 -0.3680  0.0598  0.5151
   51RES    C8714187   4.173   6.096   2.019  0.2398 -0.6956  0.0625
   51RES    C8814188   4.099   6.223   1.964 -0.1668  0.1635  0.2336
   51RES    C8914189   4.059   6.214   1.815 -0.2008  0.1128  0.2609
   51RES    O9014190   4.167   6.210   1.722  0.1129  0.2235  0.0843
   51RES    C9114191   4.129   6.239   1.587  0.2298  0.2760  0.4204
   51RES    H9214192   4.235   6.040   1.948 -0.8126 -1.7953 -0.0004
   51RES    H9314193   4.095   6.028   2.054 -0.6385 -0.6007 -1.6925
   51RES    H9414194   4.163   6.310   1.963 -0.1001  0.1281  1.0623
   51RES    H9514195   4.004   6.121   1.801  0.3077 -0.2334  0.5392
   51RES    H9614196   3.993   6.297   1.791  0.4039  1.1532  2.0989
   51RES    H9714197   4.226   6.236   1.538  0.4987 -2.1013  1.0245
   51RES    H9814198   4.089   6.151   1.534  0.2173  1.2308 -1.1940
   51RES    H9914199   4.082   6.331   1.552 -0.2674  0.5304  1.7501
   51RES   O10014200   3.978   6.230   2.038 -0.3146  0.4939 -0.0631
   51RES   C10114201   3.991   6.312   2.154 -0.0760  0.3463 -0.1721
   51RES   C10214202   3.857   6.342   2.217 -0.6563  0.1037  0.3072
   51RES   C10314203   3.763   6.220   2.243  0.2963 -0.1230 -0.1169
   51RES   O10414204   3.677   6.241   2.351  0.7514  0.4295 -0.7604
   51RES   C10514205   3.593   6.131   2.372 -0.2567 -0.1434 -0.1338
   51RES   H10614206   4.025   6.413   2.130 -1.0853  0.3936 -1.4127
   51RES   H10714207   4.056   6.266   2.228  0.2958 -1.7547 -1.7589
   51RES   H10814208   3.875   6.381   2.317 -0.1803  1.4066 -0.2712
   51RES   H10914209   3.821   6.131   2.266  0.5014  0.1842  0.5614
   51RES   H11014210   3.721   6.191   2.147 -0.7464  0.9113  0.0158
   51RES   H11114211   3.654   6.047   2.403 -0.0135  1.0857  2.9450
   51RES   H11214212   3.522   6.115   2.290  0.4729 -1.6054 -0.4891
   51RES   H11314213   3.538   6.156   2.463  3.7598 -3.7536  3.5429
   51RES   O11414214   3.809   6.445   2.131  0.8071 -0.5805  0.6374
   51RES   C11514215   3.685   6.493   2.171 -0.3120 -0.0567  1.0080
   51RES   C11614216   3.575   6.431   2.084  0.1745 -0.4961 -0.0150
   51RES   C11714217   3.443   6.439   2.159  0.2164 -0.3912  0.2784
   51RES   O11814218   3.417   6.566   2.214  0.2166 -0.5346 -0.3954
   51RES   C11914219   3.357   6.655   2.120  0.5256  0.7290  0.1241
   51RES   H12014220   3.658   6.472   2.274 -2.3533 -2.3379  0.0377
   51RES   H12114221   3.688   6.602   2.176 -1.4410  0.0403 -0.0708
   51RES   H12214222   3.588   6.326   2.058  2.7338 -0.2260  0.0951
   51RES   H12314223   3.369   6.414   2.083 -0.6852  1.4452  0.5337
   51RES   H12414224   3.438   6.372   2.244 -1.1071  0.7205  1.0823
   51RES   H12514225   3.423   6.721   2.063 -0.0293  0.8722 -0.3517
   51RES   H12614226   3.310   6.725   2.187  0.2560 -0.2482  0.9656
   51RES   H12714227   3.283   6.605   2.057  2.6520 -3.3316  0.6784
   51RES   O12814228   3.552   6.505   1.963  0.0828 -0.2509 -0.1836
   51RES   C12914229   3.640   6.473   1.851 -0.3295  0.3879  0.3915
   51RES   C13014230   3.587   6.344   1.788  0.6423 -0.1111  0.6466
   51RES   C13114231   3.682   6.286   1.683 -0.1169  0.5548 -0.0987
   51RES   O13214232   3.646   6.147   1.677 -0.5765 -0.4226 -0.1985
   51RES   C13314233   3.718   6.079   1.576  0.1189  0.0903 -0.3566
   51RES   H13414234   3.649   6.562   1.789  1.2597  0.4162  0.6442
   51RES   H13514235   3.739   6.456   1.892 -1.3942 -2.8229  1.8068
   51RES   H13614236   3.576   6.266   1.864  0.3830  0.1509  0.8741
   51RES   H13714237   3.788   6.292   1.707 -0.0477  1.9107 -0.6955
   51RES   H13814238   3.662   6.329   1.585 -1.6182 -0.5927 -0.3262
   51RES   H13914239   3.665   6.094   1.481 -1.1008  0.4496  0.3674
   51RES   H14014240   3.823   6.107   1.566 -0.0186  1.2649  1.3063
   51RES   H14114241   3.710   5.976   1.611 -2.9382  0.7226  1.0137
   51RES   O14214242   3.473   6.376   1.709 -0.0904 -0.8837  0.0648
   51RES   C14314243   3.349   6.376   1.785 -0.4416 -0.1536  0.3649
   51RES   C14414244   3.246   6.326   1.693 -0.3342 -0.5943  0.0725
   51RES   C14514245   3.106   6.380   1.729  0.4330 -0.3469 -0.1723
   51RES   O14614246   3.000   6.324   1.649 -0.0715 -0.3843  0.0121
   51RES   C14714247   2.878   6.380   1.673  0.4746  0.2786 -0.3198
   51RES   H14814248   3.356   6.307   1.869  0.0997 -1.5689 -0.8088
   51RES   H14914249   3.323   6.478   1.810 -0.3717  0.1251 -0.6762
   51RES   H15014250   3.264   6.358   1.591  1.6271 -0.4916  0.4250
   51RES   H15114251   3.116   6.488   1.720  1.7695 -0.3434  1.1427
   51RES   H15214252   3.088   6.354   1.833  0.6981 -0.6378 -0.1978
   51RES   H15314253   2.808   6.318   1.616  2.1317 -1.7708 -0.1552
   51RES   H15414254   2.866   6.475   1.621  0.7725 -0.3674 -1.5766
   51RES   H15514255   2.847   6.400   1.776  0.8293  4.0520 -0.8593
   51RES   O15614256   3.253   6.183   1.698  0.1679  0.6201 -0.8131
   51RES   C15714257   3.257   6.116   1.571  0.3044  0.4712 -0.0301
   51RES   C15814258   3.215   5.964   1.589  0.2177 -0.0208  0.4592
   51RES   C15914259   3.326   5.892   1.665  0.5126  0.0586 -0.2211
   51RES   O16014260   3.297   5.766   1.722 -0.1404 -0.0676  0.4314
   51RES   C16114261   3.287   5.650   1.638 -0.0570  0.0428  0.0339
   51RES   H16214262   3.186   6.174   1.512 -0.6539 -0.8362 -0.1974
   51RES   H16314263   3.353   6.124   1.520 -0.6487  2.0070 -1.6534
   51RES   H16414264   3.127   5.967   1.653  0.6978  0.0060  1.1300
   51RES   H16514265   3.416   5.891   1.603  0.6668 -0.8589  0.0068
   51RES   H16614266   3.352   5.961   1.745  0.1579  0.2676 -0.2843
   51RES   H16714267   3.360   5.642   1.558  2.1550 -0.1358  1.9875
   51RES   H16814268   3.186   5.651   1.596 -1.1684  1.4865  2.5981
   51RES   H16914269   3.291   5.560   1.699 -1.2840  0.6486  1.0390
   51RES   O17014270   3.191   5.906   1.461  0.1596  0.0514 -0.1694
   51RES   C17114271   3.284   5.919   1.351 -0.3192  0.3618 -0.1463
   51RES   C17214272   3.212   5.878   1.220  0.1345  0.1274  0.0291
   51RES   C17314273   3.084   5.963   1.199 -0.4942 -0.1924 -0.1292
   51RES   O17414274   3.073   6.027   1.070  0.0053  0.4332  0.2272
   51RES   C17514275   2.990   6.138   1.055 -0.6722 -0.5056 -0.2590
   51RES   H17614276   3.378   5.872   1.381 -0.0471  2.2522  2.1116
   51RES   H17714277   3.319   6.021   1.333  2.6627 -0.8014 -1.3967
   51RES   H17814278   3.282   5.899   1.139  0.9543  0.0428  0.7090
   51RES   H17914279   2.991   5.907   1.212 -0.6437  0.1627  0.3413
   51RES   H18014280   3.085   6.044   1.272 -0.4841 -1.2755  1.0957
   51RES   H18114281   3.000   6.188   0.959 -2.2621  1.1238  0.3938
   51RES   H18214282   3.024   6.212   1.128 -0.7178 -1.8605  1.1673
   51RES   H18314283   2.889   6.099   1.062 -0.7275 -0.5168 -1.0745
   51RES   O18414284   3.170   5.738   1.226  0.5304 -0.5687 -0.2711
   51RES   C18514285   3.268   5.648   1.179  0.0602  0.3650 -0.1708
   51RES   C18614286   3.215   5.506   1.213 -0.4003 -0.0795  0.7628
   51RES   C18714287   3.309   5.388   1.187  0.2687 -0.2468  0.3689
   51RES   O18814288   3.372   5.389   1.058 -0.0356  0.6927 -0.0803
   51RES   C18914289   3.468   5.290   1.020 -0.1407 -0.2974  0.6414
   51RES   H19014290   3.366   5.666   1.222 -0.4882 -0.9286  1.6848
   51RES   H19114291   3.276   5.665   1.072 -0.7051 -1.9504 -0.6181
   51RES   H19214292   3.200   5.494   1.320  1.3526 -0.4900  0.9751
   51RES   H19314293   3.269   5.287   1.196 -1.8903  0.6309  0.9634
   51RES   H19414294   3.395   5.391   1.254  0.0403 -0.7943  0.6919
   51RES   H19514295   3.556   5.316   1.079 -0.5722  0.3963  0.9784
   51RES   H19614296   3.448   5.187   1.051  0.7726 -0.3033  1.2324
   51RES   H19714297   3.501   5.299   0.916  1.3969 -1.3593  1.0065
   51RES   O19814298   3.098   5.485   1.128 -0.5335 -0.7898 -0.0529
   51RES   C19914299   2.992   5.420   1.189 -0.1707  0.0574  0.2110
   51RES   C20014300   2.852   5.442   1.122  0.2681 -1.0408 -0.0436
   51RES   C20114301   2.794   5.581   1.160  0.5266 -0.2707  0.5023
   51RES   O20214302   2.664   5.614   1.098  0.2066  0.5790  0.4181
   51RES   C20314303   2.623   5.751   1.113  0.0160 -0.0360  0.4578
   51RES   H20414304   2.968   5.439   1.293  0.4768  0.3123  0.3176
   51RES   H20514305   3.013   5.315   1.169 -1.4968  0.2702 -2.6476
   51RES   H20614306   2.853   5.448   1.013 -0.6675  1.0301  0.0406
   51RES   H20714307   2.787   5.597   1.267  1.3061 -1.4543  0.7392
   51RES   H20814308   2.861   5.655   1.118  2.7839  0.0263  4.4193
   51RES   H20914309   2.712   5.811   1.092 -1.2302  1.6655 -0.0892
   51RES   H21014310   2.598   5.758   1.219  1.2022 -2.6507  0.9551
   51RES   H21114311   2.543   5.773   1.043  1.9285  1.5824 -1.2775
   51RES   O21214312   2.773   5.345   1.181  0.3072  0.8241 -0.0044
   51RES   C21314313   2.646   5.304   1.130  0.2856  0.0751 -0.5152
   51RES   C21414314   2.600   5.185   1.214 -0.5439  0.4566 -0.4271
   51RES   C21514315   2.501   5.092   1.138  0.5340  0.3101 -0.0648
   51RES   O21614316   2.490   4.965   1.202  0.6096  0.5602  0.2484
   51RES   C21714317   2.386   4.880   1.161  0.4625  0.1743  0.3161
   51RES   H21814318   2.664   5.269   1.028  0.2918 -0.7551 -0.2278
   51RES   H21914319   2.589   5.397   1.122  2.5379  1.8291  2.3351
   51RES   H22014320   2.691   5.129   1.237 -0.0773  1.5178  0.3873
   51RES   H22114321   2.403   5.137   1.122  0.2361 -0.0971  0.6300
   51RES   H22214322   2.551   5.084   1.041  0.7650 -2.1069  0.2277
   51RES   H22314323   2.396   4.845   1.058 -1.7375 -1.0079  0.4683
   51RES   H22414324   2.283   4.917   1.162 -1.4203 -4.4966 -2.2920
   51RES   H22514325   2.387   4.790   1.222  0.1816  0.7800  1.2135
   51RES   O22614326   2.547   5.243   1.336 -0.1284 -0.0905  0.1829
   51RES   C22714327   2.517   5.156   1.447 -0.0651  0.6591  0.6648
   51RES   C22814328   2.439   5.228   1.562  0.2226 -0.5496 -0.4052
   51RES   C22914329   2.398   5.127   1.672 -0.0968  0.2658 -0.2794
   51RES   O23014330   2.328   5.188   1.786  0.2054 -0.1320 -0.2292
   51RES   C23114331   2.259   5.087   1.857 -0.1787  0.6966 -0.3481
   51RES   H23214332   2.612   5.131   1.494  0.0683  0.8565  0.5009
   51RES   H23314333   2.477   5.062   1.410 -0.5250  0.4961  1.5678
   51RES   H23414334   2.348   5.260   1.511 -0.9599  0.3152  2.1697
   51RES   H23514335   2.496   5.092   1.704 -1.4232 -1.5464  1.9347
   51RES   H23614336   2.346   5.047   1.620 -0.4101 -0.8836  1.7467
   51RES   H23714337   2.342   5.027   1.893 -0.9074 -0.2761 -0.2833
   51RES   H23814338   2.194   5.024   1.796 -0.2565  0.1950  0.2490
   51RES   H23914339   2.199   5.133   1.935 -1.2266 -1.4720  0.1641
   51RES   O24014340   2.521   5.324   1.627 -0.5113  0.5324  0.4970
   51RES   C24114341   2.503   5.453   1.569  0.4628 -0.0004  0.5468
   51RES   C24214342   2.597   5.553   1.641  0.4528  1.0948 -0.0165
   51RES   C24314343   2.692   5.625   1.545  0.0555  0.1202  0.6705
   51RES   O24414344   2.764   5.730   1.608 -0.1871 -0.5692 -0.2372
   51RES   C24514345   2.834   5.803   1.502 -0.0921  0.3395 -0.5857
   51RES   H24614346   2.398   5.478   1.584 -0.2024 -1.3722 -1.5857
   51RES   H24714347   2.510   5.468   1.461 -1.4451  2.2492  0.6970
   51RES   H24814348   2.655   5.515   1.725 -0.6231 -1.2714 -0.3305
   51RES   H24914349   2.759   5.557   1.493  0.7190 -1.8813  4.0092
   51RES   H25014350   2.634   5.664   1.461 -1.0746  1.8836  2.2193
   51RES   H25114351   2.773   5.854   1.428 -0.1166  1.0358 -0.0816
   51RES   H25214352   2.909   5.741   1.452 -0.7456 -1.1839  0.2609
   51RES   H25314353   2.896   5.874   1.557  0.0839 -1.3852  1.4977
   51RES   O25414354   2.516   5.647   1.721  0.3465  0.1597 -0.0343
   51RES   C25514355   2.450   5.588   1.830 -0.4211 -0.0817 -0.7797
   51RES   C25614356   2.372   5.705   1.901 -0.6374  0.1964  0.9078
   51RES   C25714357   2.262   5.640   1.986  0.1040 -0.2294 -0.1573
   51RES   O25814358   2.131   5.652   1.927 -0.1531 -0.6304 -0.0319
   51RES   C25914359   2.027   5.596   1.999 -0.0184 -0.5175  0.0596
   51RES   H26014360   2.377   5.518   1.789  0.7668 -1.1728 -1.0656
   51RES   H26114361   2.515   5.529   1.894 -0.8911 -2.1906 -2.2157
   51RES   H26214362   2.327   5.773   1.829 -1.1722  0.8284  1.8183
   51RES   H26314363   2.287   5.535   2.005  1.5755 -0.1282 -1.4005
   51RES   H26414364   2.261   5.680   2.087 -0.8279 -0.5404 -0.0427
   51RES   H26514365   2.066   5.503   2.040 -0.7196 -0.6875  0.3439
   51RES   H26614366   1.933   5.585   1.946  0.8340  0.9029 -1.8132
   51RES   H26714367   2.022   5.672   2.077  0.5339 -0.5366  0.1175
   51RES   O26814368   2.455   5.783   1.990 -0.0070 -0.2899 -0.0471
   51RES   C26914369   2.569   5.834   1.930 -0.0361  0.4298  0.2337
   51RES   C27014370   2.639   5.950   2.016  0.3650 -0.0995  0.6018
   51RES   C27114371   2.754   6.017   1.936  0.6541 -0.5293 -0.6254
   51RES   O27214372   2.883   5.979   1.983 -0.2402 -0.8728  0.1649
   51RES   C27314373   2.983   6.052   1.914  0.0423  0.1682 -0.2147
   51RES   H27414374   2.538   5.886   1.840  0.2368  1.7726  0.9142
   51RES   H27514375   2.639   5.760   1.890 -0.4230 -1.1408  2.3751
   51RES   H27614376   2.563   6.026   2.034 -0.0422 -0.4394  0.3263
   51RES   H27714377   2.735   6.124   1.938 -2.4009 -1.0417  0.4564
   51RES   H27814378   2.755   5.987   1.831 -1.1982 -2.4201 -0.1573
   51RES   H27914379   3.086   6.020   1.933 -0.3652 -1.2358 -0.2673
   51RES   H28014380   2.982   6.158   1.939  0.6673  0.0419  0.3525
   51RES   H28114381   2.982   6.052   1.805  1.3430  1.3074 -0.2301
   51RES   H28214382   2.648   5.918   2.120 -0.2605 -1.6316  0.1953
   52RES     O114383   2.310   3.341   7.331  0.2466 -0.2295 -0.5454
   52RES     C214384   2.205   3.396   7.409  0.3426  0.4549 -0.6623
   52RES     C314385   2.175   3.303   7.524 -0.1847 -0.6958  0.1550
   52RES     C414386   2.055   3.355   7.600 -0.3884 -0.1720 -0.4941
   52RES     O514387   2.030   3.273   7.713 -0.8377 -0.1122  0.5035
   52RES     C614388   1.957   3.342   0.001 -0.4864 -0.0146  0.4833
   52RES     H714389   2.244   3.493   7.439  0.3255  0.5351 -0.9015
   52RES     H814390   2.121   3.417   7.342  1.6991  2.5795 -1.7379
   52RES     H914391   2.266   3.290   7.582 -0.0579 -3.4489 -0.6161
   52RES    H1014392   1.958   3.355   7.549 -1.6402  0.4309  1.8191
   52RES    H1114393   2.082   3.459   7.618  1.3584 -0.7044  0.0545
   52RES    H1214394   1.960   3.291   0.098 -0.4692  0.3032  0.6480
   52RES    H1314395   1.999   3.439   0.026  1.1213 -0.9677  1.5601
   52RES    H1414396   1.855   3.341   7.779 -0.4225  0.3576  0.3086
   52RES    H1514397   2.314   3.247   7.331 -1.1397 -0.3007  0.6426
   52RES    O1614398   2.139   3.184   7.464  0.0806  0.1848  0.5638
   52RES    C1714399   2.178   3.065   7.530  0.1511  0.2320 -0.4505
   52RES    C1814400   2.190   2.956   7.422 -0.0829 -0.4816 -0.2789
   52RES    C1914401   2.061   2.926   7.345  0.6458 -0.2475  0.1898
   52RES    O2014402   2.070   2.796   7.290 -0.1123  0.1374 -0.1915
   52RES    C2114403   1.969   2.781   7.192  0.9305  0.9155  0.2764
   52RES    H2214404   2.110   3.029   7.607  0.2454  0.8406 -0.0888
   52RES    H2314405   2.272   3.073   7.584 -0.4343  0.3346  0.5575
   52RES    H2414406   2.220   2.863   7.471  0.4787  0.4224  1.1508
   52RES    H2514407   1.988   2.915   7.425  1.2029  0.2734  0.7686
   52RES    H2614408   2.028   2.998   7.270  0.9838  0.1828  0.4556
   52RES    H2714409   1.875   2.790   7.246  0.5607 -1.2377  0.0396
   52RES    H2814410   1.991   2.680   7.155  0.6889  0.4416  1.4022
   52RES    H2914411   1.967   2.862   7.119 -0.7226  0.2676 -0.4144
   52RES    O3014412   2.293   3.009   7.333 -0.3939 -0.1941  0.0846
   52RES    C3114413   2.338   2.922   7.229 -0.0160  0.2910 -0.4898
   52RES    C3214414   2.463   2.982   7.160 -0.2640  0.1796  0.3865
   52RES    C3314415   2.532   2.898   7.046 -0.4292 -0.3388 -0.4333
   52RES    O3414416   2.554   2.761   7.084 -0.5454 -0.7246  0.4568
   52RES    C3514417   2.651   2.692   7.003  1.0692  0.0946  0.0103
   52RES    H3614418   2.367   2.827   7.274  0.4553  1.5686  1.9779
   52RES    H3714419   2.255   2.915   7.158 -1.6693 -0.6855  1.4659
   52RES    H3814420   2.438   3.075   7.110  0.2938 -0.8242 -1.8598
   52RES    H3914421   2.613   2.960   7.008 -0.6002  0.8144  0.9910
   52RES    H4014422   2.457   2.910   6.968  0.3684  1.3175 -0.9811
   52RES    H4114423   2.656   2.594   7.051 -1.8487  0.3233  0.8778
   52RES    H4214424   2.744   2.744   6.980  1.4430 -0.5075  0.1461
   52RES    H4314425   2.586   2.676   6.917 -1.4487  0.4716  1.7821
   52RES    O4414426   2.559   3.037   7.254 -0.1145  0.1630 -0.7972
   52RES    C4514427   2.622   2.944   7.337  0.2452 -0.0194  0.0684
   52RES    C4614428   2.726   3.017   7.414 -0.2028  0.2083 -0.8345
   52RES    C4714429   2.788   2.929   7.525  1.1368  0.0585  0.0333
   52RES    O4814430   2.843   3.017   7.625  0.2626 -0.0946  0.5353
   52RES    C4914431   2.945   2.952   7.701 -0.2080  0.4353  0.5366
   52RES    H5014432   2.658   2.853   7.289 -0.8253  0.9134 -2.5721
   52RES    H5114433   2.545   2.909   7.405  0.1932 -1.4329 -0.6962
   52RES    H5214434   2.677   3.101   7.463  0.3333 -0.1657  0.3540
   52RES    H5314435   2.715   2.861   7.569  2.2507 -0.2789  1.3896
   52RES    H5414436   2.861   2.857   7.489  1.6623  0.6914 -0.1695
   52RES    H5514437   3.025   2.911   7.639 -1.5562 -0.1854 -0.8434
   52RES    H5614438   2.910   2.866   7.757 -0.5003 -0.1233 -0.4937
   52RES    H5714439   2.983   3.019   7.778 -1.7835  1.1849  0.6918
   52RES    O5814440   2.823   3.061   7.318 -0.1010  0.1583  0.6584
   52RES    C5914441   2.873   3.193   7.343 -0.2921 -0.1862 -0.0219
   52RES    C6014442   2.965   3.235   7.222  0.1356 -0.5360 -1.0338
   52RES    C6114443   3.072   3.342   7.265  0.1962 -0.1293 -0.4516
   52RES    O6214444   3.023   3.444   7.346  0.0845  0.3689  0.1319
   52RES    C6314445   2.930   3.521   7.268  0.4614 -0.0238  0.1731
   52RES    H6414446   2.930   3.190   7.437 -1.7927 -1.6819  0.8483
   52RES    H6514447   2.790   3.263   7.353 -1.4648 -1.6850  0.7956
   52RES    H6614448   3.007   3.143   7.181  1.7345  0.3340 -1.3899
   52RES    H6714449   3.148   3.291   7.324  1.2438  1.9725  0.0469
   52RES    H6814450   3.116   3.378   7.173  0.8138 -1.5927 -0.7432
   52RES    H6914451   2.909   3.614   7.322  0.3908 -0.0625  0.2120
   52RES    H7014452   2.834   3.472   7.278 -0.1852  1.4652  1.5725
   52RES    H7114453   2.958   3.519   7.163 -0.2729 -0.6126 -0.0139
   52RES    O7214454   2.891   3.300   7.121 -0.2244  0.0222 -0.2177
   52RES    C7314455   2.766   3.238   7.075  0.5847 -0.3393  0.9907
   52RES    C7414456   2.713   3.314   6.960 -0.2526  0.2085  0.1828
   52RES    C7514457   2.565   3.307   6.940  0.4787 -0.5391  0.2110
   52RES    O7614458   2.547   3.411   6.852 -0.4561 -0.1141 -0.0122
   52RES    C7714459   2.417   3.412   6.790  0.1355  0.5593 -0.1378
   52RES    H7814460   2.778   3.132   7.053 -0.4936 -0.0724 -0.9475
   52RES    H7914461   2.692   3.250   7.155  1.1609  1.1255  1.3169
   52RES    H8014462   2.728   3.420   6.979 -2.2564  0.4098  0.7506
   52RES    H8114463   2.502   3.312   7.029  1.4154 -0.3005  0.8759
   52RES    H8214464   2.545   3.210   6.896 -3.1071  0.1244  0.2077
   52RES    H8314465   2.344   3.456   6.857  0.7907  2.5555 -0.6933
   52RES    H8414466   2.382   3.312   6.763  0.2511  0.5723 -0.3417
   52RES    H8514467   2.395   3.474   6.703 -0.5321  0.1765 -0.2418
   52RES    O8614468   2.767   3.253   6.843 -0.5193  0.3634  0.5629
   52RES    C8714469   2.912   3.273   6.822  0.5526  0.8169  0.2960
   52RES    C8814470   2.951   3.203   6.692  0.2006  0.5777  0.1950
   52RES    C8914471   3.078   3.274   6.628 -0.2171  0.1445  0.2880
   52RES    O9014472   3.183   3.270   6.727 -0.1377  0.7604 -0.4785
   52RES    C9114473   3.288   3.353   6.687 -0.0073  0.3007 -0.7175
   52RES    H9214474   2.923   3.381   6.808 -1.4016  0.7451 -2.0641
   52RES    H9314475   2.984   3.236   6.896 -2.3148 -0.3636  2.5757
   52RES    H9414476   2.872   3.214   6.617 -0.7187  0.8121  1.1956
   52RES    H9514477   3.112   3.211   6.546 -1.2573 -0.2327  0.1353
   52RES    H9614478   3.050   3.374   6.594 -1.2086 -0.7577 -1.6246
   52RES    H9714479   3.249   3.448   6.650 -1.7380  0.4375  1.2967
   52RES    H9814480   3.363   3.363   6.766 -0.8078  0.0765  0.0865
   52RES    H9914481   3.345   3.304   6.609  2.0634 -1.2257  1.7136
   52RES   O10014482   2.976   3.064   6.728  0.9373 -0.0136 -0.2108
   52RES   C10114483   2.857   2.983   6.714  0.6106 -0.6179  0.1506
   52RES   C10214484   2.886   2.830   6.731  0.2708  0.7548  0.5625
   52RES   C10314485   2.974   2.808   6.861 -0.7817  0.1270 -0.7638
   52RES   O10414486   2.967   2.674   6.897 -0.0725 -0.2865 -0.5884
   52RES   C10514487   3.072   2.647   6.987 -0.8375  0.5175 -0.4386
   52RES   H10614488   2.804   2.993   6.620 -1.9873 -0.1541  1.6027
   52RES   H10714489   2.787   3.000   6.797 -1.6071 -0.2127 -1.7587
   52RES   H10814490   2.788   2.781   6.739  0.7341 -0.5798 -1.5949
   52RES   H10914491   2.944   2.873   6.942 -0.5788  0.2053 -0.7523
   52RES   H11014492   3.073   2.836   6.824 -1.4141  1.0106 -1.8238
   52RES   H11114493   3.165   2.680   6.941 -0.6557 -1.9324 -1.9652
   52RES   H11214494   3.089   2.541   7.008  2.3091  1.0264 -0.1775
   52RES   H11314495   3.060   2.698   7.082 -1.0916 -1.1753  0.4664
   52RES   O11414496   2.950   2.796   6.612  0.7569 -0.9331  1.1714
   52RES   C11514497   3.006   2.665   6.604  0.3600  0.0731  0.0405
   52RES   C11614498   3.083   2.642   6.468 -0.4499 -0.8862 -0.4223
   52RES   C11714499   3.139   2.505   6.463 -0.7581 -0.4335  0.0509
   52RES   O11814500   3.242   2.501   6.363  0.0376  0.2444 -0.6445
   52RES   C11914501   3.285   2.363   6.340  0.0223  0.1495  0.4435
   52RES   H12014502   3.079   2.641   6.682  1.2088  0.2069 -0.7016
   52RES   H12114503   2.922   2.596   6.603  0.2643  0.1774  0.6922
   52RES   H12214504   3.156   2.722   6.459 -0.2037 -1.2033 -1.3697
   52RES   H12314505   3.198   2.472   6.549 -0.6273  0.7504  0.4203
   52RES   H12414506   3.056   2.437   6.444 -0.6027 -0.2239 -1.4864
   52RES   H12514507   3.332   2.356   6.242 -2.1324  0.4687 -0.6557
   52RES   H12614508   3.202   2.293   6.333 -1.4112  1.8675 -0.1068
   52RES   H12714509   3.359   2.321   6.408  0.4600  0.2796  0.0467
   52RES   O12814510   2.989   2.653   6.365  0.5790 -0.1648  0.0949
   52RES   C12914511   3.031   2.653   6.229  0.7792 -0.2991 -0.5772
   52RES   C13014512   2.910   2.673   6.137  0.1972 -0.2054  0.2215
   52RES   C13114513   2.950   2.635   5.996  0.4344 -0.2220 -0.2436
   52RES   O13214514   3.054   2.723   5.943  0.4754 -0.0080  0.6877
   52RES   C13314515   3.087   2.697   5.810 -0.2586 -0.1467 -0.7892
   52RES   H13414516   3.110   2.729   6.229 -0.4514  1.1025  3.5358
   52RES   H13514517   3.084   2.561   6.205  0.8991 -0.4917  0.4259
   52RES   H13614518   2.833   2.604   6.172  1.0249 -1.1982  0.0889
   52RES   H13714519   2.857   2.649   5.941  0.0551 -0.3462  0.3668
   52RES   H13814520   2.988   2.533   5.994  1.4006  0.1439 -2.9676
   52RES   H13914521   2.998   2.703   5.747 -1.6155 -0.6552  1.0574
   52RES   H14014522   3.152   2.780   5.784 -1.5950  1.2229  0.2026
   52RES   H14114523   3.133   2.604   5.775  0.5150  1.1569 -3.3107
   52RES   O14214524   2.859   2.805   6.132  0.3306  0.5128  0.8882
   52RES   C14314525   2.829   2.866   6.261 -0.1844 -0.5606 -0.8090
   52RES   C14414526   2.718   2.978   6.246  0.3413 -0.9369  0.4123
   52RES   C14514527   2.699   3.060   6.377  0.2367 -0.1632  0.6501
   52RES   O14614528   2.613   3.176   6.351 -0.4255  0.2692 -0.0625
   52RES   C14714529   2.563   3.252   6.464 -0.1687 -0.3665  0.0029
   52RES   H14814530   2.783   2.790   6.325  1.5625 -0.2212  0.8909
   52RES   H14914531   2.922   2.905   6.301 -0.3398 -0.5498 -0.4508
   52RES   H15014532   2.756   3.038   6.163  0.7502 -1.1804  0.4251
   52RES   H15114533   2.793   3.108   6.403 -1.6994  2.8896  2.3183
   52RES   H15214534   2.655   3.000   6.457  0.6825 -0.2154  0.8549
   52RES   H15314535   2.643   3.305   6.515  0.5806  1.3830 -2.9275
   52RES   H15414536   2.526   3.185   6.542  0.5964 -0.6635  0.1138
   52RES   H15514537   2.496   3.334   6.439  0.3224  0.0133 -0.0624
   52RES   O15614538   2.600   2.916   6.226 -0.5225 -0.2357 -0.1247
   52RES   C15714539   2.548   2.921   6.093  0.1337  0.3087  0.4845
   52RES   C15814540   2.400   2.880   6.093 -0.2535  0.8837  0.2977
   52RES   C15914541   2.350   2.848   5.950  0.2705 -1.1261 -0.0031
   52RES   O16014542   2.369   2.949   5.863 -0.1767  0.2093  0.0326
   52RES   C16114543   2.320   3.079   5.891 -0.2212 -0.2598 -1.2227
   52RES   H16214544   2.558   3.023   6.056 -0.9809 -0.3647 -1.8164
   52RES   H16314545   2.618   2.855   6.042 -0.5834 -0.5358  0.5684
   52RES   H16414546   2.395   2.782   6.139 -1.3970  0.4678 -0.7131
   52RES   H16514547   2.403   2.764   5.906 -1.1022 -1.1610 -1.6221
   52RES   H16614548   2.242   2.838   5.941 -0.1408  1.1353  1.8393
   52RES   H16714549   2.369   3.114   5.982 -0.1954 -1.1988 -0.8726
   52RES   H16814550   2.212   3.066   5.899 -0.5325  1.5711 -2.2020
   52RES   H16914551   2.341   3.148   5.809 -2.5115  0.7987 -0.9491
   52RES   O17014552   2.335   2.977   6.175 -0.2608 -1.1910  0.4150
   52RES   C17114553   2.232   2.921   6.258  0.0485  0.2376  0.1498
   52RES   C17214554   2.210   3.025   6.372 -0.2534  0.3488  0.2035
   52RES   C17314555   2.134   2.974   6.495  0.1739  0.3578 -0.0058
   52RES   O17414556   2.203   3.026   6.599 -0.3793 -0.1604 -0.2378
   52RES   C17514557   2.137   2.999   6.718  0.5626  0.0158 -0.5736
   52RES   H17614558   2.256   2.820   6.292  1.9848  0.1170 -1.4362
   52RES   H17714559   2.139   2.907   6.204 -0.7791 -2.4275  2.1390
   52RES   H17814560   2.308   3.064   6.399  1.5646 -3.3439 -0.7384
   52RES   H17914561   2.033   3.013   6.478  0.4589  1.9730  1.8019
   52RES   H18014562   2.125   2.866   6.489 -0.4681  0.3750  0.4726
   52RES   H18114563   2.148   2.891   6.732  0.8220 -0.1747 -2.1753
   52RES   H18214564   2.033   3.030   6.722  0.1613 -1.2763 -0.8398
   52RES   H18314565   2.193   3.039   6.802 -0.4758  0.4740 -0.0919
   52RES   O18414566   2.138   3.134   6.308 -0.6351  0.1868 -0.0728
   52RES   C18514567   2.223   3.238   6.248 -0.0230 -0.4774 -0.3679
   52RES   C18614568   2.150   3.326   6.137 -0.2592  0.2791 -0.9562
   52RES   C18714569   2.230   3.460   6.112 -0.0362 -0.0320 -0.2153
   52RES   O18814570   2.207   3.508   5.982 -0.2526 -0.0128 -0.5210
   52RES   C18914571   2.286   3.620   5.961  0.9738  0.0116  0.9123
   52RES   H19014572   2.321   3.209   6.211  0.4507  1.7219 -0.8583
   52RES   H19114573   2.251   3.301   6.332 -2.0943 -0.2344  0.1760
   52RES   H19214574   2.156   3.260   6.050  1.1210 -2.9522  1.4770
   52RES   H19314575   2.337   3.445   6.129 -0.1098  0.2049  0.4829
   52RES   H19414576   2.204   3.539   6.182 -1.0531 -1.6578  1.2707
   52RES   H19514577   2.270   3.636   5.855  3.1177 -1.5695  0.3137
   52RES   H19614578   2.270   3.702   6.030  2.8024  0.7337  0.5082
   52RES   H19714579   2.391   3.593   5.977  0.5341 -3.9117 -2.0348
   52RES   O19814580   2.019   3.365   6.171  0.0573 -0.2416  0.2641
   52RES   C19914581   1.922   3.265   6.150 -0.3112  0.3119 -0.2278
   52RES   C20014582   1.793   3.334   6.127 -0.4126 -0.3798 -1.4465
   52RES   C20114583   1.813   3.456   6.029  0.1091 -0.2443 -0.2226
   52RES   O20214584   1.696   3.481   5.947 -0.2738 -0.3483 -0.3418
   52RES   C20314585   1.727   3.561   5.833 -0.2933  0.0725  0.9807
   52RES   H20414586   1.915   3.184   6.222  2.2227  0.3288  0.0984
   52RES   H20514587   1.945   3.215   6.056 -1.8842  0.1369 -0.5233
   52RES   H20614588   1.734   3.262   6.071 -2.4363  0.4898 -0.4539
   52RES   H20714589   1.828   3.552   6.079 -4.7339  0.2076  0.6554
   52RES   H20814590   1.904   3.448   5.971 -0.6550 -1.3482 -1.3066
   52RES   H20914591   1.812   3.524   5.777 -0.8790  1.6079 -0.9588
   52RES   H21014592   1.745   3.666   5.857 -0.7820 -0.0104  1.7348
   52RES   H21114593   1.648   3.559   5.758  0.3618  0.7500  0.2678
   52RES   O21214594   1.731   3.385   6.249  0.0304  0.2667  0.5765
   52RES   C21314595   1.678   3.287   6.339 -0.1121 -0.1309  0.2260
   52RES   C21414596   1.528   3.290   6.318 -0.4024  0.2270 -0.4224
   52RES   C21514597   1.459   3.198   6.419  0.6953 -0.0598  0.4597
   52RES   O21614598   1.330   3.253   6.453 -0.4361  0.2961  0.3919
   52RES   C21714599   1.269   3.155   6.533  0.5549  0.4176  0.4133
   52RES   H21814600   1.712   3.327   6.434  0.1299  0.7352 -0.2209
   52RES   H21914601   1.721   3.187   6.337  1.0855  0.3496  1.2505
   52RES   H22014602   1.493   3.392   6.334  0.3681  0.2273  1.2562
   52RES   H22114603   1.457   3.101   6.370  2.3789  0.4641 -0.7030
   52RES   H22214604   1.514   3.182   6.512  0.0317 -2.4402  0.4728
   52RES   H22314605   1.266   3.051   6.499  1.3058  0.4376  0.2741
   52RES   H22414606   1.164   3.182   6.545  0.0214 -0.4707 -2.0606
   52RES   H22514607   1.313   3.143   6.632  2.2708 -2.5516 -0.6265
   52RES   O22614608   1.493   3.236   6.188 -0.1330 -0.6584 -0.6271
   52RES   C22714609   1.364   3.268   6.139 -0.3808  0.0226 -0.5921
   52RES   C22814610   1.353   3.194   6.010  0.2696  1.0417  0.2534
   52RES   C22914611   1.462   3.224   5.899 -0.0494 -0.3219  0.1805
   52RES   O23014612   1.419   3.187   5.768  0.3168 -0.0746  0.3439
   52RES   C23114613   1.521   3.190   5.667  0.3136 -0.8557  0.4170
   52RES   H23214614   1.354   3.375   6.125  1.0544  0.6018  2.4840
   52RES   H23314615   1.285   3.232   6.205 -0.5647 -1.6838 -1.7020
   52RES   H23414616   1.260   3.232   5.968 -0.4299 -0.9154 -0.0301
   52RES   H23514617   1.561   3.185   5.926 -0.3586 -1.0694  0.2399
   52RES   H23614618   1.468   3.333   5.897  1.5768 -0.3631  1.1019
   52RES   H23714619   1.475   3.196   5.569  1.3003  0.2814  0.0123
   52RES   H23814620   1.578   3.097   5.675 -0.8056 -1.4455  1.7791
   52RES   H23914621   1.597   3.268   5.669  0.5615 -1.0945  3.5142
   52RES   O24014622   1.325   3.056   6.042 -0.0770  0.1198  1.2689
   52RES   C24114623   1.441   2.972   6.023  0.6601 -0.6055 -0.0792
   52RES   C24214624   1.413   2.821   6.031 -0.5981  0.3286 -0.3456
   52RES   C24314625   1.533   2.744   5.987 -0.6503  0.0074 -0.3309
   52RES   O24414626   1.503   2.605   5.984  0.2335  0.4459  0.0905
   52RES   C24514627   1.617   2.520   5.963 -0.0575  0.1488 -0.1427
   52RES   H24614628   1.509   2.999   6.103 -0.8999  2.7341  0.2099
   52RES   H24714629   1.491   2.991   5.928 -1.3802 -0.7285 -1.2154
   52RES   H24814630   1.332   2.796   5.963  0.8943 -0.5687 -1.8189
   52RES   H24914631   1.574   2.764   5.888 -0.9282  1.2893 -0.1985
   52RES   H25014632   1.602   2.763   6.069  0.1292 -2.9430 -0.2499
   52RES   H25114633   1.583   2.439   5.898 -3.8968  1.8149 -0.3669
   52RES   H25214634   1.655   2.471   6.053  1.2002  0.2939 -0.5901
   52RES   H25314635   1.697   2.580   5.921 -2.0823  2.1225 -1.3136
   52RES   O25414636   1.382   2.778   6.169 -0.1142 -0.1762 -0.1253
   52RES   C25514637   1.256   2.820   6.216  0.9150 -0.0567 -1.0235
   52RES   C25614638   1.207   2.750   6.339 -0.1746 -0.5394 -0.2465
   52RES   C25714639   1.069   2.806   6.387 -0.4463  0.0393 -0.2804
   52RES   O25814640   1.046   2.772   6.527 -0.4248 -0.9687  0.5213
   52RES   C25914641   0.911   2.801   6.565 -1.0177 -0.3271  0.8277
   52RES   H26014642   1.255   2.928   6.229 -0.8287 -0.1457 -0.2590
   52RES   H26114643   1.186   2.785   6.139 -0.6126 -0.4495  0.5028
   52RES   H26214644   1.270   2.756   6.427 -0.2978 -1.0699 -0.1234
   52RES   H26314645   1.060   2.914   6.378  0.6054  0.3040  1.6066
   52RES   H26414646   0.998   2.766   6.315 -0.5740  0.0983 -0.1872
   52RES   H26514647   0.838   2.760   6.495 -1.1923  1.9930 -0.4135
   52RES   H26614648   0.901   2.910   6.565 -0.8883 -0.3145  1.6474
   52RES   H26714649   0.895   2.765   6.666  1.4647 -1.4012  0.8847
   52RES   O26814650   1.176   2.618   6.308  0.0524 -0.2312  0.1945
   52RES   C26914651   1.281   2.527   6.341 -0.3589 -0.3314 -0.0990
   52RES   C27014652   1.257   2.386   6.278  0.0249 -0.0949  0.1117
   52RES   C27114653   1.124   2.318   6.309 -0.5893  0.3695 -0.6774
   52RES   O27214654   1.108   2.196   6.234  0.1047 -0.2873 -0.5369
   52RES   C27314655   0.988   2.134   6.269 -0.0271 -0.1743  0.0480
   52RES   H27414656   1.278   2.526   6.450  0.2067  0.4812 -0.0722
   52RES   H27514657   1.380   2.569   6.323  0.1872 -0.9919  1.3048
   52RES   H27614658   1.265   2.403   6.171  0.6825 -1.6878 -0.1116
   52RES   H27714659   1.041   2.387   6.294 -1.4026 -0.6456 -0.8817
   52RES   H27814660   1.128   2.307   6.417  1.7603  1.2630 -0.6388
   52RES   H27914661   0.908   2.207   6.252  0.1717  0.5205  1.9179
   52RES   H28014662   0.986   2.115   6.376 -0.1286  1.3442  0.3358
   52RES   H28114663   0.964   2.042   6.215 -0.5184 -0.8614  1.4130
   52RES   H28214664   1.331   2.307   6.287  1.3292  0.9738 -0.9897
   53RES     O114665   2.970   3.848   1.858  0.1306  0.5129 -0.1660
   53RES     C214666   3.060   3.771   1.938  0.0348 -0.4833 -0.1293
   53RES     C314667   3.185   3.841   1.934 -0.1060 -0.1659  0.2064
   53RES     C414668   3.282   3.766   2.023 -0.3316 -0.2169  0.3335
   53RES     O514669   3.398   3.848   2.040 -0.0485  0.2545 -0.1926
   53RES     C614670   3.465   3.814   2.164  0.2226  0.4471  0.5533
   53RES     H714671   3.016   3.761   2.037  0.4777 -0.0193  0.1178
   53RES     H814672   3.072   3.671   1.897  2.2976  1.0360 -3.3783
   53RES     H914673   3.170   3.937   1.984  2.4358 -0.3703  1.4290
   53RES    H1014674   3.319   3.674   1.978  0.5078  0.3866 -0.2303
   53RES    H1114675   3.233   3.739   2.117 -0.5534  0.2559  0.3572
   53RES    H1214676   3.411   3.827   2.257  0.1137 -1.4796  0.7743
   53RES    H1314677   3.499   3.711   2.158 -3.2432 -0.7701  1.0416
   53RES    H1414678   3.558   3.868   2.183  0.6768 -0.0581 -0.1917
   53RES    H1514679   3.011   3.866   1.775 -0.0368 -0.4847 -0.4718
   53RES    O1614680   3.227   3.849   1.795 -0.1967 -0.2304 -0.6068
   53RES    C1714681   3.243   3.977   1.746  0.2271  0.1844  0.2842
   53RES    C1814682   3.261   3.957   1.595 -0.5563 -0.2705  0.5736
   53RES    C1914683   3.121   3.944   1.525  0.1728 -0.4335  0.4474
   53RES    O2014684   3.037   4.058   1.571  0.4692  0.9449  0.5530
   53RES    C2114685   2.900   4.040   1.536  0.2131 -0.4443  0.5001
   53RES    H2214686   3.329   4.014   1.802  1.6034 -0.4174 -1.3695
   53RES    H2314687   3.168   4.052   1.770  0.4782 -0.5067  3.4612
   53RES    H2414688   3.318   3.867   1.575 -0.0016  0.0614  0.6592
   53RES    H2514689   3.130   3.953   1.417 -2.7916 -0.9420  0.1164
   53RES    H2614690   3.083   3.847   1.556 -0.0236 -0.3379  0.5052
   53RES    H2714691   2.871   3.936   1.553 -1.8343  0.0346  0.0202
   53RES    H2814692   2.908   4.052   1.428  0.7722  1.7755  0.7636
   53RES    H2914693   2.838   4.123   1.569 -0.5327 -0.6240 -0.4407
   53RES    O3014694   3.329   4.067   1.537  0.4546 -0.1563  0.0497
   53RES    C3114695   3.416   4.049   1.423  0.3847 -0.1355 -0.3487
   53RES    C3214696   3.557   4.113   1.450  1.0108  0.8170  0.1826
   53RES    C3314697   3.632   4.149   1.323 -0.1486 -0.0895  0.0468
   53RES    O3414698   3.765   4.189   1.336 -0.3197  0.3513 -0.6251
   53RES    C3514699   3.830   4.215   1.207 -0.0422  0.0005 -0.1741
   53RES    H3614700   3.414   3.950   1.378 -0.7321  0.3039 -1.2981
   53RES    H3714701   3.372   4.111   1.345 -1.3606 -0.1239  0.6120
   53RES    H3814702   3.555   4.202   1.512 -1.3021  0.7029  0.3173
   53RES    H3914703   3.576   4.232   1.279  2.0507  1.3321 -0.1546
   53RES    H4014704   3.621   4.072   1.247 -1.1555  0.5900 -0.5091
   53RES    H4114705   3.840   4.119   1.156  1.0150 -0.3524  0.6628
   53RES    H4214706   3.926   4.264   1.226 -0.2950  0.4582 -0.0742
   53RES    H4314707   3.778   4.280   1.138  1.0213  2.1343  0.9838
   53RES    O4414708   3.647   4.024   1.507  0.7486 -0.2142 -0.2423
   53RES    C4514709   3.630   3.999   1.643 -0.0107 -0.3486  0.2941
   53RES    C4614710   3.716   3.880   1.695 -0.1771 -0.6287  0.2860
   53RES    C4714711   3.720   3.869   1.847  0.1201  0.2452 -0.1938
   53RES    O4814712   3.844   3.813   1.900  0.0365 -0.8558  0.3500
   53RES    C4914713   3.840   3.760   2.034 -0.1246  0.4203  0.5952
   53RES    H5014714   3.530   3.980   1.683 -0.0837 -0.1813  0.1878
   53RES    H5114715   3.651   4.090   1.699  1.3244 -1.0336  0.9148
   53RES    H5214716   3.821   3.902   1.674 -0.4376 -0.4420 -0.8587
   53RES    H5314717   3.715   3.969   1.890 -0.3626  0.1744 -0.0804
   53RES    H5414718   3.633   3.808   1.870 -0.3735  0.4801 -1.4080
   53RES    H5514719   3.797   3.834   2.102  0.0433  0.9121  0.1709
   53RES    H5614720   3.940   3.728   2.064  0.1195  2.3218  1.9033
   53RES    H5714721   3.784   3.667   2.034 -0.6418  0.7324  0.3496
   53RES    O5814722   3.654   3.762   1.644  0.0982  0.1289  0.7386
   53RES    C5914723   3.707   3.722   1.522  0.2634  0.6193 -0.3697
   53RES    C6014724   3.624   3.611   1.459  0.1171  0.4742  0.0978
   53RES    C6114725   3.713   3.527   1.359  0.3993  0.6092 -0.8350
   53RES    O6214726   3.680   3.383   1.364  0.3227  0.0050  0.2690
   53RES    C6314727   3.747   3.315   1.468  0.3798  0.0941  0.9118
   53RES    H6414728   3.811   3.702   1.548 -0.4288 -0.5084  1.6473
   53RES    H6514729   3.714   3.809   1.455 -1.0156 -0.6498 -2.1979
   53RES    H6614730   3.577   3.548   1.534 -1.6880  1.8187  0.1566
   53RES    H6714731   3.722   3.567   1.258  4.2797  0.0573 -0.7666
   53RES    H6814732   3.815   3.534   1.397 -0.1545  1.5941  0.4970
   53RES    H6914733   3.716   3.211   1.460 -1.5353  0.7076  0.0495
   53RES    H7014734   3.728   3.351   1.570 -0.9227  0.7763  0.4395
   53RES    H7114735   3.853   3.319   1.442  0.3355 -1.4482  0.4408
   53RES    O7214736   3.517   3.684   1.393 -0.7280 -1.0054 -0.3170
   53RES    C7314737   3.417   3.602   1.333 -0.0639  0.2170  0.0066
   53RES    C7414738   3.315   3.692   1.260  0.9106 -0.7084 -0.3173
   53RES    C7514739   3.166   3.641   1.253  0.1236 -0.3359 -0.4369
   53RES    O7614740   3.125   3.643   1.391  0.0256  0.2766  0.1070
   53RES    C7714741   2.992   3.592   1.406 -0.0285  0.0348 -0.1650
   53RES    H7814742   3.462   3.529   1.266 -0.8065 -0.0082 -0.2566
   53RES    H7914743   3.376   3.545   1.417 -0.2452  2.6756  1.6630
   53RES    H8014744   3.307   3.792   1.302  1.0494 -0.2833 -1.2691
   53RES    H8114745   3.155   3.542   1.210  3.8467 -0.1165 -2.1420
   53RES    H8214746   3.102   3.714   1.204 -0.4117  0.5637  1.5432
   53RES    H8314747   2.921   3.669   1.374 -0.8028 -0.5070  0.2581
   53RES    H8414748   2.983   3.591   1.514  2.6308 -0.7535  0.0946
   53RES    H8514749   2.973   3.495   1.362  0.6490 -0.6746  1.0898
   53RES    O8614750   3.365   3.706   1.122  0.5869 -0.2103 -0.2697
   53RES    C8714751   3.484   3.784   1.102  0.2199  0.8041 -0.3006
   53RES    C8814752   3.510   3.791   0.955 -0.0913  0.0739  0.6866
   53RES    C8914753   3.631   3.878   0.919  0.1212  0.1659 -0.3153
   53RES    O9014754   3.628   3.929   0.792  0.1053 -0.7548  0.4995
   53RES    C9114755   3.753   3.977   0.757 -0.4546  0.1437 -0.0905
   53RES    H9214756   3.459   3.889   1.116 -2.6193  0.3932 -1.8033
   53RES    H9314757   3.567   3.756   1.166 -0.6871  1.3227  1.1342
   53RES    H9414758   3.423   3.838   0.909 -0.6665 -3.6249 -2.2542
   53RES    H9514759   3.636   3.966   0.984  1.8108 -1.6736  2.1367
   53RES    H9614760   3.728   3.831   0.937  0.9272  2.0108  0.3116
   53RES    H9714761   3.826   3.899   0.738  2.0303  1.9923  1.5065
   53RES    H9814762   3.739   4.031   0.664  1.6735 -1.4304 -1.3800
   53RES    H9914763   3.783   4.053   0.830  3.5175 -1.8010  0.4212
   53RES   O10014764   3.519   3.661   0.908  0.2736  0.3831 -0.2057
   53RES   C10114765   3.491   3.639   0.769 -0.1068  0.4010 -0.6120
   53RES   C10214766   3.496   3.487   0.730  0.0967  1.0349  0.5570
   53RES   C10314767   3.519   3.454   0.579 -0.8031  0.1784 -0.1266
   53RES   O10414768   3.515   3.313   0.549  0.3780 -0.0184 -0.3165
   53RES   C10514769   3.550   3.289   0.418  0.0398  0.3019  0.4162
   53RES   H10614770   3.564   3.705   0.722  0.9460  0.6661  1.3379
   53RES   H10714771   3.391   3.675   0.744 -0.6611 -0.5705  0.1555
   53RES   H10814772   3.575   3.427   0.776  1.2025  1.0797 -1.2408
   53RES   H10914773   3.612   3.501   0.548 -0.7744  0.2088  0.0091
   53RES   H11014774   3.432   3.505   0.537 -2.0195 -1.3012  0.5220
   53RES   H11114775   3.473   3.306   0.343  0.6343  1.0838 -0.0264
   53RES   H11214776   3.553   3.180   0.410  0.1117  0.3552 -0.3781
   53RES   H11314777   3.651   3.327   0.403  0.7243 -1.8073 -0.6422
   53RES   O11414778   3.361   3.438   0.757  0.2050 -0.8298  0.1090
   53RES   C11514779   3.357   3.365   0.879  0.0705  0.4874 -0.2585
   53RES   C11614780   3.230   3.359   0.954 -0.4779 -0.5979  0.2728
   53RES   C11714781   3.102   3.347   0.862 -0.1462 -0.7352  0.1944
   53RES   O11814782   2.986   3.400   0.939  0.3189 -0.2013  0.0814
   53RES   C11914783   2.924   3.294   1.004  0.0365  0.4385  0.0546
   53RES   H12014784   3.380   3.263   0.847 -2.9075 -0.1707 -0.4936
   53RES   H12114785   3.439   3.394   0.945  2.9010 -0.4058 -3.2319
   53RES   H12214786   3.225   3.448   1.018 -0.6550 -0.8805  0.6536
   53RES   H12314787   3.120   3.413   0.777 -1.2741 -1.3736 -0.5546
   53RES   H12414788   3.084   3.246   0.824  0.1317 -1.1323  1.1183
   53RES   H12514789   2.998   3.222   1.037 -0.3321  0.4169  0.8501
   53RES   H12614790   2.847   3.240   0.948  0.8459  1.5395 -2.1919
   53RES   H12714791   2.871   3.329   1.093 -2.3573  0.0267 -1.1600
   53RES   O12814792   3.229   3.238   1.035 -0.5772 -0.1338  0.0758
   53RES   C12914793   3.309   3.251   1.155 -0.1003  0.1591  0.9701
   53RES   C13014794   3.275   3.152   1.260 -0.2075  0.3259 -0.5902
   53RES   C13114795   3.349   3.187   1.391  0.0462  0.6504 -0.7271
   53RES   O13214796   3.312   3.091   1.481  0.3014  0.0744  0.1829
   53RES   C13314797   3.421   3.053   1.563 -0.0174  0.6235  0.5900
   53RES   H13414798   3.415   3.242   1.128 -0.0209 -0.0799  1.3585
   53RES   H13514799   3.282   3.345   1.201 -0.7746 -1.0962  3.2269
   53RES   H13614800   3.167   3.147   1.277 -0.0776 -0.0361  0.1886
   53RES   H13714801   3.326   3.287   1.428 -0.7951  0.6266 -1.1669
   53RES   H13814802   3.456   3.199   1.372  0.0265  2.1952  0.0878
   53RES   H13914803   3.462   3.144   1.607  0.8817 -0.5476  2.1851
   53RES   H14014804   3.371   2.998   1.642  0.2392  0.0458  0.3540
   53RES   H14114805   3.499   2.997   1.512  0.4688  2.5283 -0.8575
   53RES   O14214806   3.319   3.020   1.226 -0.6671 -0.2004  0.1936
   53RES   C14314807   3.232   2.948   1.134 -0.6689 -0.6273 -0.1342
   53RES   C14414808   3.272   2.805   1.102 -0.7003  0.1085  0.3307
   53RES   C14514809   3.231   2.777   0.956  0.1094  0.3617 -0.2579
   53RES   O14614810   3.292   2.656   0.910  0.4809  0.5787  0.1996
   53RES   C14714811   3.214   2.537   0.933  0.4689 -0.1670 -0.1200
   53RES   H14814812   3.126   2.950   1.160 -0.8887  2.2207 -1.0430
   53RES   H14914813   3.232   2.999   1.037 -0.5371 -2.4586 -1.1377
   53RES   H15014814   3.379   2.787   1.113 -0.5798 -1.0483 -2.5098
   53RES   H15114815   3.270   2.851   0.886  2.5715 -1.0752 -0.4605
   53RES   H15214816   3.124   2.767   0.939  0.2578 -1.3109 -0.2844
   53RES   H15314817   3.232   2.454   0.864  0.8679 -0.9610  0.9036
   53RES   H15414818   3.108   2.547   0.913  0.3923 -1.2288 -0.2930
   53RES   H15514819   3.214   2.508   1.038  1.1817  1.4629  0.3346
   53RES   O15614820   3.194   2.724   1.181 -0.1515  0.3199 -0.1699
   53RES   C15714821   3.267   2.684   1.301 -0.1662 -0.7293  0.2884
   53RES   C15814822   3.178   2.608   1.395 -0.0605  0.4273  0.4072
   53RES   C15914823   3.249   2.586   1.528 -0.7468 -0.4603  0.8798
   53RES   O16014824   3.244   2.701   1.617  0.0764 -0.2892 -0.1171
   53RES   C16114825   3.365   2.716   1.702  0.4330  0.3354  0.4601
   53RES   H16214826   3.349   2.616   1.277  2.3247  2.0064  0.7099
   53RES   H16314827   3.319   2.755   1.366  0.8268 -1.6931  0.5670
   53RES   H16414828   3.093   2.670   1.423 -0.9551 -0.6983  0.2364
   53RES   H16514829   3.205   2.501   1.580 -2.0683 -0.8447 -0.8027
   53RES   H16614830   3.353   2.567   1.500 -1.1958 -0.7974 -0.6431
   53RES   H16714831   3.371   2.818   1.738 -1.1834  0.6730 -0.1846
   53RES   H16814832   3.453   2.712   1.636  0.2760  0.9566  0.2102
   53RES   H16914833   3.367   2.634   1.774  0.4383 -0.2339 -0.1799
   53RES   O17014834   3.132   2.484   1.339 -0.1922 -0.2562  0.1479
   53RES   C17114835   3.016   2.501   1.260 -0.2001 -0.0600 -0.9055
   53RES   C17214836   2.975   2.362   1.215 -0.3205 -0.6599 -0.3708
   53RES   C17314837   2.885   2.364   1.083  0.0397 -0.9263 -0.2798
   53RES   O17414838   2.890   2.238   1.014  0.1158 -0.1647 -0.2407
   53RES   C17514839   2.812   2.223   0.894 -0.2741  0.4388  0.0952
   53RES   H17614840   3.035   2.566   1.174 -1.1140 -0.1073 -1.1498
   53RES   H17714841   2.932   2.532   1.322  0.9639  3.6327 -1.0407
   53RES   H17814842   3.066   2.310   1.184 -0.4939 -0.1313 -1.8095
   53RES   H17914843   2.782   2.388   1.110  0.3402 -1.7549  1.6544
   53RES   H18014844   2.928   2.438   1.015 -0.2360 -0.5218 -0.0168
   53RES   H18114845   2.845   2.137   0.837  1.0279  1.4354 -0.7077
   53RES   H18214846   2.814   2.309   0.827  1.3825  0.9848  0.8038
   53RES   H18314847   2.708   2.205   0.921 -0.2640 -0.8720 -0.7390
   53RES   O18414848   2.899   2.297   1.310 -0.2907 -0.1788  0.3490
   53RES   C18514849   2.976   2.243   1.419  0.1439 -0.9244  0.6940
   53RES   C18614850   2.898   2.135   1.492  0.1346 -0.0771  0.0747
   53RES   C18714851   2.952   2.109   1.631  0.0828  0.0299  0.0235
   53RES   O18814852   2.903   2.005   1.706  0.5529  0.4956 -0.0746
   53RES   C18914853   2.945   2.010   1.839 -0.0548 -0.2205 -0.4119
   53RES   H19014854   3.001   2.316   1.495 -0.1916  1.0945 -1.0971
   53RES   H19114855   3.071   2.204   1.384 -0.0090  0.5613 -1.4550
   53RES   H19214856   2.791   2.156   1.497 -0.2173 -1.5790 -0.8572
   53RES   H19314857   2.937   2.203   1.685 -1.2447  0.5081 -1.1616
   53RES   H19414858   3.059   2.087   1.632  0.2961  0.8889 -1.8059
   53RES   H19514859   2.898   1.921   1.882  0.6053  0.8770  2.7186
   53RES   H19614860   3.053   1.995   1.842  0.1661  1.4574  0.7661
   53RES   H19714861   2.908   2.089   1.904 -2.1570 -1.9170  0.5389
   53RES   O19814862   2.926   2.010   1.423 -0.1708  0.1377  0.1716
   53RES   C19914863   2.828   1.969   1.331  0.1072  0.7793  0.4727
   53RES   C20014864   2.891   1.922   1.200 -0.1531 -0.4236  0.1571
   53RES   C20114865   2.788   1.898   1.086  0.3398 -0.4300 -0.2915
   53RES   O20214866   2.860   1.874   0.973 -0.4427  0.0261 -0.2862
   53RES   C20314867   2.781   1.833   0.869 -0.1284  0.2007  0.6168
   53RES   H20414868   2.754   2.047   1.311 -0.9457 -0.3658 -0.1796
   53RES   H20514869   2.764   1.893   1.376 -1.1679  0.2302 -2.1712
   53RES   H20614870   2.950   2.010   1.175 -1.4811  0.5526  0.4033
   53RES   H20714871   2.732   1.810   1.119 -3.3272  1.9263  0.1179
   53RES   H20814872   2.732   1.989   1.062  1.3147  0.2612  0.0094
   53RES   H20914873   2.851   1.832   0.786  0.1046 -0.9616  0.8065
   53RES   H21014874   2.702   1.904   0.845 -0.2379 -0.2549 -0.4160
   53RES   H21114875   2.740   1.731   0.873  0.1090  0.0390 -0.8689
   53RES   O21214876   2.966   1.807   1.213 -0.5263 -0.3112  0.6343
   53RES   C21314877   3.095   1.808   1.157 -0.0115 -0.1088 -0.2839
   53RES   C21414878   3.200   1.873   1.248  0.1330 -0.4589  0.6608
   53RES   C21514879   3.326   1.898   1.158 -0.3803 -0.1849  0.5566
   53RES   O21614880   3.432   1.951   1.225  0.2032 -0.1693 -0.0158
   53RES   C21714881   3.540   1.968   1.138 -0.5194  0.0111  0.3073
   53RES   H21814882   3.084   1.856   1.059  1.2973 -2.7219 -1.7473
   53RES   H21914883   3.129   1.706   1.139 -0.3166 -0.8959  3.2056
   53RES   H22014884   3.166   1.970   1.285  2.6243  1.1078 -1.0124
   53RES   H22114885   3.360   1.802   1.119  0.4837 -0.2679  1.5108
   53RES   H22214886   3.298   1.959   1.072  0.8535 -1.2888 -0.6551
   53RES   H22314887   3.514   2.045   1.065  2.9005  0.6754 -0.3164
   53RES   H22414888   3.558   1.876   1.083  0.3169  0.5301 -0.3075
   53RES   H22514889   3.633   1.990   1.191  0.4878 -0.5488 -1.1872
   53RES   O22614890   3.246   1.787   1.348 -0.0423 -0.1386  0.0031
   53RES   C22714891   3.158   1.752   1.450  0.0962  0.6293  0.3101
   53RES   C22814892   3.228   1.683   1.577  0.1135  0.2839 -0.8931
   53RES   C22914893   3.252   1.783   1.692 -0.3225  0.6404 -0.0329
   53RES   O23014894   3.358   1.745   1.778  0.0341  0.4616  0.2000
   53RES   C23114895   3.377   1.848   1.881  0.3713  0.2011  0.9451
   53RES   H23214896   3.084   1.681   1.414  0.9549 -0.9272  1.5709
   53RES   H23314897   3.111   1.846   1.479 -0.3044  0.8003 -0.8807
   53RES   H23414898   3.325   1.652   1.540  1.4424  3.6695 -0.4242
   53RES   H23514899   3.164   1.795   1.754 -0.8046  2.0238 -0.9797
   53RES   H23614900   3.272   1.881   1.649  0.7638  0.4152 -0.0700
   53RES   H23714901   3.388   1.945   1.834 -0.9233  1.9218  4.0394
   53RES   H23814902   3.468   1.821   1.935  1.0414 -0.9931 -0.7292
   53RES   H23914903   3.295   1.864   1.951  0.8092 -0.5817  1.6550
   53RES   O24014904   3.142   1.580   1.632 -0.0634 -0.1696  0.2354
   53RES   C24114905   3.173   1.441   1.603  0.4867 -0.0090 -0.4719
   53RES   C24214906   3.298   1.396   1.679  0.5831 -0.8842  0.1000
   53RES   C24314907   3.299   1.245   1.699  0.4316  0.2193  0.7553
   53RES   O24414908   3.420   1.195   1.757  0.2156 -0.1426 -0.0894
   53RES   C24514909   3.427   1.052   1.762 -0.2134  0.0799  0.3877
   53RES   H24614910   3.179   1.408   1.499 -1.5251 -1.1387 -0.2493
   53RES   H24714911   3.093   1.386   1.652  2.1050 -2.6334 -0.6722
   53RES   H24814912   3.310   1.445   1.775  1.0569 -0.3435 -0.2319
   53RES   H24914913   3.219   1.212   1.765  0.0299 -0.6329 -0.1380
   53RES   H25014914   3.288   1.191   1.605  2.8761  0.2760  0.4137
   53RES   H25114915   3.525   1.006   1.775 -0.4730 -0.8763 -0.9102
   53RES   H25214916   3.400   1.021   1.661  0.8455 -0.8222  0.3722
   53RES   H25314917   3.362   1.006   1.837  2.0696 -0.7712  1.9155
   53RES   O25414918   3.407   1.428   1.589  0.1080 -0.1576  0.2069
   53RES   C25514919   3.524   1.476   1.653  0.0954  0.9890  0.6978
   53RES   C25614920   3.641   1.466   1.555 -0.2742 -0.8862  0.0420
   53RES   C25714921   3.681   1.611   1.501 -0.2313  0.0148 -0.4510
   53RES   O25814922   3.756   1.593   1.374 -0.3466 -0.3574  0.3103
   53RES   C25914923   3.805   1.724   1.335  0.6965 -0.0497  0.7074
   53RES   H26014924   3.503   1.579   1.682 -0.1434  1.2099 -0.2311
   53RES   H26114925   3.547   1.417   1.741  0.3271  1.4533  0.9478
   53RES   H26214926   3.598   1.406   1.474 -2.6538 -0.4145  0.9159
   53RES   H26314927   3.586   1.663   1.485  0.8910  2.5013  0.6811
   53RES   H26414928   3.747   1.665   1.569 -1.3981  1.0033 -0.0952
   53RES   H26514929   3.723   1.795   1.336  1.6737  1.1221  2.9953
   53RES   H26614930   3.859   1.710   1.241  1.1279 -1.2807  1.1252
   53RES   H26714931   3.880   1.756   1.408  1.1764  0.6101 -0.0727
   53RES   O26814932   3.757   1.407   1.610 -0.1716 -0.4827 -0.4182
   53RES   C26914933   3.744   1.264   1.612  0.0688  0.2705 -0.7528
   53RES   C27014934   3.860   1.196   1.687  0.6736 -0.1297 -0.3904
   53RES   C27114935   3.859   1.045   1.675  0.3423 -0.1567  0.1114
   53RES   O27214936   3.882   1.017   1.540  0.0910  0.3714  0.9381
   53RES   C27314937   3.812   0.894   1.508 -0.1744 -0.1746  0.3427
   53RES   H27414938   3.755   1.232   1.509 -0.3233 -0.9297 -0.4283
   53RES   H27514939   3.647   1.222   1.637  0.6060 -1.2082 -1.1331
   53RES   H27614940   3.954   1.243   1.656  0.8951 -0.2939  0.0176
   53RES   H27714941   3.760   1.016   1.710 -0.1262  0.3584 -0.7462
   53RES   H27814942   3.940   1.003   1.735  1.4240  1.0790 -0.4413
   53RES   H27914943   3.817   0.809   1.577  0.6129  0.5845  1.2354
   53RES   H28014944   3.844   0.859   1.410  1.6781 -1.1162  1.2535
   53RES   H28114945   3.706   0.914   1.491 -0.1011  0.2910  0.4269
   53RES   H28214946   3.859   1.223   1.793 -0.5726 -0.1374 -0.4020
   54RES     O114947   5.449   0.017   6.470 -0.1686 -0.4032  0.3657
   54RES     C214948   5.439   0.123   6.556  0.0660  0.4225 -0.1114
   54RES     C314949   5.577   0.128   6.622  0.1520  0.0408  0.3773
   54RES     C414950   5.605   0.242   6.725  0.2836 -0.7289  0.5938
   54RES     O514951   5.518   0.238   6.830  0.3746  0.5299  0.5131
   54RES     C614952   5.508   0.357   6.897 -0.0626  0.4635 -0.2221
   54RES     H714953   5.411   0.218   6.510 -2.0769  0.7948  1.8757
   54RES     H814954   5.371   0.110   6.640  0.4555  0.2030  0.1732
   54RES     H914955   5.645   0.139   6.538 -0.0019 -0.3119  0.2065
   54RES    H1014956   5.598   0.335   6.669  0.6773 -0.5459  0.8485
   54RES    H1114957   5.707   0.231   6.760  0.0007 -2.4565  0.9401
   54RES    H1214958   5.596   0.374   6.959 -1.3473 -0.8353  2.0341
   54RES    H1314959   5.497   0.444   6.832 -1.9740 -0.1433 -0.7482
   54RES    H1414960   5.418   0.342   6.957  0.8934  0.0377  1.1334
   54RES    H1514961   5.462   7.763   6.530  0.4758  1.3616  2.3998
   54RES    O1614962   5.613   0.004   6.680  0.1660  0.5296 -0.4932
   54RES    C1714963   5.744   7.784   6.679  0.4323 -0.2415  0.5363
   54RES    C1814964   5.779   7.675   6.781 -0.2685  0.0892  1.0900
   54RES    C1914965   5.909   7.600   6.736 -0.6898  0.1690 -0.5619
   54RES    O2014966   5.932   7.496   6.831 -0.3308  0.1880 -0.4801
   54RES    C2114967   6.025   7.404   6.778 -0.5072 -0.1567  0.6962
   54RES    H2214968   5.809   0.054   6.687  0.9022 -0.6472  1.1487
   54RES    H2314969   5.769   7.743   6.581 -0.8825 -2.4313  1.0687
   54RES    H2414970   5.695   7.606   6.791 -1.2380  0.9500 -0.8882
   54RES    H2514971   5.862   7.548   6.653  0.0831 -1.4724 -0.0011
   54RES    H2614972   5.997   7.663   6.719 -0.5185 -0.2250 -1.1724
   54RES    H2714973   6.120   7.454   6.758 -0.5476  0.1328  1.2416
   54RES    H2814974   6.005   7.351   6.684  1.2237 -2.0192  1.3438
   54RES    H2914975   6.037   7.332   6.859 -0.6187 -0.9567  0.0227
   54RES    O3014976   5.780   7.743   6.905  0.1064  0.0244 -0.3230
   54RES    C3114977   5.767   7.656   7.019 -0.0762  0.1202 -0.0516
   54RES    C3214978   5.725   7.733   7.136 -0.8388  0.2879 -0.0339
   54RES    C3314979   5.578   7.769   7.123 -0.7393  0.3003 -0.5388
   54RES    O3414980   5.530   7.815   7.253 -0.5749  0.1895 -0.1931
   54RES    C3514981   5.404   7.766   7.289  0.1150 -0.1093 -0.0815
   54RES    H3614982   5.711   7.564   6.999  1.6726 -0.9346 -0.1590
   54RES    H3714983   5.870   7.625   7.037 -0.6119 -2.5363 -1.2622
   54RES    H3814984   5.740   7.668   7.222  1.8205  2.3287  1.1333
   54RES    H3914985   5.525   7.674   7.112 -0.6145  0.1287  0.3027
   54RES    H4014986   5.559   0.030   7.049  3.2945  1.3297 -0.5804
   54RES    H4114987   5.398   7.657   7.289 -2.0135 -0.0183 -0.9401
   54RES    H4214988   5.334   7.810   7.218 -0.9495 -1.9053 -0.1907
   54RES    H4314989   5.362   7.806   7.381  0.3753  4.3521 -1.7897
   54RES    O4414990   5.797   0.037   7.151 -0.0990 -0.2081 -0.5219
   54RES    C4514991   5.891   0.051   7.261  0.1316 -0.3019 -0.5533
   54RES    C4614992   6.003   7.767   7.239 -0.3137  0.2072 -0.3175
   54RES    C4714993   6.080   7.794   7.116  0.5978  0.4265 -0.3222
   54RES    O4814994   6.149   7.679   7.068 -0.9781 -0.3960  0.4690
   54RES    C4914995   6.222   7.710   6.955  0.6059  0.7106  0.5098
   54RES    H5014996   5.832   0.030   7.350 -0.6244  0.9836 -0.7423
   54RES    H5114997   5.925   0.154   7.270 -0.4267 -0.2027  0.4763
   54RES    H5214998   5.979   7.661   7.246  0.3748 -0.1129 -2.4330
   54RES    H5314999   6.005   0.007   7.042 -0.9408  0.8877  1.3968
   54RES    H5415000   6.150   0.061   7.118  1.6356 -0.4101 -0.7508
   54RES    H5515001   6.158   7.771   6.891 -0.0542  0.9842  1.4209
   54RES    H5615002   6.256   7.616   6.912 -0.1977  0.4983  0.3365
   54RES    H5715003   6.310   7.773   6.974  1.7092 -1.5302  3.2585
   54RES    O5815004   6.092   7.785   7.343  0.3497 -0.2861 -0.0674
   54RES    C5915005   6.203   7.703   7.350 -0.2629 -0.4155 -0.2364
   54RES    C6015006   6.275   7.725   7.482 -0.3542 -0.4637  0.8794
   54RES    C6115007   6.394   7.626   7.479  0.0315 -0.7382  0.1389
   54RES    O6215008   6.493   7.676   7.563  0.1030  0.8371  0.1624
   54RES    C6315009   6.601   7.592   7.565 -0.1706 -0.2646 -0.3445
   54RES    H6415010   6.273   7.715   7.267 -0.9084 -0.3866 -0.7811
   54RES    H6515011   6.166   7.601   7.359  0.8879 -0.6853  1.6941
   54RES    H6615012   6.312   0.010   7.497  0.5643 -0.5105 -0.9026
   54RES    H6715013   6.378   7.523   7.509  0.3576 -0.4569  1.3118
   54RES    H6815014   6.440   7.624   7.380 -0.6887 -0.0721 -0.2187
   54RES    H6915015   6.672   7.615   7.645  0.0847 -0.2487 -0.5764
   54RES    H7015016   6.645   7.585   7.466 -1.0885 -0.8101 -0.7182
   54RES    H7115017   6.570   7.488   7.581  1.2552 -0.6109  0.2236
   54RES    O7215018   6.192   7.692   7.594 -0.0234 -0.2496  0.3780
   54RES    C7315019   6.134   7.802   7.665 -0.3242 -0.3203 -0.5990
   54RES    C7415020   6.089   7.755   7.802  0.1319  0.3996 -0.4363
   54RES    C7515021   6.013   0.044   0.069 -1.0487  0.1574  0.4365
   54RES    O7615022   5.967   7.801   0.188  0.5265 -0.3709 -0.1456
   54RES    C7715023   5.881   0.050   0.271 -0.9986 -0.1506 -0.1465
   54RES    H7815024   6.204   0.068   7.671 -0.9488  0.2461 -1.0048
   54RES    H7915025   6.047   0.030   7.615 -0.0855  1.8183  0.8554
   54RES    H8015026   6.019   7.671   7.792 -0.2704  0.4740  1.5786
   54RES    H8115027   5.932   0.085   0.009 -0.2659 -0.7430 -1.2786
   54RES    H8215028   6.084   0.121   0.099 -1.1723  0.2531  0.4802
   54RES    H8315029   5.869   7.809   0.362  1.4604 -0.4088  0.0423
   54RES    H8415030   5.792   0.090   0.223 -1.1000 -0.2358 -0.0272
   54RES    H8515031   5.950   0.126   0.308 -3.1732  1.1693  1.3068
   54RES    O8615032   6.211   7.712   0.055  0.4377 -0.8507  0.2307
   54RES    C8715033   6.192   7.613   0.156  0.0168 -0.1184 -0.1862
   54RES    C8815034   6.314   7.529   0.174 -0.0804  1.1132  0.0367
   54RES    C8915035   6.306   7.474   0.316  0.0295  0.1077  0.6050
   54RES    O9015036   6.427   7.417   0.348  0.2155 -0.1681 -0.3528
   54RES    C9115037   6.410   7.317   0.450 -0.3311  0.2426  0.4709
   54RES    H9215038   6.155   7.661   0.247 -0.6631  1.6295 -1.3510
   54RES    H9315039   6.113   7.543   0.128 -0.6125  0.8427 -0.8618
   54RES    H9415040   6.406   7.588   0.172  0.5986  0.0635  0.0362
   54RES    H9515041   6.289   7.540   0.400 -0.5758 -0.9079  1.2948
   54RES    H9615042   6.218   7.410   0.322  0.2559 -0.0279  2.8218
   54RES    H9715043   6.401   7.369   0.546 -2.2563 -1.6436  1.3436
   54RES    H9815044   6.321   7.254   0.449 -0.4034  0.3528 -0.2891
   54RES    H9915045   6.491   7.245   0.443 -0.4259  0.1721  0.1129
   54RES   O10015046   6.312   7.422   0.086  0.2143 -0.3440 -0.4832
   54RES   C10115047   6.400   7.428   7.798 -0.8098 -0.4396 -0.0706
   54RES   C10215048   6.379   7.312   7.696  0.4089 -0.2064 -0.6013
   54RES   C10315049   6.239   7.321   7.636  0.7906 -0.9730 -0.1908
   54RES   O10415050   6.235   7.227   7.533 -0.7310  0.0336 -0.4706
   54RES   C10515051   6.105   7.222   7.478 -0.0936 -0.1885  0.2086
   54RES   H10615052   6.501   7.430   0.021 -0.5213 -2.1968 -0.6536
   54RES   H10715053   6.379   7.525   7.753 -0.0594 -0.4411 -0.4285
   54RES   H10815054   6.456   7.312   7.619 -0.5477 -1.6956 -1.5957
   54RES   H10915055   6.204   7.421   7.610  2.9537 -0.6770 -2.0913
   54RES   H11015056   6.166   7.295   7.713  0.9678 -2.8561 -0.6431
   54RES   H11115057   6.024   7.199   7.548 -0.5171  2.0066  0.4727
   54RES   H11215058   6.102   7.144   7.402 -1.3129 -0.2766  0.3433
   54RES   H11315059   6.086   7.317   7.428  0.9960  0.7779  1.5911
   54RES   O11415060   6.403   7.202   7.783 -0.1447 -0.1132  0.1477
   54RES   C11515061   6.435   7.080   7.720  0.9533 -0.5477 -0.0539
   54RES   C11615062   6.489   6.985   0.016 -0.0806  0.3063  0.1391
   54RES   C11715063   6.480   6.838   7.790 -0.7472 -0.3494 -0.8219
   54RES   O11815064   6.514   6.736   0.068 -0.7674 -0.0319  0.1957
   54RES   C11915065   6.657   6.744   0.091 -0.6365 -0.6801 -0.1167
   54RES   H12015066   6.342   7.055   7.670 -0.1817  1.4757  0.9778
   54RES   H12115067   6.504   7.092   7.636 -0.7182  0.5126 -1.3187
   54RES   H12215068   6.437   7.001   0.110 -1.6898  0.4580 -0.7659
   54RES   H12315069   6.379   6.835   7.751 -1.8633  0.9522  1.9181
   54RES   H12415070   6.549   6.817   7.707  1.6547 -2.7240  1.6509
   54RES   H12515071   6.716   6.744   7.817  2.7230  0.2099  2.0091
   54RES   H12615072   6.704   6.659   0.141 -0.7100  0.2294  1.5223
   54RES   H12715073   6.680   6.831   0.152  0.3021 -1.5290  0.7581
   54RES   O12815074   6.626   7.006   0.031 -0.3290 -0.0306  0.3489
   54RES   C12915075   6.649   7.130   0.094 -0.0660  0.0702 -0.2755
   54RES   C13015076   6.794   7.146   0.150  0.4263  0.5347  0.0895
   54RES   C13115077   6.801   7.236   0.275  0.3781 -0.1301  0.5035
   54RES   O13215078   6.936   7.252   0.327 -0.1832 -0.0594  0.1420
   54RES   C13315079   6.946   7.350   0.426 -0.0606  0.0105  1.4828
   54RES   H13415080   6.623   7.218   0.036  0.7494  1.2885  1.1787
   54RES   H13515081   6.592   7.139   0.187  1.2945 -0.2936  0.6027
   54RES   H13615082   6.829   7.044   0.168  0.7628  1.1824  3.3379
   54RES   H13715083   6.743   7.206   0.362  2.0435 -0.1354  1.6410
   54RES   H13815084   6.758   7.335   0.255 -0.2217 -0.0898  1.9509
   54RES   H13915085   6.938   7.450   0.382 -0.2991 -0.5742  0.1666
   54RES   H14015086   6.863   7.338   0.495  0.6793 -1.9235  2.0550
   54RES   H14115087   7.042   7.336   0.475  0.5103 -2.9517 -0.3556
   54RES   O14215088   6.856   7.210   0.039 -0.3644  0.1250  0.2513
   54RES   C14315089   6.998   7.187   0.035 -0.2647  0.5050 -0.1837
   54RES   C14415090   7.033   7.052   7.787  0.3184  0.4688  0.3754
   54RES   C14515091   6.952   7.019   7.663  0.3149  0.1312  0.3388
   54RES   O14615092   6.978   6.884   7.621 -0.0679 -0.0246 -0.2644
   54RES   C14715093   6.927   6.851   7.493 -0.0583  0.7767  0.8007
   54RES   H14815094   7.040   7.267   7.791  1.1986 -0.1844 -0.0971
   54RES   H14915095   7.053   7.200   0.128 -1.6942  1.7477  0.5148
   54RES   H15015096   7.140   7.053   7.767  0.5700 -0.6874  1.5506
   54RES   H15115097   6.994   7.091   7.592  0.8732  0.5130  1.0591
   54RES   H15215098   6.845   7.026   7.680  0.0087 -2.7550 -0.0783
   54RES   H15315099   6.819   6.859   7.479 -0.0817  0.0918  0.5607
   54RES   H15415100   6.959   6.749   7.472 -0.2264  0.5787  1.4793
   54RES   H15515101   6.969   6.918   7.419  2.0382 -1.1568  0.1805
   54RES   O15615102   7.003   6.937   0.051 -0.0778 -0.5866  0.5321
   54RES   C15715103   7.063   6.928   0.181  0.2214  0.0856  0.0923
   54RES   C15815104   7.000   6.817   0.270  0.1212  0.8469 -0.6357
   54RES   C15915105   7.025   6.838   0.420  0.1476 -0.6138  0.3502
   54RES   O16015106   6.960   6.742   0.490  0.4080  0.1674  0.3655
   54RES   C16115107   6.993   6.736   0.632 -0.1170  0.4182  0.1528
   54RES   H16215108   7.171   6.914   0.177  0.4677  1.6283  0.9912
   54RES   H16315109   7.059   7.020   0.239  2.1785 -0.0408  0.4562
   54RES   H16415110   6.894   6.806   0.248  0.4574 -2.5234 -0.8236
   54RES   H16515111   7.132   6.842   0.441  0.0277  2.2725  0.7125
   54RES   H16615112   6.985   6.933   0.457  0.0306 -0.6149  0.2256
   54RES   H16715113   6.933   6.669   0.693  0.1200 -0.5149 -0.6292
   54RES   H16815114   6.987   6.827   0.691 -1.9196  1.0220 -0.9018
   54RES   H16915115   7.095   6.697   0.633 -0.7141 -1.1670  1.5781
   54RES   O17015116   7.073   6.699   0.232  0.0734 -0.2618  0.0574
   54RES   C17115117   7.016   6.631   0.116  0.2405  0.1442  0.0240
   54RES   C17215118   7.022   6.484   0.148  0.1422 -1.1219  0.8419
   54RES   C17315119   7.022   6.384   0.026 -0.4903  0.1443 -0.5520
   54RES   O17415120   7.135   6.307   0.016  0.2316 -0.3152 -0.0751
   54RES   C17515121   7.142   6.190   0.091 -0.0241  0.2171  0.0248
   54RES   H17615122   7.076   6.653   0.028  2.0996  0.4741  1.3332
   54RES   H17715123   6.913   6.659   0.092  0.3653  0.9816  0.4545
   54RES   H17815124   7.121   6.484   0.195  0.4093 -1.1360  0.2778
   54RES   H17915125   6.933   6.321   0.024 -1.2229  1.1863 -3.7592
   54RES   H18015126   7.009   6.441   7.751 -0.0497  1.3090  0.0906
   54RES   H18115127   7.244   6.154   0.111 -0.4218 -0.2260  1.3164
   54RES   H18215128   7.069   6.113   0.068 -0.4909  1.1207 -1.6069
   54RES   H18315129   7.112   6.220   0.191  1.5247  0.7737  0.3405
   54RES   O18415130   6.921   6.441   0.242  0.4584  0.4228 -0.1949
   54RES   C18515131   6.960   6.388   0.370 -0.6141  0.4305 -0.5149
   54RES   C18615132   6.851   6.409   0.477  0.3688  0.3090 -0.0192
   54RES   C18715133   6.912   6.396   0.624 -0.5645 -0.7247  0.9577
   54RES   O18815134   6.821   6.447   0.719  0.4632 -0.1500  0.0408
   54RES   C18915135   6.845   6.385   0.852  0.1207 -0.2443 -0.7696
   54RES   H19015136   7.041   6.457   0.391  0.2441 -1.3336  2.1237
   54RES   H19115137   7.003   6.288   0.371 -1.5087  0.0383  1.1242
   54RES   H19215138   6.801   6.505   0.466 -0.0238  0.1829  0.6238
   54RES   H19315139   6.996   6.460   0.649 -1.0750  0.7117 -0.9264
   54RES   H19415140   6.940   6.293   0.646  2.4780  0.3774  2.3840
   54RES   H19515141   6.768   6.414   0.923  0.4748  1.1890 -0.9528
   54RES   H19615142   6.849   6.276   0.847  0.1517 -0.2666 -0.3025
   54RES   H19715143   6.939   6.426   0.890 -0.7321 -0.8970  2.1561
   54RES   O19815144   6.751   6.301   0.463  0.6710  0.6636  0.1710
   54RES   C19915145   6.669   6.300   0.347 -0.3110 -0.2714  0.4300
   54RES   C20015146   6.525   6.275   0.390  0.7164 -0.2052  0.6149
   54RES   C20115147   6.420   6.252   0.269 -0.1144 -0.1441 -0.2012
   54RES   O20215148   6.307   6.195   0.326  0.3013  0.0668 -0.3087
   54RES   C20315149   6.200   6.165   0.235 -0.1572 -0.5608  0.0854
   54RES   H20415150   6.708   6.217   0.289  0.4268  0.5945 -0.3125
   54RES   H20515151   6.670   6.393   0.290 -0.6841  0.3247  1.3719
   54RES   H20615152   6.530   6.185   0.451  0.3899 -2.6093 -2.7703
   54RES   H20715153   6.389   6.350   0.232  2.0039  0.7326  0.2023
   54RES   H20815154   6.454   6.194   0.183  2.3265 -1.7654  1.7615
   54RES   H20915155   6.232   6.077   0.179 -1.0974 -0.2928 -0.8851
   54RES   H21015156   6.186   6.239   0.155 -1.6301 -0.4198  0.4551
   54RES   H21115157   6.109   6.161   0.294 -0.7299  0.1417 -0.7215
   54RES   O21215158   6.487   6.393   0.471 -0.0770 -0.5949 -0.5976
   54RES   C21315159   6.479   6.357   0.608 -0.4089  0.7185  0.5256
   54RES   C21415160   6.399   6.456   0.691  0.0203 -0.8688 -0.6123
   54RES   C21515161   6.443   6.442   0.842 -0.6377  0.3292 -0.0844
   54RES   O21615162   6.440   6.313   0.892 -0.5702  0.6093 -0.6681
   54RES   C21715163   6.480   6.311   1.024  0.4611  0.4697  0.0878
   54RES   H21815164   6.580   6.345   0.648  0.0108 -2.7956 -1.3455
   54RES   H21915165   6.439   6.257   0.625  0.3772  0.5222  1.2686
   54RES   H22015166   6.420   6.561   0.673 -2.6414 -0.3897 -1.1581
   54RES   H22115167   6.547   6.472   0.855 -0.1592 -1.4832  0.4240
   54RES   H22215168   6.381   6.510   0.901 -2.8406  0.5229 -2.5577
   54RES   H22315169   6.433   6.381   1.093  0.9351 -0.0332  0.9264
   54RES   H22415170   6.589   6.314   1.031  0.4868  2.3473 -0.7186
   54RES   H22515171   6.463   6.216   1.073  1.4593  1.4780  2.4315
   54RES   O22615172   6.260   6.442   0.687 -0.1405 -0.1815 -0.1350
   54RES   C22715173   6.201   6.456   0.557  0.5067 -0.1234  0.0803
   54RES   C22815174   6.218   6.599   0.501 -0.2937 -0.0594 -0.3376
   54RES   C22915175   6.192   6.611   0.355  0.0669  0.4327 -0.6288
   54RES   O23015176   6.209   6.747   0.327  0.0776 -0.0168 -0.5138
   54RES   C23115177   6.179   6.780   0.195 -0.1392  0.7114  0.0175
   54RES   H23215178   6.097   6.424   0.560  0.1178  1.1572  0.5457
   54RES   H23315179   6.232   6.378   0.487 -2.4478 -0.4416 -0.9656
   54RES   H23415180   6.319   6.636   0.517 -0.4627 -0.2617  1.3043
   54RES   H23515181   6.092   6.571   0.338 -0.0334  0.0688  0.7415
   54RES   H23615182   6.264   6.555   0.296 -1.5779  0.3956 -2.6896
   54RES   H23715183   6.200   6.886   0.184 -1.1982  1.1026  1.6428
   54RES   H23815184   6.073   6.757   0.182  0.6380 -2.3871 -1.4242
   54RES   H23915185   6.234   6.715   0.127  0.3015 -0.3378  1.3573
   54RES   O24015186   6.122   6.683   0.564  0.0813  0.1308 -0.0938
   54RES   C24115187   6.174   6.754   0.678 -0.0111  0.2006 -0.3306
   54RES   C24215188   6.074   6.862   0.720  0.1882  0.0857 -0.1610
   54RES   C24315189   6.117   6.923   0.853 -0.6870 -0.3228  0.1075
   54RES   O24415190   6.026   6.997   0.932  0.4740  0.1878  0.2968
   54RES   C24515191   5.978   7.108   0.857 -0.1312 -0.4735 -0.2230
   54RES   H24615192   6.271   6.799   0.656 -0.1140  1.2514  1.2772
   54RES   H24715193   6.179   6.678   0.757 -3.9866 -0.3838 -0.5571
   54RES   H24815194   5.967   6.845   0.734  0.5031 -1.0125  1.0112
   54RES   H24915195   6.148   6.836   0.910  2.9198  1.0830  0.3890
   54RES   H25015196   6.213   6.973   0.840 -0.8054 -0.1965 -0.3095
   54RES   H25115197   5.923   7.173   0.925  0.8394 -0.3137  0.4219
   54RES   H25215198   5.911   7.086   0.775  1.1979 -0.8562 -1.2237
   54RES   H25315199   6.059   7.168   0.815 -0.8533 -0.7902 -2.0904
   54RES   O25415200   6.087   6.971   0.624 -0.4043  0.1086  0.0130
   54RES   C25515201   6.006   6.977   0.513 -0.0574  0.6136 -0.0548
   54RES   C25615202   6.021   7.107   0.438  0.1540 -0.4252 -0.6300
   54RES   C25715203   5.950   7.105   0.300 -0.9259 -0.8840  0.1445
   54RES   O25815204   6.012   7.198   0.211 -0.1521 -0.8104 -0.2921
   54RES   C25915205   6.125   7.147   0.147  0.1886 -0.2538 -0.6521
   54RES   H26015206   6.031   6.886   0.458  1.5675  0.3966  0.9931
   54RES   H26115207   5.904   6.977   0.550  0.7283 -2.1386  2.3703
   54RES   H26215208   6.128   7.123   0.427  0.6129 -1.4123  1.9664
   54RES   H26315209   5.944   7.013   0.243  0.7556  1.7239 -4.5503
   54RES   H26415210   5.842   7.118   0.316 -0.9522 -2.5226  1.3996
   54RES   H26515211   6.185   7.217   0.090 -0.3980  1.9765  1.3744
   54RES   H26615212   6.105   7.064   0.078  1.8744 -1.3948  0.1915
   54RES   H26715213   6.188   7.112   0.229  0.2885 -3.1837 -1.9119
   54RES   O26815214   5.950   7.202   0.520  0.8499  0.5597  0.0809
   54RES   C26915215   5.976   7.338   0.487 -0.2120 -0.3813 -0.3744
   54RES   C27015216   5.932   7.436   0.599 -0.3272  0.2298  0.1027
   54RES   C27115217   5.944   7.583   0.555 -0.3157  0.0494  0.4895
   54RES   O27215218   6.084   7.607   0.539  0.9293 -0.3212 -0.4739
   54RES   C27315219   6.129   7.740   0.583 -0.6787  0.9334 -0.1703
   54RES   H27415220   5.930   7.345   0.389  0.6498  1.0528 -0.6939
   54RES   H27515221   6.083   7.355   0.475 -0.5401  2.2579  0.0861
   54RES   H27615222   5.833   7.407   0.632 -0.6906  0.7261 -0.5275
   54RES   H27715223   5.892   7.647   0.626 -1.7437 -2.0982  1.4325
   54RES   H27815224   5.893   7.596   0.459 -0.4810 -1.6127  0.3407
   54RES   H27915225   6.110   7.749   0.690 -2.1883 -0.2123 -0.3203
   54RES   H28015226   6.078   0.008   0.539 -1.1678  0.9373  0.3910
   54RES   H28115227   6.237   7.751   0.582 -0.7453  1.8487  1.2831
   54RES   H28215228   5.990   7.422   0.690  2.1128 -1.0646 -1.6057
   55RES     O115229   1.046   2.937   2.348  0.2470 -0.7546  0.4775
   55RES     C215230   1.037   3.044   2.259 -0.2110  0.5237 -0.0409
   55RES     C315231   1.172   3.085   2.195 -0.1462  0.1780 -0.4646
   55RES     C415232   1.151   3.160   2.063  0.5910 -0.0400 -0.6232
   55RES     O515233   1.267   3.161   1.981  0.4181  0.1409 -0.1510
   55RES     C615234   1.374   3.231   2.035  0.0826  1.1694 -0.3106
   55RES     H715235   0.968   3.007   2.183 -2.6579  0.0833  2.2917
   55RES     H815236   0.988   3.137   2.289  0.0238  0.7693 -0.4163
   55RES     H915237   1.230   2.994   2.187  0.8355  0.4217  2.8523
   55RES    H1015238   1.106   3.258   2.073 -1.9633 -1.3466  1.5895
   55RES    H1115239   1.077   3.105   2.004  0.9405 -1.1539 -0.0403
   55RES    H1215240   1.456   3.252   1.966  0.1316  2.9117  0.2691
   55RES    H1315241   1.333   3.323   2.076  1.2528  0.8806  1.5608
   55RES    H1415242   1.407   3.180   2.126 -0.4000  0.2860 -0.6227
   55RES    H1515243   0.957   2.928   2.378 -0.2281 -3.0265 -1.4587
   55RES    O1615244   1.233   3.182   2.288  0.4044 -0.1153  0.2240
   55RES    C1715245   1.311   3.114   2.391  0.2166 -0.5279  0.0451
   55RES    C1815246   1.348   3.206   2.508  0.0916  0.1144  0.5120
   55RES    C1915247   1.403   3.129   2.631 -0.2536 -0.5525 -0.4473
   55RES    O2015248   1.438   3.212   2.735 -0.6774 -0.6480 -0.6435
   55RES    C2115249   1.460   3.151   2.859  0.4499  0.2796  0.6469
   55RES    H2215250   1.409   3.074   2.366  0.8248 -0.4580  2.2292
   55RES    H2315251   1.255   3.032   2.436 -1.4910 -0.2313 -1.4579
   55RES    H2415252   1.261   3.259   2.547  0.1875  0.6860 -0.0408
   55RES    H2515253   1.317   3.076   2.673 -0.1595  0.7692  1.4578
   55RES    H2615254   1.483   3.066   2.594 -0.2945  0.0033 -1.4905
   55RES    H2715255   1.496   3.221   2.934  3.7327 -1.4945  0.8146
   55RES    H2815256   1.528   3.067   2.847 -0.1160 -0.3522  1.7575
   55RES    H2915257   1.373   3.100   2.900  0.9831  0.2822  1.8020
   55RES    O3015258   1.447   3.298   2.474 -0.1714 -0.3321 -0.1463
   55RES    C3115259   1.426   3.391   2.369 -0.2214  0.1845  0.1487
   55RES    C3215260   1.506   3.517   2.386  0.5142 -0.2636  0.5433
   55RES    C3315261   1.501   3.609   2.270 -0.2513  0.8971  0.5863
   55RES    O3415262   1.521   3.744   2.296  0.4971 -0.8115 -0.4140
   55RES    C3515263   1.562   3.813   2.178 -0.0151 -0.9360  0.0141
   55RES    H3615264   1.443   3.351   2.269  1.8863  0.2614  0.4409
   55RES    H3715265   1.321   3.418   2.370 -0.2994  0.0435 -2.1842
   55RES    H3815266   1.471   3.564   2.478 -3.1052 -0.2012 -0.7747
   55RES    H3915267   1.402   3.596   2.226  0.1927 -1.9496  0.3659
   55RES    H4015268   1.580   3.573   2.204  0.2499  1.3186  0.9504
   55RES    H4115269   1.642   3.755   2.133 -0.0907 -2.0676  1.3033
   55RES    H4215270   1.609   3.908   2.202 -2.0375 -0.0937  0.7537
   55RES    H4315271   1.478   3.832   2.110 -1.8176  0.6535  2.5901
   55RES    O4415272   1.646   3.483   2.392 -0.8212  0.1963  0.0516
   55RES    C4515273   1.702   3.447   2.521  0.0318  0.5357 -0.2841
   55RES    C4615274   1.737   3.558   2.618 -0.0882 -0.0994 -0.2315
   55RES    C4715275   1.811   3.505   2.743 -0.0583 -0.3332  0.8297
   55RES    O4815276   1.795   3.584   2.865  0.2195  0.3722  0.2273
   55RES    C4915277   1.832   3.517   2.981 -0.6132 -0.0326 -0.4713
   55RES    H5015278   1.787   3.384   2.500 -0.9856 -1.2013  0.6952
   55RES    H5115279   1.632   3.376   2.566  1.4299 -1.5532 -1.3663
   55RES    H5215280   1.649   3.595   2.670  0.1070  0.0318  0.0076
   55RES    H5315281   1.781   3.400   2.749 -0.4912 -0.3289 -1.0852
   55RES    H5415282   1.915   3.483   2.718 -0.5146 -0.6787 -0.7629
   55RES    H5515283   1.811   3.583   3.065  0.0166 -0.8667  0.3608
   55RES    H5615284   1.941   3.508   2.973 -0.6246  0.3944 -1.1464
   55RES    H5715285   1.792   3.416   2.991  0.9151 -0.7184 -1.0835
   55RES    O5815286   1.812   3.655   2.558  0.5694 -0.3990  0.0651
   55RES    C5915287   1.757   3.789   2.558  0.3825  0.1897 -0.4688
   55RES    C6015288   1.844   3.904   2.499  0.1878  0.0538  0.3960
   55RES    C6115289   1.781   4.046   2.505  0.7185  0.4205 -0.4627
   55RES    O6215290   1.787   4.086   2.643  0.2385  0.2230 -0.3881
   55RES    C6315291   1.737   4.214   2.671 -0.9278 -0.7840 -0.5902
   55RES    H6415292   1.713   3.813   2.655 -0.9519 -1.1914 -0.6998
   55RES    H6515293   1.677   3.772   2.486  1.6947  1.5445 -2.2823
   55RES    H6615294   1.942   3.902   2.548 -0.6821 -0.3162  2.1668
   55RES    H6715295   1.838   4.106   2.434 -1.6821  1.0565 -1.8745
   55RES    H6815296   1.682   4.052   2.461 -0.0604  0.2680  1.2060
   55RES    H6915297   1.802   4.293   2.633 -2.5067  0.5300 -0.6456
   55RES    H7015298   1.737   4.221   2.780  0.3504  0.4950 -0.6456
   55RES    H7115299   1.646   4.237   2.616  0.4154  2.4494 -1.6166
   55RES    O7215300   1.855   3.881   2.357  0.2421  0.9132  0.3201
   55RES    C7315301   1.958   3.795   2.318  0.2840  0.7405 -0.0146
   55RES    C7415302   1.971   3.804   2.166  0.0094  0.3385 -0.1380
   55RES    C7515303   2.072   3.706   2.103 -0.2893 -0.1091  0.0852
   55RES    O7615304   2.056   3.691   1.968  0.1792 -0.3698 -0.4211
   55RES    C7715305   2.121   3.578   1.917  0.4763 -0.6484  0.5682
   55RES    H7815306   2.051   3.822   2.368  0.1237  1.6531 -0.2088
   55RES    H7915307   1.940   3.692   2.349  1.0398  0.7053  0.3132
   55RES    H8015308   1.876   3.787   2.115  0.7352  1.2730 -1.8575
   55RES    H8115309   2.049   3.608   2.145  1.7168  0.3017  2.2381
   55RES    H8215310   2.170   3.738   2.138 -1.1217 -0.0298  2.4212
   55RES    H8315311   2.192   3.531   1.985 -1.0775  0.1979  2.8200
   55RES    H8415312   2.177   3.595   1.825 -2.5287  0.5935 -1.0870
   55RES    H8515313   2.044   3.507   1.891 -1.5899  2.3651 -1.9550
   55RES    O8615314   2.034   3.928   2.152  0.8117  0.0481  0.1870
   55RES    C8715315   1.938   4.011   2.086 -0.0526 -0.4645 -0.2060
   55RES    C8815316   1.998   4.149   2.063 -0.4522 -0.0638  1.4048
   55RES    C8915317   1.896   4.235   1.983 -0.3246 -0.1631 -0.0438
   55RES    O9015318   1.953   4.350   1.930  0.1423 -0.1810 -0.0261
   55RES    C9115319   1.869   4.442   1.855  0.3386  0.7140  1.2720
   55RES    H9215320   1.904   3.969   1.990  0.9894 -1.8400  0.0117
   55RES    H9315321   1.845   4.018   2.143  1.3297  4.2092  1.6825
   55RES    H9415322   2.085   4.127   2.000 -2.7070 -2.5706 -0.9630
   55RES    H9515323   1.858   4.182   1.896  2.2591  0.1991 -1.4707
   55RES    H9615324   1.813   4.261   2.048  0.9049 -0.6492  1.7638
   55RES    H9715325   1.779   4.477   1.905 -0.0690  1.7749 -0.1848
   55RES    H9815326   1.931   4.528   1.832 -0.4146  0.8958 -0.0885
   55RES    H9915327   1.830   4.396   1.765  1.9276 -0.3611  1.1022
   55RES   O10015328   2.031   4.202   2.189  0.6633 -0.2003  0.4258
   55RES   C10115329   2.110   4.314   2.184 -0.0443  0.7704  0.4104
   55RES   C10215330   2.150   4.350   2.327  0.1536  0.0585  0.2485
   55RES   C10315331   2.221   4.484   2.325 -0.1866  0.7965  0.1076
   55RES   O10415332   2.236   4.516   2.460 -0.4956 -0.5130 -0.2578
   55RES   C10515333   2.280   4.644   2.486  0.0542  0.1821 -0.0963
   55RES   H10615334   2.060   4.394   2.129 -0.4323 -0.0675 -0.4805
   55RES   H10715335   2.201   4.296   2.127 -0.2221  1.5371 -0.1320
   55RES   H10815336   2.064   4.363   2.393 -1.0381  2.2816 -1.6910
   55RES   H10915337   2.156   4.556   2.274 -0.5770  0.2050 -0.2336
   55RES   H11015338   2.313   4.481   2.267 -0.3134 -2.1253 -0.0154
   55RES   H11115339   2.224   4.706   2.416 -0.5005 -1.8436 -1.4856
   55RES   H11215340   2.381   4.654   2.446  0.0160 -3.7361 -1.3408
   55RES   H11315341   2.282   4.678   2.589  3.6530  1.3016 -0.4690
   55RES   O11415342   2.238   4.247   2.385  0.5608 -0.0311 -0.0638
   55RES   C11515343   2.185   4.127   2.431  0.4188  1.2103 -0.1770
   55RES   C11615344   2.295   4.044   2.500  0.6636  1.1101  0.6497
   55RES   C11715345   2.234   3.969   2.615 -0.9169 -0.2754  0.5071
   55RES   O11815346   2.340   3.944   2.715  0.6059  0.6003  0.2221
   55RES   C11915347   2.418   3.832   2.683  0.1123 -0.2137  0.2001
   55RES   H12015348   2.106   4.139   2.505 -0.8573 -1.3076 -1.0744
   55RES   H12115349   2.126   4.083   2.350  0.6940 -0.3380  0.4505
   55RES   H12215350   2.370   4.114   2.536 -0.5171  2.8188 -0.1501
   55RES   H12315351   2.165   4.035   2.668 -0.4598  0.9429 -0.3792
   55RES   H12415352   2.172   3.884   2.589 -1.0860  0.1140 -0.3821
   55RES   H12515353   2.488   3.872   2.611  1.3897 -2.0136  0.4024
   55RES   H12615354   2.361   3.746   2.646 -1.2327  0.9931 -0.5920
   55RES   H12715355   2.473   3.800   2.772 -1.5982 -0.4271  1.2204
   55RES   O12815356   2.372   3.951   2.411  0.3849 -0.5294  0.1177
   55RES   C12915357   2.468   4.019   2.332 -0.2025 -0.3236 -0.5174
   55RES   C13015358   2.585   4.082   2.416  0.1544 -0.0246  0.9087
   55RES   C13115359   2.586   4.235   2.407  0.1259  0.7606 -0.0278
   55RES   O13215360   2.638   4.300   2.517 -0.0110 -0.5707  0.0164
   55RES   C13315361   2.554   4.316   2.630  0.1557  0.3587  0.2134
   55RES   H13415362   2.515   3.954   2.259 -1.8052 -1.1129 -0.8564
   55RES   H13515363   2.419   4.092   2.267 -2.2507 -1.7271 -0.5805
   55RES   H13615364   2.576   4.049   2.519  0.6075  1.2827  1.3733
   55RES   H13715365   2.486   4.274   2.385 -0.1494 -0.1502 -0.3964
   55RES   H13815366   2.649   4.262   2.322  0.1535 -0.5877 -0.4523
   55RES   H13915367   2.604   4.393   2.689  1.0516 -1.3137  1.6867
   55RES   H14015368   2.454   4.342   2.596  0.0785 -0.2134  0.0010
   55RES   H14115369   2.549   4.223   2.686  1.3325  0.2502  0.1497
   55RES   O14215370   2.703   4.038   2.347  0.2404 -0.2400  0.0231
   55RES   C14315371   2.821   4.064   2.421  0.8722  0.2994 -0.0619
   55RES   C14415372   2.943   3.989   2.354  0.2894 -0.8767 -0.0475
   55RES   C14515373   3.054   3.958   2.448  0.0408  0.3631  1.0035
   55RES   O14615374   3.151   3.878   2.385 -0.0294  0.4595  0.3918
   55RES   C14715375   3.120   3.743   2.364  0.2220  0.2264 -0.0476
   55RES   H14815376   2.843   4.169   2.439  2.2338 -0.0005  0.0746
   55RES   H14915377   2.809   4.024   2.522 -0.1639 -1.2409 -0.7773
   55RES   H15015378   2.914   3.904   2.293  0.6116 -0.1158 -1.2784
   55RES   H15115379   3.020   3.902   2.536 -1.3936 -0.7766 -0.2492
   55RES   H15215380   3.105   4.049   2.480  0.4578  0.9464 -1.2576
   55RES   H15315381   3.087   3.689   2.453 -1.5002  1.2588 -0.0300
   55RES   H15415382   3.210   3.695   2.326 -0.2649 -0.1487 -0.7438
   55RES   H15515383   3.043   3.723   2.289  0.1673  2.9964 -0.7859
   55RES   O15615384   2.992   4.083   2.255  0.5626  0.4002 -0.4702
   55RES   C15715385   2.948   4.069   2.121  0.2925 -0.0179 -0.0322
   55RES   C15815386   2.994   4.185   2.035  0.0497 -0.2234 -0.3299
   55RES   C15915387   2.916   4.197   1.905 -0.2518 -0.2771  0.1075
   55RES   O16015388   2.926   4.335   1.872 -0.4612 -0.4205 -0.6909
   55RES   C16115389   2.865   4.371   1.755  0.3568 -0.1917  0.5304
   55RES   H16215390   2.988   3.976   2.082 -0.5140 -0.1455 -0.5837
   55RES   H16315391   2.839   4.068   2.117  0.3324 -3.1143 -1.3846
   55RES   H16415392   2.981   4.280   2.087 -0.6689 -0.5359  0.0691
   55RES   H16515393   2.955   4.126   1.832  2.7331 -0.9634  2.2460
   55RES   H16615394   2.812   4.169   1.923 -1.2469  2.4480 -1.3106
   55RES   H16715395   2.928   4.345   1.669  0.8053  2.5060 -0.0345
   55RES   H16815396   2.835   4.475   1.741  1.1435 -0.0779 -0.3650
   55RES   H16915397   2.767   4.325   1.751  1.2453 -2.3282  2.3218
   55RES   O17015398   3.126   4.169   1.986  0.3636 -0.5495  0.7493
   55RES   C17115399   3.227   4.186   2.082  0.3016  0.2609 -0.6464
   55RES   C17215400   3.365   4.190   2.022  0.8606 -0.0909  0.2082
   55RES   C17315401   3.476   4.206   2.130 -0.3506 -0.0186  0.0341
   55RES   O17415402   3.597   4.141   2.075 -0.7733  0.0735 -0.4356
   55RES   C17515403   3.687   4.245   2.034  0.7299 -0.5978  0.3462
   55RES   H17615404   3.224   4.105   2.155 -0.0610 -1.8647 -2.9550
   55RES   H17715405   3.216   4.283   2.131  0.3480  0.2956 -0.7036
   55RES   H17815406   3.386   4.093   1.977  0.2020 -0.2157  0.1738
   55RES   H17915407   3.484   4.306   2.172 -1.4510  0.6993 -1.4214
   55RES   H18015408   3.449   4.142   2.214  1.9882 -2.4621 -0.9929
   55RES   H18115409   3.633   4.316   1.971  0.9132  1.0633  2.0236
   55RES   H18215410   3.775   4.217   1.976  0.6203 -0.4691  0.1143
   55RES   H18315411   3.726   4.300   2.119  1.6088 -0.0559 -0.4013
   55RES   O18415412   3.367   4.307   1.947 -0.0428 -0.0550 -0.5010
   55RES   C18515413   3.350   4.298   1.808  0.6077  0.5384  0.0386
   55RES   C18615414   3.403   4.422   1.732  0.1004 -0.4995  0.4456
   55RES   C18715415   3.342   4.440   1.592 -0.5597 -0.2039 -0.2597
   55RES   O18815416   3.360   4.566   1.529  0.1220 -0.1452 -0.1570
   55RES   C18915417   3.327   4.563   1.394 -0.5217 -0.2259 -0.0739
   55RES   H19015418   3.247   4.281   1.777  1.2401  0.6722 -2.2384
   55RES   H19115419   3.397   4.210   1.764 -1.5320  0.0307 -1.2773
   55RES   H19215420   3.374   4.507   1.794  0.3955 -0.6033  0.7279
   55RES   H19315421   3.235   4.445   1.614 -1.0090 -2.0071 -1.9205
   55RES   H19415422   3.376   4.357   1.530 -0.3983  0.2522 -0.7845
   55RES   H19515423   3.373   4.643   1.336  0.3003 -1.2599 -0.8717
   55RES   H19615424   3.368   4.479   1.338 -1.3001 -1.4646  1.1757
   55RES   H19715425   3.222   4.574   1.369 -1.0434 -2.9472  0.7568
   55RES   O19815426   3.545   4.410   1.723 -0.7567  0.5176 -0.3245
   55RES   C19915427   3.598   4.538   1.780 -0.6016  0.3133  0.3350
   55RES   C20015428   3.745   4.534   1.743  0.1989  0.4890 -0.2903
   55RES   C20115429   3.775   4.462   1.611 -0.3286 -0.2668  0.8662
   55RES   O20215430   3.898   4.515   1.560  0.3133  0.1806 -0.7298
   55RES   C20315431   3.941   4.463   1.440 -0.5417 -0.2659  0.5490
   55RES   H20415432   3.586   4.565   1.885 -0.9586  1.2608  0.0518
   55RES   H20515433   3.557   4.626   1.731  1.1513  1.9589  1.7703
   55RES   H20615434   3.783   4.636   1.731 -1.6641  1.3136  0.7183
   55RES   H20715435   3.777   4.354   1.629  2.1410 -0.1800  1.1789
   55RES   H20815436   3.694   4.485   1.542 -0.7128 -0.7799  1.1435
   55RES   H20915437   4.018   4.532   1.407  1.9028 -2.8718  0.5954
   55RES   H21015438   3.860   4.466   1.368 -0.6540  1.0641  0.7281
   55RES   H21115439   3.976   4.359   1.444  0.9265  0.1609 -0.7957
   55RES   O21215440   3.820   4.461   1.841 -0.3883 -0.7427 -0.0823
   55RES   C21315441   3.947   4.524   1.876 -0.3667 -0.4101  0.1204
   55RES   C21415442   3.996   4.449   2.002  0.0882  0.3618  0.8405
   55RES   C21515443   3.969   4.509   2.138  0.0833 -0.0090 -0.5486
   55RES   O21615444   3.961   4.400   2.233 -0.5595  0.0528  0.3831
   55RES   C21715445   4.023   4.443   2.355  0.1055 -0.1194 -0.4273
   55RES   H21815446   3.934   4.631   1.891 -2.7481 -0.5414 -0.8123
   55RES   H21915447   4.011   4.517   1.788 -3.0765 -1.0016 -1.8360
   55RES   H22015448   3.960   4.347   1.988  0.8623  0.0776  0.9207
   55RES   H22115449   4.040   4.589   2.161  0.6112 -0.3137 -1.1287
   55RES   H22215450   3.868   4.550   2.127 -0.0409 -0.4761 -1.1896
   55RES   H22315451   3.987   4.543   2.378 -0.7078 -0.6499  0.6127
   55RES   H22415452   4.131   4.456   2.343  0.5315 -3.6066 -0.8577
   55RES   H22515453   4.008   4.378   2.441 -2.4553  1.3031  0.2420
   55RES   O22615454   4.138   4.451   1.984 -0.1879  0.1730  0.2709
   55RES   C22715455   4.203   4.347   2.051 -0.2786 -0.3511 -0.1486
   55RES   C22815456   4.355   4.384   2.059 -0.1872  0.2746  0.3024
   55RES   C22915457   4.413   4.273   2.140  0.3006 -0.4589  0.1166
   55RES   O23015458   4.529   4.309   2.211 -0.1981  0.4969 -0.1113
   55RES   C23115459   4.637   4.355   2.139  0.3027  1.4548 -0.8183
   55RES   H23215460   4.189   4.251   2.000  0.4551  0.3115 -1.6290
   55RES   H23315461   4.158   4.324   2.147 -0.3019  2.8795  0.6519
   55RES   H23415462   4.374   4.475   2.116  1.7713 -0.5404  0.9869
   55RES   H23515463   4.424   4.188   2.073 -0.5251  0.0163 -0.6284
   55RES   H23615464   4.349   4.228   2.216 -0.4874 -0.2400 -0.4104
   55RES   H23715465   4.724   4.354   2.204  0.4775  2.9652 -1.0126
   55RES   H23815466   4.616   4.449   2.088  0.5729  1.5472 -0.7621
   55RES   H23915467   4.660   4.277   2.065 -3.1701  0.3156 -0.7775
   55RES   O24015468   4.412   4.387   1.926  0.1742  0.0453 -0.2566
   55RES   C24115469   4.398   4.498   1.846 -0.3537 -0.0760 -0.0944
   55RES   C24215470   4.491   4.490   1.724  0.4720 -0.4321  0.8523
   55RES   C24315471   4.466   4.611   1.629  0.7459  0.2985  0.3124
   55RES   O24415472   4.523   4.585   1.503  0.3972  0.6558  0.0148
   55RES   C24515473   4.498   4.681   1.405 -1.3771 -0.3717 -0.4210
   55RES   H24615474   4.432   4.586   1.902 -0.5954  0.2267 -0.4224
   55RES   H24715475   4.294   4.516   1.816 -0.5429  0.9048  1.0882
   55RES   H24815476   4.462   4.395   1.679  0.7975 -0.0632 -0.1592
   55RES   H24915477   4.359   4.634   1.625  0.6679 -0.3406 -1.6612
   55RES   H25015478   4.512   4.700   1.672 -0.1865  1.6560 -1.4025
   55RES   H25115479   4.390   4.701   1.405 -1.8286 -2.6289 -1.2680
   55RES   H25215480   4.543   4.651   1.310 -1.2530  0.4610 -0.6355
   55RES   H25315481   4.545   4.776   1.432  0.1936 -0.3829 -2.9661
   55RES   O25415482   4.625   4.482   1.775  0.2893 -0.2370  0.0568
   55RES   C25515483   4.721   4.448   1.686 -1.2706 -0.2702 -0.2275
   55RES   C25615484   4.845   4.396   1.754  0.2463  1.3813  0.1560
   55RES   C25715485   4.933   4.337   1.646 -0.2062 -0.3329  0.2885
   55RES   O25815486   5.053   4.276   1.708  0.1532  0.7965 -0.1378
   55RES   C25915487   5.143   4.219   1.617  0.5759 -0.7662 -0.3353
   55RES   H26015488   4.692   4.379   1.607  1.0381 -0.6870 -0.7210
   55RES   H26115489   4.743   4.534   1.622  1.7433  0.6664  1.9610
   55RES   H26215490   4.809   4.320   1.823 -2.7898  1.8727 -0.8188
   55RES   H26315491   4.875   4.261   1.593  0.4037 -1.4300  1.1722
   55RES   H26415492   4.957   4.412   1.571 -2.1622  0.5401  0.4973
   55RES   H26515493   5.212   4.159   1.676  1.4105 -1.6006 -2.1236
   55RES   H26615494   5.209   4.289   1.565 -1.1348  2.1516  1.2727
   55RES   H26715495   5.083   4.160   1.547  0.0249 -0.8408  0.1977
   55RES   O26815496   4.927   4.498   1.825  0.2402 -0.0873 -0.3092
   55RES   C26915497   4.873   4.530   1.953 -0.1318 -0.4933  0.2082
   55RES   C27015498   4.935   4.656   2.014 -0.7289 -0.2570 -0.2342
   55RES   C27115499   4.898   4.674   2.160 -0.3857  0.2723  0.2525
   55RES   O27215500   4.939   4.798   2.213  0.9422 -0.3889  0.5765
   55RES   C27315501   4.886   4.825   2.341 -0.2217 -0.1675 -0.4069
   55RES   H27415502   4.905   4.448   2.018 -0.2690 -0.4871  0.2829
   55RES   H27515503   4.766   4.550   1.962 -0.0270  0.0190  0.3511
   55RES   H27615504   5.042   4.645   1.995 -0.1737  2.1824  1.2483
   55RES   H27715505   4.942   4.595   2.219 -2.0234 -0.3059  0.7150
   55RES   H27815506   4.789   4.676   2.167 -0.3553 -0.6945  1.0798
   55RES   H27915507   4.933   4.906   2.396 -1.1411  1.8162 -2.4484
   55RES   H28015508   4.892   4.736   2.402  0.2866  0.6292  0.7145
   55RES   H28115509   4.780   4.847   2.331 -0.2951 -0.0091  0.6731
   55RES   H28215510   4.907   4.753   1.974 -1.7376 -1.3242 -2.1949
   56RES     O115511   6.050   5.157   5.328 -0.0929  0.2836  0.0358
   56RES     C215512   6.011   5.249   5.429 -0.2427 -0.0341  0.7175
   56RES     C315513   6.009   5.384   5.364 -0.5359 -0.5761 -0.3976
   56RES     C415514   5.939   5.494   5.452 -0.0201  0.1787  0.0697
   56RES     O515515   5.902   5.612   5.377 -0.3373 -0.1019 -0.7099
   56RES     C615516   5.894   5.725   5.455  0.5208 -0.2669  0.0377
   56RES     H715517   5.910   5.227   5.464 -0.5130 -0.2037 -0.1501
   56RES     H815518   6.074   5.255   5.518 -0.3649 -2.9878  1.0552
   56RES     H915519   5.951   5.378   5.272 -1.4528  0.0310  0.1306
   56RES    H1015520   6.012   5.527   5.526  1.3646 -0.8102 -0.8485
   56RES    H1115521   5.847   5.465   5.503 -0.6885 -2.4915 -2.5235
   56RES    H1215522   5.860   5.813   5.399 -1.7013 -0.8256  0.4506
   56RES    H1315523   5.817   5.695   5.526  0.6983 -1.7260 -0.3778
   56RES    H1415524   5.982   5.740   5.518 -0.9220  0.8032  1.8730
   56RES    H1515525   6.129   5.195   5.292 -0.8188  0.4886 -1.3953
   56RES    O1615526   6.145   5.430   5.343 -0.4779  0.6366 -0.1843
   56RES    C1715527   6.168   5.495   5.221  0.3623  0.0847 -0.1825
   56RES    C1815528   6.182   5.381   5.110 -0.3183  0.3947 -0.4406
   56RES    C1915529   6.232   5.438   4.978  0.0377  0.0581  0.2900
   56RES    O2015530   6.188   5.369   4.857 -0.3012 -0.0418  0.1545
   56RES    C2115531   6.224   5.441   4.738 -0.5132  0.0671 -0.2001
   56RES    H2215532   6.267   5.539   5.235 -0.9660  2.5534  1.8090
   56RES    H2315533   6.104   5.580   5.200  0.1902  0.1122  0.4541
   56RES    H2415534   6.083   5.340   5.091 -0.6953  1.1407 -0.0812
   56RES    H2515535   6.192   5.539   4.974  0.2553  0.2624  2.7138
   56RES    H2615536   6.340   5.446   4.963 -0.0893  0.6463 -0.3360
   56RES    H2715537   6.330   5.425   4.720 -0.3450  0.6393  0.2981
   56RES    H2815538   6.196   5.546   4.745 -1.0793 -0.0430 -0.6807
   56RES    H2915539   6.177   5.410   4.644 -0.7573  3.2106 -1.1774
   56RES    O3015540   6.270   5.274   5.157  0.2980 -0.0066 -0.0047
   56RES    C3115541   6.265   5.154   5.072  0.2741 -0.5383 -1.2517
   56RES    C3215542   6.374   5.053   5.133  0.1413 -0.5972 -0.4466
   56RES    C3315543   6.509   5.105   5.145 -0.1201  0.1984 -0.2035
   56RES    O3415544   6.572   5.133   5.026  0.2381 -0.2244 -0.2823
   56RES    C3515545   6.615   5.020   4.949 -0.6810  0.0343 -0.2126
   56RES    H3615546   6.170   5.109   5.099  0.9677 -2.7275 -2.3416
   56RES    H3715547   6.285   5.170   4.966  1.2264 -0.3069 -1.0462
   56RES    H3815548   6.344   5.041   5.237 -0.8834  0.9439 -0.5469
   56RES    H3915549   6.577   5.045   5.205  0.3303 -2.3727 -3.1749
   56RES    H4015550   6.514   5.206   5.185  0.1263 -0.4035  1.3076
   56RES    H4115551   6.532   4.971   4.899  0.0620 -0.8049 -0.6476
   56RES    H4215552   6.669   4.954   5.017  1.0974  0.5008 -1.1446
   56RES    H4315553   6.686   5.055   4.873  1.5163 -3.2485  0.2018
   56RES    O4415554   6.372   4.927   5.067 -0.3691 -0.0099 -0.0765
   56RES    C4515555   6.270   4.837   5.120 -0.0725 -0.1810  0.1567
   56RES    C4615556   6.295   4.691   5.056 -0.2790 -0.4561  0.1559
   56RES    C4715557   6.285   4.574   5.162 -0.5460  0.4946  0.0515
   56RES    O4815558   6.150   4.579   5.211 -0.7779  0.5236  0.7330
   56RES    C4915559   6.146   4.501   5.332 -0.1955 -0.9090  0.1513
   56RES    H5015560   6.166   4.864   5.104 -0.2135 -0.6998  0.2106
   56RES    H5115561   6.271   4.821   5.228  0.5356 -2.5104 -0.1782
   56RES    H5215562   6.391   4.703   5.006 -0.9950  1.3649 -0.8364
   56RES    H5315563   6.306   4.484   5.103 -0.0227 -1.2846  2.8622
   56RES    H5415564   6.357   4.584   5.243  1.5781 -2.3656 -1.3696
   56RES    H5515565   6.044   4.498   5.370 -0.9822 -1.1629 -1.8806
   56RES    H5615566   6.213   4.542   5.407 -0.1921 -1.7097  0.5877
   56RES    H5715567   6.185   4.400   5.319 -0.8955 -1.2457  0.6391
   56RES    O5815568   6.196   4.659   4.956  0.0939 -0.5436  0.4378
   56RES    C5915569   6.227   4.573   4.848 -0.3000  0.1812 -0.1238
   56RES    C6015570   6.302   4.637   4.724  0.4888 -0.1164 -0.3359
   56RES    C6115571   6.249   4.584   4.585  0.2563 -0.0051 -0.4186
   56RES    O6215572   6.288   4.672   4.487 -0.1133  0.2474  0.2168
   56RES    C6315573   6.246   4.650   4.354 -0.0535 -0.9430  0.4127
   56RES    H6415574   6.134   4.527   4.817 -0.1133  0.5626 -1.2743
   56RES    H6515575   6.277   4.486   4.891 -0.5411  0.2065  0.2019
   56RES    H6615576   6.281   4.743   4.731 -1.6001 -0.5571  0.3822
   56RES    H6715577   6.282   4.483   4.560 -0.0233 -1.0120  2.9600
   56RES    H6815578   6.141   4.568   4.578 -0.2055  2.6599  0.3682
   56RES    H6915579   6.323   4.593   4.301  0.7739 -0.3394  0.9586
   56RES    H7015580   6.224   4.749   4.316  1.1207 -0.1639  1.7184
   56RES    H7115581   6.155   4.591   4.349 -0.2980 -0.5242 -0.1883
   56RES    O7215582   6.435   4.594   4.738 -0.4331  0.2686  0.5361
   56RES    C7315583   6.528   4.704   4.732 -0.1929  0.7060  0.0196
   56RES    C7415584   6.671   4.649   4.717  0.9919 -0.6537 -0.1829
   56RES    C7515585   6.774   4.749   4.782  0.5354 -0.0806  0.8521
   56RES    O7615586   6.782   4.878   4.717  0.2720 -0.1252 -0.1037
   56RES    C7715587   6.898   4.903   4.641 -0.4559  0.4568 -0.0887
   56RES    H7815588   6.503   4.768   4.648 -0.1173  1.6397  0.7008
   56RES    H7915589   6.507   4.758   4.824 -1.0264 -0.7333  0.6938
   56RES    H8015590   6.677   4.560   4.779  0.1294  0.4185  1.4784
   56RES    H8115591   6.874   4.706   4.770  0.3644  0.1083 -1.4662
   56RES    H8215592   6.757   4.762   4.889 -2.4642 -0.1043  0.4176
   56RES    H8315593   6.889   5.004   4.600  0.1924  0.6467  0.2306
   56RES    H8415594   6.915   4.823   4.570 -0.4525  1.7180 -1.5494
   56RES    H8515595   6.986   4.901   4.705 -0.4048 -3.0077 -0.2237
   56RES    O8615596   6.712   4.640   4.579  0.0816 -0.2499 -0.8337
   56RES    C8715597   6.651   4.532   4.508 -1.1075  0.5431  0.1500
   56RES    C8815598   6.718   4.534   4.367  0.2439 -0.4175  0.0908
   56RES    C8915599   6.666   4.411   4.297 -0.3399  0.6542  0.5525
   56RES    O9015600   6.764   4.371   4.199  0.1160  0.8144 -0.4119
   56RES    C9115601   6.722   4.254   4.119  0.0668  0.0929 -0.7831
   56RES    H9215602   6.658   4.440   4.566  0.3635  0.5134 -0.0420
   56RES    H9315603   6.547   4.561   4.515 -0.6465  2.1380  0.6515
   56RES    H9415604   6.826   4.530   4.375  0.3854  3.2401  0.9552
   56RES    H9515605   6.652   4.327   4.365  0.4482  0.1236  0.0703
   56RES    H9615606   6.571   4.424   4.246 -0.6573 -1.0075  0.6858
   56RES    H9715607   6.630   4.278   4.066 -1.1403  0.7287  1.5431
   56RES    H9815608   6.798   4.245   4.041  1.1586 -0.7278  0.3492
   56RES    H9915609   6.719   4.156   4.166  0.5743  0.6649  0.4908
   56RES   O10015610   6.680   4.652   4.301  0.0251  0.2442  0.3633
   56RES   C10115611   6.791   4.707   4.224 -0.0654 -1.0847  0.4229
   56RES   C10215612   6.748   4.817   4.119 -0.0229  0.2205 -0.1126
   56RES   C10315613   6.874   4.864   4.054 -0.0920  0.1104  0.1280
   56RES   O10415614   6.843   4.939   3.938  0.3593 -0.2587  0.0824
   56RES   C10515615   6.954   4.993   3.875 -0.4084 -0.8579 -0.1797
   56RES   H10615616   6.857   4.632   4.183  0.0636  0.4474 -2.3196
   56RES   H10715617   6.863   4.759   4.287 -0.8047 -1.3041  1.4645
   56RES   H10815618   6.677   4.770   4.051 -0.7178  1.9245 -0.5952
   56RES   H10915619   6.947   4.789   4.024 -0.7284 -0.9178  1.1098
   56RES   H11015620   6.923   4.928   4.127  1.3419 -1.1187  0.2653
   56RES   H11115621   7.004   5.039   3.960  0.6938 -1.2076 -0.6302
   56RES   H11215622   6.930   5.072   3.804 -1.7201 -0.5055  0.6488
   56RES   H11315623   7.020   4.919   3.830 -0.1797  0.0265 -1.3560
   56RES   O11415624   6.681   4.928   4.181 -0.5452  0.2007  0.6677
   56RES   C11515625   6.542   4.912   4.209  0.2183  0.0262 -0.1845
   56RES   C11615626   6.482   5.029   4.296  0.3021 -0.8588  0.1690
   56RES   C11715627   6.333   5.036   4.306  0.2200  0.4016  0.4772
   56RES   O11815628   6.295   5.168   4.357 -0.2045 -0.2758  0.4135
   56RES   C11915629   6.160   5.178   4.398  0.1901  0.3499 -0.3738
   56RES   H12015630   6.488   4.891   4.117  0.6458  0.4574 -0.5422
   56RES   H12115631   6.529   4.823   4.271 -1.3285  0.6118  0.3564
   56RES   H12215632   6.510   5.120   4.243  0.4125 -1.7595 -1.3373
   56RES   H12315633   6.300   5.028   4.203 -1.3123  1.2732  0.8928
   56RES   H12415634   6.282   4.956   4.359  1.5470  0.1017  1.3349
   56RES   H12515635   6.137   5.278   4.436  1.6259  1.0538 -1.2890
   56RES   H12615636   6.133   5.100   4.468  0.5203  2.2168  1.9056
   56RES   H12715637   6.102   5.170   4.306  0.0528 -2.5346 -0.0621
   56RES   O12815638   6.524   5.012   4.430 -0.3859 -0.0830  0.5078
   56RES   C12915639   6.558   5.134   4.495  0.3962  0.1702  0.1545
   56RES   C13015640   6.691   5.199   4.441 -0.1799 -0.2858  0.0670
   56RES   C13115641   6.764   5.301   4.531 -0.3775 -0.5006  0.0922
   56RES   O13215642   6.896   5.339   4.498  0.2114 -0.2476 -0.2012
   56RES   C13315643   6.991   5.240   4.528 -0.4698  0.6356 -0.7834
   56RES   H13415644   6.472   5.200   4.505 -1.1219 -1.7557 -0.0158
   56RES   H13515645   6.564   5.101   4.599 -2.0531 -0.7800  0.0285
   56RES   H13615646   6.753   5.111   4.424  1.6240  1.3821 -2.2400
   56RES   H13715647   6.762   5.252   4.629 -1.0204 -0.0573  0.2990
   56RES   H13815648   6.710   5.395   4.538  0.8488  0.2076  0.2048
   56RES   H13915649   6.961   5.151   4.472 -0.4471  0.8439 -1.1338
   56RES   H14015650   7.086   5.269   4.481  0.4795 -2.0807 -0.6482
   56RES   H14115651   7.014   5.226   4.633  0.5269  0.3111 -1.0303
   56RES   O14215652   6.683   5.281   4.324 -0.2125 -0.2714  0.3391
   56RES   C14315653   6.774   5.247   4.225 -0.0046  0.2669 -0.9558
   56RES   C14415654   6.783   5.363   4.123 -0.1014 -0.3300 -0.2144
   56RES   C14515655   6.879   5.334   4.000  0.2702 -0.2292 -0.2003
   56RES   O14615656   6.834   5.384   3.875 -0.0599  0.0432  0.5763
   56RES   C14715657   6.941   5.432   3.788 -0.2588 -0.4404  0.2034
   56RES   H14815658   6.874   5.223   4.259 -1.4070 -0.6096  2.7955
   56RES   H14915659   6.726   5.170   4.166 -0.7000 -0.2447  0.2512
   56RES   H15015660   6.690   5.399   4.080 -0.0581 -0.2925 -0.2766
   56RES   H15115661   6.901   5.227   4.003 -0.2876 -0.2966  2.3843
   56RES   H15215662   6.979   5.375   4.013  0.6605 -0.8622 -1.0907
   56RES   H15315663   6.981   5.531   3.807  1.4292 -0.5946 -2.3258
   56RES   H15415664   6.905   5.442   3.686  1.3998  0.5899 -0.2877
   56RES   H15515665   7.025   5.362   3.787  1.0227  0.9952  2.1459
   56RES   O15615666   6.854   5.469   4.178  0.1453 -0.4409  0.1862
   56RES   C15715667   6.787   5.558   4.267 -0.1764 -0.8931 -0.1856
   56RES   C15815668   6.881   5.673   4.280 -0.4636 -0.5650  0.5436
   56RES   C15915669   6.834   5.769   4.392 -0.9107  0.6110  0.6624
   56RES   O16015670   6.942   5.848   4.429  0.3185  0.1284  0.3188
   56RES   C16115671   6.901   5.950   4.515 -0.3962 -0.6336  0.7032
   56RES   H16215672   6.684   5.581   4.236 -0.5404  2.2319  2.9654
   56RES   H16315673   6.781   5.529   4.372  1.0974  1.3181  0.5482
   56RES   H16415674   6.978   5.629   4.302 -0.1174  0.2670  0.6857
   56RES   H16515675   6.758   5.842   4.365  2.2413  3.1822 -1.6653
   56RES   H16615676   6.801   5.713   4.480  1.6478  0.3551  1.5088
   56RES   H16715677   6.804   5.997   4.497 -1.7691 -2.5981  2.7784
   56RES   H16815678   6.982   6.020   4.498 -1.3936 -0.1267 -2.3179
   56RES   H16915679   6.914   5.931   4.621  0.5845  1.1247  0.9099
   56RES   O17015680   6.872   5.741   4.160 -0.3481  0.1299 -0.2467
   56RES   C17115681   6.994   5.770   4.094  1.0065 -0.4422 -0.2079
   56RES   C17215682   6.959   5.812   3.943 -0.1113  0.0997 -0.0401
   56RES   C17315683   7.096   5.810   3.868 -0.2384  0.2956  0.7016
   56RES   O17415684   7.085   5.797   3.731  0.4087 -0.1559  0.2624
   56RES   C17515685   7.206   5.815   3.657  0.2475  0.5693  0.4828
   56RES   H17615686   7.054   5.679   4.095 -0.4883 -1.4723 -1.4433
   56RES   H17715687   7.041   5.857   4.141  1.8441 -0.3290 -1.2288
   56RES   H17815688   6.896   5.729   3.912 -1.5608  0.0006  3.0003
   56RES   H17915689   7.136   5.911   3.883  0.7474 -0.1713  1.2556
   56RES   H18015690   7.180   5.749   3.902 -2.8985 -1.7133  3.9327
   56RES   H18115691   7.262   5.906   3.678 -0.1701  0.5190  1.8683
   56RES   H18215692   7.190   5.799   3.550 -1.4039  0.0534  0.7850
   56RES   H18315693   7.276   5.734   3.675  2.1184  2.4385  1.8219
   56RES   O18415694   6.892   5.932   3.956 -0.1209  0.2276 -0.3091
   56RES   C18515695   6.841   5.974   3.830  0.1144  0.9516 -0.7500
   56RES   C18615696   6.768   6.103   3.852  0.4833 -0.4888  1.0120
   56RES   C18715697   6.703   6.149   3.717 -0.1637 -0.6265  0.0394
   56RES   O18815698   6.587   6.078   3.686 -0.0017 -0.2392 -0.1706
   56RES   C18915699   6.530   6.122   3.563 -0.3304  0.1812  0.6082
   56RES   H19015700   6.778   5.893   3.793  1.6724 -0.2909 -0.7460
   56RES   H19115701   6.922   5.975   3.757 -0.2728 -2.1706 -1.2694
   56RES   H19215702   6.686   6.089   3.923 -0.8239  2.2997  0.1017
   56RES   H19315703   6.775   6.146   3.635  0.8427 -1.8127  0.9478
   56RES   H19415704   6.664   6.251   3.725 -1.7437 -1.1950 -0.1550
   56RES   H19515705   6.442   6.063   3.538 -0.1287  0.8970 -1.8591
   56RES   H19615706   6.498   6.226   3.566 -0.3513  0.2488 -1.3296
   56RES   H19715707   6.604   6.118   3.483  1.6671 -0.1154  2.4132
   56RES   O19815708   6.850   6.205   3.888 -0.6268  0.2443 -0.7163
   56RES   C19915709   6.913   6.203   4.017 -0.6881 -0.0275 -1.0608
   56RES   C20015710   6.952   6.349   4.065  0.3813  0.3302 -0.1106
   56RES   C20115711   7.005   6.350   4.212  0.3170 -0.0356  0.3905
   56RES   O20215712   7.099   6.444   4.249 -0.4125  0.0366  0.8522
   56RES   C20315713   7.159   6.436   4.380  0.6816 -0.0181  0.1951
   56RES   H20415714   7.009   6.155   3.999 -0.1376  0.8357 -0.4187
   56RES   H20515715   6.860   6.154   4.099  2.2471  0.6345  1.3154
   56RES   H20615716   7.023   6.396   3.997 -0.2017  1.3053 -0.0549
   56RES   H20715717   6.924   6.345   4.285 -0.4157  1.3804 -0.2946
   56RES   H20815718   7.061   6.257   4.219  2.8743  1.1891 -2.4235
   56RES   H20915719   7.197   6.335   4.396  4.6129  1.6228  1.9322
   56RES   H21015720   7.073   6.452   4.445  1.3029 -0.9073  1.2606
   56RES   H21115721   7.229   6.514   4.412  1.0863 -0.5863  0.7270
   56RES   O21215722   6.841   6.435   4.091 -0.0286 -0.4119 -0.4036
   56RES   C21315723   6.791   6.502   3.964  0.4809 -0.3623 -0.1559
   56RES   C21415724   6.654   6.580   4.003  1.0036 -0.5409 -0.8078
   56RES   C21515725   6.579   6.607   3.874 -0.0582  0.2667 -0.0218
   56RES   O21615726   6.508   6.494   3.815 -0.2204 -0.0180 -0.6737
   56RES   C21715727   6.461   6.515   3.685  0.2591 -0.0079  0.6539
   56RES   H21815728   6.761   6.418   3.901  0.3891  0.5729 -1.3606
   56RES   H21915729   6.873   6.557   3.920  2.0716 -2.1717  0.4648
   56RES   H22015730   6.595   6.523   4.074 -1.0405  0.6137 -1.5516
   56RES   H22115731   6.495   6.673   3.895 -0.3100 -0.3084  0.7963
   56RES   H22215732   6.637   6.647   3.791 -2.2148 -0.0222 -1.7305
   56RES   H22315733   6.413   6.426   3.644 -2.4169  1.6659  0.0377
   56RES   H22415734   6.536   6.557   3.619 -0.6882  0.8179  0.0828
   56RES   H22515735   6.386   6.594   3.695  0.4241 -0.2769  5.5264
   56RES   O22615736   6.684   6.704   4.062 -0.0092  0.3285  0.1937
   56RES   C22715737   6.732   6.698   4.190  0.0113  0.4669  0.4219
   56RES   C22815738   6.739   6.837   4.260 -0.5152 -0.4358 -0.5882
   56RES   C22915739   6.808   6.951   4.180  0.0636  0.0922  0.6225
   56RES   O23015740   6.898   7.023   4.263  0.2776 -0.5085 -0.0884
   56RES   C23115741   6.974   7.121   4.190 -0.2069  0.0653  0.3953
   56RES   H23215742   6.832   6.657   4.180 -0.4410 -0.5661  0.1160
   56RES   H23315743   6.659   6.640   4.247  0.4061 -1.2152 -0.7588
   56RES   H23415744   6.791   6.838   4.356  0.9803  1.2718 -1.3805
   56RES   H23515745   6.739   7.026   4.142  0.6933  0.4974  0.2559
   56RES   H23615746   6.866   6.909   4.097  0.4855  1.7404  0.0744
   56RES   H23715747   7.044   7.173   4.255  0.1429 -2.2648  1.9438
   56RES   H23815748   6.909   7.201   4.155  1.0041  1.0704  0.3980
   56RES   H23915749   7.032   7.074   4.110  0.4600  2.8406 -0.8201
   56RES   O24015750   6.610   6.880   4.287  0.3374 -0.6165  0.1330
   56RES   C24115751   6.547   6.830   4.409 -0.4518 -0.2498 -0.1810
   56RES   C24215752   6.424   6.750   4.380  0.2779  0.1415  0.1787
   56RES   C24315753   6.371   6.752   4.232 -0.0816  0.2669  0.1671
   56RES   O24415754   6.248   6.686   4.218  0.1412  0.1670 -0.3432
   56RES   C24515755   6.204   6.675   4.081 -0.4924  0.6390 -0.7317
   56RES   H24615756   6.520   6.907   4.482 -0.3068 -0.4987  0.1370
   56RES   H24715757   6.612   6.771   4.473  0.2753 -0.0126 -0.7057
   56RES   H24815758   6.345   6.781   4.447 -1.1312  0.8386 -1.7621
   56RES   H24915759   6.360   6.855   4.199 -0.5191  0.1916  0.0754
   56RES   H25015760   6.446   6.700   4.172 -0.0130  0.0856  0.4116
   56RES   H25115761   6.188   6.778   4.051 -0.7808  1.0183  0.6904
   56RES   H25215762   6.113   6.617   4.066  0.2787 -0.6798 -0.3763
   56RES   H25315763   6.287   6.623   4.033  0.8526 -0.3804  2.5606
   56RES   O25415764   6.457   6.618   4.410  0.0332 -0.2126 -0.4939
   56RES   C25515765   6.356   6.524   4.446 -0.0869  0.7690  0.5469
   56RES   C25615766   6.430   6.384   4.462  0.4628  0.1277  0.7586
   56RES   C25715767   6.508   6.353   4.336 -0.2433  0.4922  0.4402
   56RES   O25815768   6.546   6.213   4.345  0.3928  0.0483 -0.0779
   56RES   C25915769   6.626   6.183   4.233 -0.6443 -0.3693  0.5284
   56RES   H26015770   6.301   6.545   4.537 -1.0234 -0.5888  0.3094
   56RES   H26115771   6.281   6.505   4.369 -3.1322  2.0163  3.1008
   56RES   H26215772   6.354   6.309   4.479 -0.2708  0.2072 -1.9078
   56RES   H26315773   6.452   6.379   4.246  0.5496  1.2892  0.1799
   56RES   H26415774   6.595   6.418   4.331  0.2414 -0.0805  1.3200
   56RES   H26515775   6.661   6.082   4.252 -1.6320 -0.8318 -0.0992
   56RES   H26615776   6.711   6.250   4.220 -1.5592  0.6521 -0.2583
   56RES   H26715777   6.554   6.183   4.152 -0.1101  1.5351  0.0215
   56RES   O26815778   6.508   6.391   4.582  0.2667  0.7835  0.0128
   56RES   C26915779   6.575   6.274   4.627 -0.1995 -0.1078 -0.0984
   56RES   C27015780   6.597   6.290   4.775 -0.3444  0.4625 -0.3603
   56RES   C27115781   6.659   6.158   4.842  0.0695 -0.3826  1.0785
   56RES   O27215782   6.800   6.162   4.852  0.3287  0.0583  0.4868
   56RES   C27315783   6.862   6.047   4.914  0.1655  0.1500 -0.1405
   56RES   H27415784   6.665   6.256   4.569 -0.9063 -3.0489 -0.3444
   56RES   H27515785   6.513   6.186   4.608  0.2505  0.1496 -2.9777
   56RES   H27615786   6.654   6.377   4.810 -0.6645 -0.1128  1.6603
   56RES   H27715787   6.643   6.067   4.785 -0.1869 -0.2354  0.9166
   56RES   H27815788   6.619   6.141   4.942 -0.2787 -1.8379  0.6919
   56RES   H27915789   6.838   6.055   5.019 -0.1698 -1.7887 -0.0488
   56RES   H28015790   6.971   6.055   4.903  0.0914 -1.3463 -2.2675
   56RES   H28115791   6.833   5.952   4.869  1.2518  0.5148 -1.6602
   56RES   H28215792   6.495   6.300   4.812 -0.9105 -1.4816 -1.3569
   57RES     O115793   7.289   2.511   4.483  0.0677 -0.0734 -0.4017
   57RES     C215794   7.391   2.460   4.568 -0.2618  0.1118  0.6052
   57RES     C315795   7.518   2.486   4.502  0.5955  0.0039 -0.4512
   57RES     C415796   7.634   2.480   4.597  0.3273 -0.6102  0.1008
   57RES     O515797   7.760   2.479   4.526  0.0141 -0.1822  0.0021
   57RES     C615798   0.054   2.461   4.608 -0.8427  0.1484  0.0165
   57RES     H715799   7.384   2.522   4.657  6.1247 -0.1727  1.5197
   57RES     H815800   7.382   2.357   4.604 -0.9523 -0.2328 -0.5339
   57RES     H915801   7.510   2.584   4.456  0.5877  0.3643  0.3023
   57RES    H1015802   7.643   2.399   4.669 -0.1226 -1.5388 -0.8894
   57RES    H1115803   7.649   2.563   4.667 -0.1123 -0.1215 -0.3792
   57RES    H1215804   0.055   2.544   4.679  0.6159  1.3721 -1.3918
   57RES    H1315805   0.063   2.366   4.660  2.7096  0.3689 -0.0281
   57RES    H1415806   0.144   2.474   4.548 -0.6625 -0.6886  0.1038
   57RES    H1515807   7.206   2.472   4.507 -1.2027  2.2319 -0.9171
   57RES    O1615808   7.534   2.373   4.410 -0.0900  0.1496 -0.0810
   57RES    C1715809   7.584   2.409   4.282 -0.5971  0.2615 -0.1919
   57RES    C1815810   7.623   2.286   4.199 -0.7293  0.0744  0.4415
   57RES    C1915811   7.710   2.193   4.297  0.2466  0.1925 -0.4739
   57RES    O2015812   7.787   2.097   4.221 -0.4361 -0.1413  0.8097
   57RES    C2115813   0.103   2.127   4.178  0.4657  0.0754  0.0770
   57RES    H2215814   7.668   2.479   4.289 -0.8437  0.4758  0.6129
   57RES    H2315815   7.509   2.471   4.232  0.2586  1.1805 -0.3532
   57RES    H2415816   7.687   2.314   4.115 -0.8686 -0.0872  0.2812
   57RES    H2515817   7.768   2.254   4.366  0.7182 -0.0036 -0.6946
   57RES    H2615818   7.634   2.133   4.347 -0.0172 -1.7470 -3.1154
   57RES    H2715819   0.159   2.186   4.250 -0.9049 -0.2962  1.4606
   57RES    H2815820   0.092   2.187   4.087 -0.3326 -0.9628 -0.5355
   57RES    H2915821   0.162   2.038   4.158  0.2985 -0.0452  0.1190
   57RES    O3015822   7.518   2.209   4.137 -0.3966  0.0872  0.3117
   57RES    C3115823   7.481   2.258   4.014 -0.1714 -0.1426  0.3766
   57RES    C3215824   7.341   2.213   3.979 -0.3341 -0.1874 -0.3062
   57RES    C3315825   7.291   2.243   3.838  0.4209  0.1329  0.3572
   57RES    O3415826   7.201   2.142   3.799 -0.5764 -0.8022  0.3019
   57RES    C3515827   7.127   2.171   3.677  0.1477 -0.7170 -0.2492
   57RES    H3615828   7.493   2.365   4.003  0.1585 -0.3035 -0.8824
   57RES    H3715829   7.535   2.204   3.936 -0.7896  2.4509 -1.9183
   57RES    H3815830   7.337   2.105   3.990  0.2371 -0.1338  0.4257
   57RES    H3915831   7.367   2.247   3.761  0.7777  0.3100  0.7181
   57RES    H4015832   7.251   2.345   3.840  2.1884  0.8544 -0.6089
   57RES    H4115833   7.176   2.137   3.585  1.6307 -1.5904  0.8528
   57RES    H4215834   7.092   2.274   3.668  0.9787 -0.5241 -1.4396
   57RES    H4315835   7.037   2.110   3.684  0.0264 -0.9506 -3.1168
   57RES    O4415836   7.256   2.282   4.071  1.0502  0.9467 -0.6985
   57RES    C4515837   7.200   2.193   4.167  0.1974  0.3257  0.8569
   57RES    C4615838   7.148   2.265   4.287  0.0427  0.2106  0.1991
   57RES    C4715839   7.040   2.364   4.250  0.6323  0.0900 -0.1880
   57RES    O4815840   7.011   2.431   4.379 -0.6658 -0.2681 -0.0979
   57RES    C4915841   6.887   2.506   4.372  0.1140 -0.3283 -0.6019
   57RES    H5015842   7.278   2.126   4.201 -0.2445  0.4733  2.1822
   57RES    H5115843   7.120   2.134   4.122  0.5498  1.6651 -1.6377
   57RES    H5215844   7.235   2.309   4.334  0.0567  0.5070 -0.1014
   57RES    H5315845   7.067   2.438   4.175  2.6623  2.5275  2.8021
   57RES    H5415846   6.948   2.318   4.215  1.0064 -1.5418  0.9183
   57RES    H5515847   6.799   2.444   4.388 -0.9538  0.7936 -2.0674
   57RES    H5615848   6.880   2.552   4.274  0.6494  0.8268 -0.1132
   57RES    H5715849   6.890   2.578   4.454 -2.1857 -1.3484  0.4070
   57RES    O5815850   7.094   2.162   4.368 -0.2742  0.4038 -0.1994
   57RES    C5915851   7.089   2.187   4.510  0.5237  0.6629  0.2013
   57RES    C6015852   7.073   2.060   4.595  0.8534 -0.1302  0.1607
   57RES    C6115853   6.954   2.050   4.691  0.5852  0.3317  0.4367
   57RES    O6215854   6.962   2.142   4.797 -0.0403  0.3121  0.0718
   57RES    C6315855   6.871   2.118   4.900 -0.0661 -0.1125 -0.0302
   57RES    H6415856   6.995   2.235   4.536  0.1237  0.0196 -0.0351
   57RES    H6515857   7.162   2.255   4.553 -0.5179  0.8346  1.7207
   57RES    H6615858   7.058   1.983   4.520 -1.1801  2.2975 -2.0307
   57RES    H6715859   6.865   2.077   4.633  1.0346 -2.7418 -1.7853
   57RES    H6815860   6.945   1.948   4.728  0.1594 -1.4660 -4.2857
   57RES    H6915861   6.777   2.079   4.863 -0.7603  1.1172  0.3924
   57RES    H7015862   6.843   2.210   4.951 -0.6634 -0.6867  0.6842
   57RES    H7115863   6.913   2.051   4.975 -1.3035 -0.3532  0.4651
   57RES    O7215864   7.194   2.029   4.663 -0.1546 -0.1896  0.7039
   57RES    C7315865   7.310   2.021   4.576  0.6921 -0.0970 -0.6603
   57RES    C7415866   7.422   1.963   4.666 -0.3616 -0.8045  0.2360
   57RES    C7515867   7.559   2.007   4.608 -0.8797 -0.4043 -0.3979
   57RES    O7615868   7.667   1.954   4.681  0.2908  0.4121 -0.2059
   57RES    C7715869   7.793   2.018   4.663  0.0323 -0.0746  0.2472
   57RES    H7815870   7.300   1.960   4.486  1.6121  1.7552 -2.0460
   57RES    H7915871   7.344   2.120   4.545  0.5621 -0.4751 -2.0740
   57RES    H8015872   7.427   2.006   4.766  0.6519 -0.4547  0.0442
   57RES    H8115873   7.568   2.115   4.605  0.2375 -0.5173 -1.6945
   57RES    H8215874   7.565   1.961   4.509 -0.9939 -0.1520 -0.5217
   57RES    H8315875   0.050   1.974   4.729  1.1147 -1.1584 -1.6273
   57RES    H8415876   7.793   2.127   4.669 -0.8818  0.1280 -2.3966
   57RES    H8515877   0.023   1.992   4.568  1.0103  0.2777  0.6371
   57RES    O8615878   7.405   1.821   4.673  0.2931 -0.4162  0.2746
   57RES    C8715879   7.376   1.771   4.810  0.3484  0.4592  0.0368
   57RES    C8815880   7.312   1.629   4.802  0.1546 -0.2530  0.4926
   57RES    C8915881   7.231   1.603   4.929  0.3359  0.5761  0.8031
   57RES    O9015882   7.197   1.468   4.936  0.2609 -1.0598 -0.4116
   57RES    C9115883   7.142   1.430   5.063 -0.1270  0.1815  0.0475
   57RES    H9215884   7.464   1.775   4.875  1.0318 -0.6639 -0.7939
   57RES    H9315885   7.302   1.840   4.851 -0.3657 -1.2470  1.6743
   57RES    H9415886   7.389   1.552   4.797  0.1776 -0.1207 -1.5913
   57RES    H9515887   7.300   1.616   5.012 -0.0401 -0.2327  1.2514
   57RES    H9615888   7.145   1.671   4.934  0.8328  1.2594  0.1319
   57RES    H9715889   7.129   1.322   5.068  2.4754 -0.2058 -0.7044
   57RES    H9815890   7.205   1.461   5.147 -0.0753 -1.3743  0.5975
   57RES    H9915891   7.044   1.476   5.077 -0.8253 -0.4101 -2.6839
   57RES   O10015892   7.228   1.615   4.694 -0.1832 -0.6138 -0.3365
   57RES   C10115893   7.256   1.501   4.613  0.0506  0.2242  0.1457
   57RES   C10215894   7.150   1.492   4.501  0.2717  0.0069 -0.6309
   57RES   C10315895   7.138   1.350   4.448 -0.3510 -0.3073  0.3614
   57RES   O10415896   7.268   1.284   4.438 -0.0368  0.0155 -0.1927
   57RES   C10515897   7.349   1.322   4.327  0.4785 -0.0919 -0.2490
   57RES   H10615898   7.252   1.413   4.676 -2.0576  0.7442  0.7774
   57RES   H10715899   7.356   1.510   4.571 -0.4256  2.0875 -0.6931
   57RES   H10815900   7.051   1.516   4.541  0.7711  0.0075  0.6023
   57RES   H10915901   7.084   1.328   4.356  0.1049  0.6481 -0.1374
   57RES   H11015902   7.098   1.289   4.529 -0.5124 -1.8993 -0.9057
   57RES   H11115903   7.370   1.428   4.315  0.2673 -0.0028  0.1613
   57RES   H11215904   7.303   1.293   4.233  0.0855  0.1311 -0.1247
   57RES   H11315905   7.449   1.279   4.337  0.9645  1.2279  0.8087
   57RES   O11415906   7.171   1.559   4.377  0.0848  0.0982 -0.6504
   57RES   C11515907   7.143   1.698   4.380 -0.0047  0.7260  0.0988
   57RES   C11615908   7.202   1.775   4.262  0.4127 -0.4945  0.6853
   57RES   C11715909   7.347   1.753   4.242 -0.4149 -0.2576 -0.2368
   57RES   O11815910   7.399   1.860   4.163 -0.6083 -0.0675  0.3811
   57RES   C11915911   7.544   1.878   4.189  0.2532 -0.2805  0.4406
   57RES   H12015912   7.035   1.713   4.385  0.2206  2.6471 -0.6438
   57RES   H12115913   7.171   1.749   4.472  1.7367 -0.6011  0.3433
   57RES   H12215914   7.183   1.881   4.274  0.1735 -0.2486 -1.7075
   57RES   H12315915   7.394   1.747   4.340  0.4425 -2.0924 -0.7369
   57RES   H12415916   7.360   1.652   4.203 -1.4175 -0.7524  0.7260
   57RES   H12515917   7.566   1.913   4.289 -2.4903  3.2374 -0.0642
   57RES   H12615918   7.589   1.943   4.114 -0.0475 -0.9065 -0.2946
   57RES   H12715919   7.593   1.781   4.201 -0.6925 -0.6373  1.5042
   57RES   O12815920   7.130   1.730   4.153  0.7163  0.0858  0.3073
   57RES   C12915921   7.127   1.807   4.032 -0.3259 -0.4713 -0.4394
   57RES   C13015922   6.983   1.836   4.012 -0.0700 -0.2940 -0.4124
   57RES   C13115923   6.957   1.932   3.890  0.2788  1.1028 -0.0085
   57RES   O13215924   6.823   1.929   3.841  0.5749  0.1757  0.0345
   57RES   C13315925   6.805   1.814   3.754 -0.6161 -0.6739  0.0577
   57RES   H13415926   7.186   1.898   4.043  2.5083 -2.1079 -1.6581
   57RES   H13515927   7.170   1.753   3.949  0.1618  0.8343 -1.0493
   57RES   H13615928   6.934   1.740   3.996  0.9119 -0.8254 -0.2651
   57RES   H13715929   7.023   1.895   3.811 -0.9849  0.3492 -0.7302
   57RES   H13815930   6.982   2.034   3.918 -0.8172  1.4279 -0.1900
   57RES   H13915931   6.698   1.824   3.732 -0.7139  0.6770  1.0517
   57RES   H14015932   6.854   1.824   3.657  1.3452 -1.6919  0.9152
   57RES   H14115933   6.826   1.720   3.805  1.6042 -1.1879 -1.7313
   57RES   O14215934   6.927   1.902   4.124 -0.6500 -0.1134 -0.3653
   57RES   C14315935   6.840   1.812   4.185  0.1366 -0.2209  0.2182
   57RES   C14415936   6.789   1.875   4.326 -0.7898  0.4367  0.7173
   57RES   C14515937   6.728   1.766   4.413 -0.2841  0.3216 -0.1425
   57RES   O14615938   6.632   1.686   4.337 -0.1984  0.7905  0.5077
   57RES   C14715939   6.537   1.609   4.409 -0.3607 -0.8577  0.8967
   57RES   H14815940   6.761   1.782   4.117 -0.9702  0.6001  1.1185
   57RES   H14915941   6.899   1.722   4.203  1.4508  0.8020  1.2113
   57RES   H15015942   6.868   1.935   4.371 -1.1848  1.0573  0.5832
   57RES   H15115943   6.687   1.806   4.505  0.3050 -1.1575  0.7862
   57RES   H15215944   6.807   1.700   4.449 -0.3337  1.6493  2.5239
   57RES   H15315945   6.453   1.585   4.344 -1.9046  1.7467  1.8605
   57RES   H15415946   6.497   1.669   4.490 -3.6564  0.9101 -1.8839
   57RES   H15515947   6.568   1.520   4.463 -1.7621 -0.1537  2.9006
   57RES   O15615948   6.683   1.974   4.315 -0.1394  0.6099 -0.2100
   57RES   C15715949   6.720   2.099   4.258  0.7731 -0.1581 -0.1231
   57RES   C15815950   6.612   2.199   4.281 -0.0995  0.7052  0.0527
   57RES   C15915951   6.611   2.303   4.182 -0.0289 -0.7194  0.0143
   57RES   O16015952   6.479   2.367   4.154 -0.0920 -0.3031 -0.4321
   57RES   C16115953   6.454   2.466   4.252  0.0199 -0.1495 -0.1787
   57RES   H16215954   6.818   2.138   4.286  0.9322  1.4518 -2.6615
   57RES   H16315955   6.731   2.084   4.150 -0.8539 -2.5331  0.0268
   57RES   H16415956   6.511   2.160   4.279  1.1580 -2.7416 -0.0919
   57RES   H16515957   6.689   2.377   4.199 -1.5576  0.6235  1.3316
   57RES   H16615958   6.623   2.257   4.084  0.5926 -0.0866 -0.2116
   57RES   H16715959   6.422   2.430   4.349 -0.6642 -0.2776 -0.4505
   57RES   H16815960   6.366   2.510   4.207 -1.4635 -3.9513 -1.2335
   57RES   H16915961   6.536   2.534   4.274  0.0512 -0.7697  1.7168
   57RES   O17015962   6.627   2.256   4.409 -0.1550  0.2877  0.0476
   57RES   C17115963   6.560   2.181   4.508  0.0951 -0.8109  0.8533
   57RES   C17215964   6.581   2.241   4.651 -0.1618  0.6845  0.3924
   57RES   C17315965   6.489   2.170   4.757  0.4173 -0.4526 -0.0638
   57RES   O17415966   6.531   2.190   4.887 -0.2128  0.1385 -0.4710
   57RES   C17515967   6.461   2.115   4.985 -0.7596 -0.0152  0.2956
   57RES   H17615968   6.597   2.079   4.519  1.3936 -0.6146 -1.5892
   57RES   H17715969   6.453   2.186   4.488  0.3650  1.9269 -0.1150
   57RES   H17815970   6.687   2.231   4.674  0.4672 -0.0786 -2.6205
   57RES   H17915971   6.392   2.219   4.751  1.0396  0.5357 -2.3937
   57RES   H18015972   6.487   2.066   4.726  2.0364 -0.2091 -0.9877
   57RES   H18115973   6.485   2.008   4.983 -0.0469  0.1578 -0.4763
   57RES   H18215974   6.352   2.116   4.973 -0.8042  3.4660  0.5620
   57RES   H18315975   6.496   2.158   5.079  0.6857 -0.3040 -0.1105
   57RES   O18415976   6.530   2.378   4.656  0.1846 -0.0005 -0.1225
   57RES   C18515977   6.568   2.449   4.774  0.0512 -0.6666 -0.0546
   57RES   C18615978   6.585   2.603   4.742 -0.2595 -0.1899 -0.2776
   57RES   C18715979   6.651   2.676   4.860 -0.0821 -0.4808 -0.6112
   57RES   O18815980   6.689   2.804   4.817  0.3257 -0.1793 -0.0399
   57RES   C18915981   6.724   2.888   4.924  0.0323  0.0022 -0.7128
   57RES   H19015982   6.667   2.416   4.804  0.5753 -0.8034 -1.8400
   57RES   H19115983   6.494   2.429   4.851 -0.6943  0.1068 -0.5522
   57RES   H19215984   6.645   2.620   4.652 -1.4614  1.2398 -0.8233
   57RES   H19315985   6.741   2.628   4.896 -1.2644 -1.2411  1.3803
   57RES   H19415986   6.576   2.679   4.939  0.3687 -1.0815 -0.1568
   57RES   H19515987   6.769   2.980   4.888  0.9507  0.0543  0.5370
   57RES   H19615988   6.642   2.917   4.990 -0.0042 -3.2673  0.8004
   57RES   H19715989   6.803   2.844   4.985  0.7241 -0.8327 -2.1824
   57RES   O19815990   6.463   2.673   4.728 -0.1388  0.2371  0.1825
   57RES   C19915991   6.386   2.651   4.617  0.1467  0.4187  0.7357
   57RES   C20015992   6.280   2.766   4.612  0.6226 -0.3139  0.1932
   57RES   C20115993   6.167   2.733   4.502  0.1677 -0.5305  0.0630
   57RES   O20215994   6.071   2.840   4.507 -0.0779  0.3647 -0.3737
   57RES   C20315995   5.999   2.847   4.386 -0.5328  0.5057 -0.0755
   57RES   H20415996   6.329   2.558   4.624 -0.4067  0.7313  0.4913
   57RES   H20515997   6.454   2.651   4.533 -0.8947 -0.0131 -0.1217
   57RES   H20615998   6.242   2.783   4.712 -2.4157  0.4204 -1.0190
   57RES   H20715999   6.221   2.739   4.407 -1.0706 -1.6124 -0.7289
   57RES   H20816000   6.119   2.635   4.503 -0.6707 -0.1208  1.6727
   57RES   H20916001   5.937   2.936   4.377  1.4117  1.9898  0.8437
   57RES   H21016002   5.931   2.765   4.366  1.8433 -1.4833 -0.2894
   57RES   H21116003   6.071   2.858   4.305  0.2977 -1.3521  0.3637
   57RES   O21216004   6.343   2.881   4.566 -0.3152 -0.2245  0.3033
   57RES   C21316005   6.389   2.968   4.665  0.3038 -0.2212 -0.2064
   57RES   C21416006   6.444   3.092   4.600 -0.0491 -0.1688  0.8256
   57RES   C21516007   6.559   3.151   4.674  0.5804 -0.1997 -0.0354
   57RES   O21616008   6.628   3.246   4.588 -0.1323 -0.1504  0.0737
   57RES   C21716009   6.744   3.296   4.643 -0.4942  0.0500 -0.0676
   57RES   H21816010   6.464   2.908   4.716  0.5952 -1.5603 -2.1294
   57RES   H21916011   6.313   2.993   4.739 -0.2613 -3.0780  0.2658
   57RES   H22016012   6.490   3.048   4.512 -0.0375  0.0062  0.7427
   57RES   H22116013   6.534   3.211   4.762 -1.4187 -0.6180 -0.2927
   57RES   H22216014   6.628   3.074   4.710 -2.7473 -3.3728 -0.2321
   57RES   H22316015   6.737   3.353   4.735 -0.2185 -0.2620  0.1482
   57RES   H22416016   6.805   3.352   4.572 -1.1410  1.8541  0.7721
   57RES   H22516017   6.809   3.210   4.661  1.7457  1.8201  0.5826
   57RES   O22616018   6.352   3.198   4.573 -0.3844  0.2520 -1.0086
   57RES   C22716019   6.246   3.148   4.488  0.6433 -0.0679  0.0280
   57RES   C22816020   6.167   3.257   4.410  0.1395  0.0763 -0.1255
   57RES   C22916021   6.076   3.187   4.307  0.0589 -0.3962  1.0614
   57RES   O23016022   6.029   3.275   4.209 -0.1772  0.2395  0.0291
   57RES   C23116023   5.923   3.219   4.130  0.2681 -0.4533  0.2077
   57RES   H23216024   6.165   3.105   4.546  1.1636 -0.0424  0.7897
   57RES   H23316025   6.287   3.080   4.413  5.0644  2.1885  0.2382
   57RES   H23416026   6.243   3.318   4.361  0.4547  0.0902  0.3773
   57RES   H23516027   5.985   3.149   4.354 -0.9276  1.0786  0.3811
   57RES   H23616028   6.128   3.107   4.255 -0.3771  0.1421 -0.2234
   57RES   H23716029   5.835   3.203   4.192  0.6176  2.7294  1.5673
   57RES   H23816030   5.947   3.120   4.089  1.7152 -0.9450  2.1526
   57RES   H23916031   5.897   3.291   4.052  0.8027  0.3450  0.7652
   57RES   O24016032   6.088   3.337   4.489 -0.2146 -0.2691  0.1108
   57RES   C24116033   6.081   3.468   4.441 -0.3078 -0.2385  0.9849
   57RES   C24216034   5.955   3.522   4.502 -0.2564 -0.2674 -0.2038
   57RES   C24316035   5.933   3.664   4.444  0.1681  0.8506  0.0371
   57RES   O24416036   6.043   3.745   4.471  0.2491 -0.1197  0.0873
   57RES   C24516037   6.038   3.872   4.405  0.2536 -0.2045 -0.5246
   57RES   H24616038   6.093   3.484   4.334 -0.6200 -2.1875  0.6312
   57RES   H24716039   6.170   3.509   4.490 -1.0963  2.5899  0.0883
   57RES   H24816040   5.959   3.522   4.611  1.0758  0.1712 -0.2424
   57RES   H24916041   5.914   3.650   4.338  0.5935 -0.6075  0.1381
   57RES   H25016042   5.851   3.723   4.485 -0.8864 -1.0565  0.7649
   57RES   H25116043   6.002   3.850   4.305 -0.4750  0.9310 -0.5146
   57RES   H25216044   6.138   3.916   4.394  0.4965 -0.7289 -0.4359
   57RES   H25316045   5.978   3.939   4.467  0.3513 -2.0226  1.5968
   57RES   O25416046   5.844   3.443   4.451  0.0615 -0.6023 -0.4004
   57RES   C25516047   5.801   3.343   4.543  0.3213 -0.0341  0.0475
   57RES   C25616048   5.669   3.375   4.621  0.7426 -0.0331  0.0355
   57RES   C25716049   5.688   3.483   4.733  0.0781 -0.4768  0.3462
   57RES   O25816050   5.564   3.534   4.787  0.1273 -0.4092 -0.3284
   57RES   C25916051   5.582   3.615   4.900  0.1257  0.3848  0.3160
   57RES   H26016052   5.781   3.250   4.489 -1.2331 -1.0083  2.2225
   57RES   H26116053   5.877   3.320   4.617  0.0005 -1.2023  0.0264
   57RES   H26216054   5.636   3.282   4.667  1.5100  0.1102  0.9029
   57RES   H26316055   5.756   3.440   4.806  0.8662 -0.9547 -0.6635
   57RES   H26416056   5.750   3.566   4.698  0.2502  0.9227  3.7803
   57RES   H26516057   5.623   3.712   4.873 -0.2327  0.2257 -0.8140
   57RES   H26616058   5.638   3.566   4.980 -1.0402  1.3486  1.7384
   57RES   H26716059   5.488   3.651   4.941 -0.3429 -0.9341  0.4147
   57RES   O26816060   5.579   3.412   4.520  0.1369 -0.2362  0.1142
   57RES   C26916061   5.440   3.377   4.535 -0.0056 -0.5694  0.0555
   57RES   C27016062   5.362   3.465   4.431  0.3679  0.0534  0.0731
   57RES   C27116063   5.213   3.459   4.450  0.6541 -0.2515 -0.4683
   57RES   O27216064   5.135   3.552   4.377 -0.1383 -0.4013  0.1703
   57RES   C27316065   5.148   3.537   4.235  0.6513  0.2448 -0.1363
   57RES   H27416066   5.415   3.411   4.636 -1.7942  1.0737 -0.8905
   57RES   H27516067   5.424   3.269   4.529 -3.8618 -0.0579 -0.7466
   57RES   H27616068   5.383   3.570   4.452  1.9893  0.2844 -2.4009
   57RES   H27716069   5.200   3.483   4.555  0.1005  1.9509 -1.0151
   57RES   H27816070   5.178   3.356   4.439 -0.4810  0.2230 -1.4284
   57RES   H27916071   5.085   3.601   4.173 -1.1397  0.1350  1.5290
   57RES   H28016072   5.121   3.434   4.214 -1.7348  0.7023  0.5308
   57RES   H28116073   5.247   3.549   4.190  1.5632 -1.0934  1.4658
   57RES   H28216074   5.387   3.445   4.326  0.3616  0.1387  0.0556
   58RES     O116075   3.793   1.594   6.718 -0.4841  0.3945 -0.1580
   58RES     C216076   3.909   1.570   6.794 -0.3408 -0.2653  0.1429
   58RES     C316077   4.028   1.563   6.695  0.3912 -0.1715  0.9299
   58RES     C416078   4.169   1.564   6.763 -0.2917 -0.4502  0.1652
   58RES     O516079   4.268   1.582   6.674  0.0927  0.1160 -0.1502
   58RES     C616080   4.398   1.593   6.737 -0.0512 -0.3997  0.6309
   58RES     H716081   3.933   1.655   6.858  0.2478  0.3282 -0.8551
   58RES     H816082   3.900   1.475   6.847  0.2226  0.5901  1.7968
   58RES     H916083   4.020   1.651   6.632 -0.2944 -0.3568  0.7517
   58RES    H1016084   4.192   1.472   6.817 -1.0991 -1.0162 -0.4464
   58RES    H1116085   4.171   1.640   6.842  0.4238  0.4194 -0.6789
   58RES    H1216086   4.398   1.655   6.827 -0.3807 -0.5525  0.7387
   58RES    H1316087   4.436   1.493   6.759  1.5083  0.1257  0.3671
   58RES    H1416088   4.471   1.633   6.667 -0.2403  0.6689  1.0368
   58RES    H1516089   3.806   1.533   6.646 -1.5659  0.7054 -0.6287
   58RES    O1616090   3.992   1.449   6.618  0.4047  0.1127 -0.2968
   58RES    C1716091   4.040   1.451   6.486 -0.0044 -0.4108 -0.6694
   58RES    C1816092   3.989   1.328   6.423 -0.2854  0.1282  0.4537
   58RES    C1916093   4.016   1.196   6.485 -1.0034 -0.1604 -0.0798
   58RES    O2016094   3.987   1.088   6.398 -0.0772  0.1690 -0.2572
   58RES    C2116095   3.866   1.019   6.426  0.2189  0.1230  0.7095
   58RES    H2216096   4.149   1.458   6.497 -0.3675  2.9509  1.3998
   58RES    H2316097   4.013   1.537   6.426 -0.7263 -0.6394 -0.6733
   58RES    H2416098   4.044   1.343   6.330 -1.0126 -0.7496 -0.1263
   58RES    H2516099   4.124   1.197   6.499 -0.5779 -3.0385 -2.5801
   58RES    H2616100   3.976   1.186   6.586 -2.7283 -1.5169 -0.8863
   58RES    H2716101   3.868   0.994   6.532 -2.6681 -1.1468  0.4875
   58RES    H2816102   3.873   0.933   6.359  0.5742  1.1165 -0.5494
   58RES    H2916103   3.778   1.073   6.392  0.3274  0.0183  0.2531
   58RES    O3016104   3.840   1.328   6.406  0.9661 -0.6391 -0.7282
   58RES    C3116105   3.790   1.361   6.273 -0.2268  0.4068  0.3514
   58RES    C3216106   3.646   1.407   6.288  0.6537 -0.8390  0.1787
   58RES    C3316107   3.569   1.440   6.160  0.1618 -0.0245 -0.7007
   58RES    O3416108   3.630   1.523   6.064  0.4492  0.4110  0.4298
   58RES    C3516109   3.592   1.490   5.927  0.2685 -0.4747 -0.3907
   58RES    H3616110   3.850   1.445   6.238  0.7685 -0.7781 -0.8564
   58RES    H3716111   3.799   1.269   6.215  1.7093  0.3935  0.6523
   58RES    H3816112   3.599   1.325   6.342  1.0824 -0.7911  0.6275
   58RES    H3916113   3.476   1.490   6.187 -0.6865 -1.4269 -0.9912
   58RES    H4016114   3.551   1.343   6.113 -1.7449 -0.3790  0.7077
   58RES    H4116115   3.484   1.494   5.912  0.1090  0.1858  0.8979
   58RES    H4216116   3.621   1.388   5.901  1.0550 -0.7755  1.5955
   58RES    H4316117   3.640   1.561   5.859  0.3830  0.7302  0.9301
   58RES    O4416118   3.637   1.514   6.384  0.1127  0.2542 -0.2003
   58RES    C4516119   3.670   1.643   6.340 -0.1432 -0.0271  0.5656
   58RES    C4616120   3.624   1.734   6.453 -0.3496  0.0970  0.2780
   58RES    C4716121   3.663   1.876   6.431  0.8679 -0.4010 -0.2506
   58RES    O4816122   3.622   1.929   6.302 -0.1426 -0.4166 -0.1285
   58RES    C4916123   3.489   1.979   6.309  0.8226 -0.2016 -0.3994
   58RES    H5016124   3.606   1.667   6.255 -1.6403 -0.0871  1.6586
   58RES    H5116125   3.776   1.653   6.319 -0.5257  1.5262 -0.7553
   58RES    H5216126   3.687   1.722   6.541  1.0444 -0.5220 -0.7744
   58RES    H5316127   3.626   1.934   6.516  1.5594 -0.0589 -0.1821
   58RES    H5416128   3.770   1.891   6.438  1.0315  0.5455 -4.1430
   58RES    H5516129   3.468   2.047   6.227 -1.4851 -1.0066 -0.5156
   58RES    H5616130   3.468   2.033   6.402  2.3288 -1.3339  0.6235
   58RES    H5716131   3.407   1.910   6.293  1.5889 -1.5644  1.3853
   58RES    O5816132   3.484   1.722   6.472  0.6963  0.6141  0.1101
   58RES    C5916133   3.455   1.684   6.610 -0.3649 -0.3756 -0.0771
   58RES    C6016134   3.308   1.650   6.624  0.0643  0.5733 -0.0273
   58RES    C6116135   3.255   1.670   6.767  0.2925  0.0120  0.0473
   58RES    O6216136   3.114   1.680   6.769 -0.1731 -0.0655 -0.1664
   58RES    C6316137   3.059   1.760   6.876  0.3059  0.3791 -0.1465
   58RES    H6416138   3.484   1.769   6.672  1.2320  0.3749 -1.8317
   58RES    H6516139   3.520   1.613   6.660 -0.2897 -0.2982 -0.0655
   58RES    H6616140   3.251   1.711   6.554 -1.2290  0.5926  1.0122
   58RES    H6716141   3.289   1.584   6.825  1.0804  0.0932 -0.2879
   58RES    H6816142   3.307   1.754   6.812  0.6210 -1.1553  1.8962
   58RES    H6916143   3.090   1.865   6.872 -1.3864  0.9088  0.3068
   58RES    H7016144   3.082   1.717   6.973  2.5118 -0.6113 -1.0645
   58RES    H7116145   2.952   1.761   6.860  0.5898 -2.2759 -2.6165
   58RES    O7216146   3.294   1.515   6.585  0.3769 -0.0526 -0.0831
   58RES    C7316147   3.223   1.516   6.467  0.0839  0.2062 -0.2354
   58RES    C7416148   3.230   1.372   6.417  0.2158  0.2795 -0.0500
   58RES    C7516149   3.212   1.362   6.264  0.0371  0.0447  0.1638
   58RES    O7616150   3.243   1.232   6.210 -0.2197  0.6097 -0.0629
   58RES    C7716151   3.220   1.214   6.073 -0.1281  0.7674 -0.1760
   58RES    H7816152   3.121   1.550   6.485 -0.2095 -0.3208 -0.8437
   58RES    H7916153   3.263   1.576   6.385  0.0276 -0.4196 -0.7263
   58RES    H8016154   3.327   1.335   6.450  0.2460  0.8893  0.5622
   58RES    H8116155   3.274   1.444   6.229 -1.2727  1.2054  0.5044
   58RES    H8216156   3.111   1.379   6.224  0.8759  1.5076 -1.4103
   58RES    H8316157   3.232   1.111   6.040 -3.8759  0.6696 -1.3892
   58RES    H8416158   3.286   1.274   6.011  0.4612  0.3215  0.0069
   58RES    H8516159   3.122   1.253   6.049 -1.8384 -1.9307  2.0900
   58RES    O8616160   3.120   1.300   6.466 -0.1471  0.0939 -0.0812
   58RES    C8716161   3.147   1.224   6.582  0.3239 -0.4935  0.2302
   58RES    C8816162   3.178   1.079   6.550  0.2614 -0.6338 -0.3267
   58RES    C8916163   3.182   0.995   6.681 -0.0233  0.5029 -0.0424
   58RES    O9016164   3.258   0.881   6.663  0.1552 -0.0214  0.7980
   58RES    C9116165   3.226   0.768   6.741  0.1359  0.1863 -0.1828
   58RES    H9216166   3.231   1.261   6.640 -0.0120 -3.4484  2.6982
   58RES    H9316167   3.053   1.241   6.635  0.5118 -1.0244  0.7387
   58RES    H9416168   3.267   1.071   6.488  0.1758 -2.0972 -0.2803
   58RES    H9516169   3.234   1.056   6.755  1.6808 -0.8372 -0.1150
   58RES    H9616170   3.085   0.967   6.723 -0.2891  3.0348  1.1293
   58RES    H9716171   3.262   0.802   6.838  1.2303 -3.1402  0.6432
   58RES    H9816172   3.118   0.761   6.727 -0.0489  1.8166  0.2312
   58RES    H9916173   3.276   0.683   6.695  1.1922  0.8718 -0.3084
   58RES   O10016174   3.063   1.037   6.475 -0.2538 -1.0470 -0.6756
   58RES   C10116175   3.076   0.925   6.399 -0.3278  0.2948 -0.5885
   58RES   C10216176   2.945   0.906   6.316 -0.0133  0.3418  0.1105
   58RES   C10316177   2.810   0.904   6.401  0.2863 -0.6747 -0.0444
   58RES   O10416178   2.693   0.900   6.314  0.4555  0.4297  0.6261
   58RES   C10516179   2.577   0.903   6.392 -0.4174 -0.0599 -0.6796
   58RES   H10616180   3.101   0.840   6.463  0.9470 -0.0210 -1.4847
   58RES   H10716181   3.157   0.936   6.327  0.2953  0.3834  0.1199
   58RES   H10816182   2.950   0.990   6.247 -1.1848 -1.8901 -2.7872
   58RES   H10916183   2.804   0.996   6.458 -3.3934 -1.2523  0.6000
   58RES   H11016184   2.819   0.819   6.469 -0.2778 -1.1108 -0.5057
   58RES   H11116185   2.572   0.825   6.468 -0.5168  0.1537 -0.4641
   58RES   H11216186   2.485   0.899   6.334 -1.2788  0.8577  0.5867
   58RES   H11316187   2.566   0.999   6.444 -1.3420 -0.0452 -0.8969
   58RES   O11416188   2.953   0.787   6.234  0.0272  0.0289 -0.0623
   58RES   C11516189   2.851   0.780   6.129 -0.0835 -0.0896 -0.2957
   58RES   C11616190   2.908   0.717   6.006  0.5063  0.0210  0.4758
   58RES   C11716191   2.795   0.688   5.901 -0.2685 -0.7292  1.1654
   58RES   O11816192   2.850   0.613   5.791  0.2922 -0.4375  0.3598
   58RES   C11916193   2.737   0.564   5.716 -0.2711 -0.2878 -0.2756
   58RES   H12016194   2.768   0.720   6.166  1.5405 -1.0278  1.9442
   58RES   H12116195   2.807   0.874   6.097 -0.1536  0.6071  1.7432
   58RES   H12216196   2.932   0.614   6.033 -0.4772 -0.4720 -0.4813
   58RES   H12316197   2.714   0.631   5.946 -0.5194 -0.7822  0.6459
   58RES   H12416198   2.752   0.785   5.877  1.9308 -0.3137 -1.3873
   58RES   H12516199   2.786   0.525   5.627  1.9756 -1.2616  1.3163
   58RES   H12616200   2.657   0.631   5.686  0.5877  0.7143 -0.3575
   58RES   H12716201   2.687   0.486   5.774  2.8300 -0.5008  2.2561
   58RES   O12816202   3.005   0.794   5.945 -0.2178 -0.0100 -0.2666
   58RES   C12916203   3.137   0.747   5.965 -0.1229  0.1707 -0.2193
   58RES   C13016204   3.177   0.657   5.844 -0.5079 -0.4320 -0.4176
   58RES   C13116205   3.163   0.509   5.868 -0.2537  0.6992 -0.0253
   58RES   O13216206   3.253   0.469   5.976 -0.1023  0.0148  0.4856
   58RES   C13316207   3.226   0.351   6.044 -0.3383 -0.8378 -0.4151
   58RES   H13416208   3.198   0.838   5.972  1.4078 -0.7959 -0.7450
   58RES   H13516209   3.166   0.704   6.061 -0.6420 -0.2440 -0.2457
   58RES   H13616210   3.100   0.666   5.767 -1.2148  2.4213  0.5437
   58RES   H13716211   3.200   0.453   5.782  1.7352  1.1391  0.5228
   58RES   H13816212   3.058   0.480   5.880 -0.2794  2.0388  3.4848
   58RES   H13916213   3.222   0.269   5.972  2.4181 -0.3915 -1.1382
   58RES   H14016214   3.290   0.325   6.129 -1.4356 -4.3130 -0.5678
   58RES   H14116215   3.126   0.352   6.087  0.3183 -0.6713  1.1284
   58RES   O14216216   3.298   0.677   5.766  0.2079 -0.5969 -0.4173
   58RES   C14316217   3.420   0.654   5.838 -0.3045  0.6338  0.4585
   58RES   C14416218   3.541   0.731   5.782  0.0831  0.1514 -0.2164
   58RES   C14516219   3.670   0.692   5.848  0.5479  0.0492  0.1430
   58RES   O14616220   3.779   0.725   5.757 -0.0157  0.3735 -0.2449
   58RES   C14716221   3.903   0.689   5.811 -0.1160 -0.1066  0.9096
   58RES   H14816222   3.407   0.681   5.943 -1.2140  0.4959  0.3897
   58RES   H14916223   3.426   0.545   5.835  1.3159  0.7552 -2.1623
   58RES   H15016224   3.551   0.717   5.674 -0.7288 -1.1172 -0.1365
   58RES   H15116225   3.677   0.587   5.875  1.1926 -0.4770 -1.9636
   58RES   H15216226   3.688   0.745   5.942 -2.9528  0.2526  0.7674
   58RES   H15316227   3.907   0.580   5.803  1.0576 -0.1133  1.4810
   58RES   H15416228   3.908   0.716   5.916  1.2554 -0.5272  0.9599
   58RES   H15516229   3.977   0.748   5.757 -0.6314 -1.3553 -1.2285
   58RES   O15616230   3.524   0.869   5.812  0.6073 -0.0919  0.0835
   58RES   C15716231   3.424   0.941   5.731  0.1103  0.0409  0.1722
   58RES   C15816232   3.468   1.086   5.726 -0.7531  0.2230  0.6775
   58RES   C15916233   3.359   1.186   5.679  0.1434  0.2106 -0.2948
   58RES   O16016234   3.410   1.317   5.666  0.5077 -0.1896 -0.3097
   58RES   C16116235   3.323   1.403   5.595  0.0720 -0.3315 -0.0166
   58RES   H16216236   3.407   0.904   5.630  0.2348  1.9403 -0.5635
   58RES   H16316237   3.330   0.937   5.787  0.5989  0.1770  1.0210
   58RES   H16416238   3.501   1.127   5.821 -1.7911 -1.0467  1.6005
   58RES   H16516239   3.309   1.151   5.589 -0.7300 -0.3625  0.4000
   58RES   H16616240   3.281   1.194   5.755  0.1793  1.9843 -0.4184
   58RES   H16716241   3.343   1.503   5.633  0.4007 -0.5042  0.2656
   58RES   H16816242   3.222   1.372   5.623 -0.6419  2.5063  0.7064
   58RES   H16916243   3.337   1.391   5.487 -3.2194  0.1922 -0.5399
   58RES   O17016244   3.574   1.098   5.627 -0.1480 -0.3332 -0.6712
   58RES   C17116245   3.702   1.077   5.687  0.6940  0.8392 -0.3127
   58RES   C17216246   3.821   1.135   5.604 -0.0948  0.1043 -0.7905
   58RES   C17316247   3.950   1.066   5.628 -0.0824 -0.0304 -0.5500
   58RES   O17416248   4.043   1.092   5.523  0.0199 -0.0991  0.0044
   58RES   C17516249   4.163   1.026   5.544  0.2249  0.1240  0.0786
   58RES   H17616250   3.717   0.969   5.693 -0.1850  0.7674  0.8405
   58RES   H17716251   3.705   1.114   5.789 -3.1082  1.4058 -0.3248
   58RES   H17816252   3.801   1.120   5.498 -0.0963 -1.7537 -0.5325
   58RES   H17916253   3.990   1.084   5.728 -1.7113 -0.0408  0.1355
   58RES   H18016254   3.921   0.961   5.617  0.4135 -0.2830  0.4744
   58RES   H18116255   4.239   1.053   5.471 -2.4054  1.3013 -2.3429
   58RES   H18216256   4.162   0.918   5.555 -2.1913  0.2143  1.1958
   58RES   H18316257   4.202   1.068   5.637 -1.2761 -0.0989  0.8258
   58RES   O18416258   3.833   1.273   5.635  0.0093 -0.3164  0.0532
   58RES   C18516259   3.763   1.355   5.542 -0.1918  0.0405 -0.0926
   58RES   C18616260   3.797   1.494   5.579 -0.3036  1.0429  0.1943
   58RES   C18716261   3.711   1.594   5.508  0.5552  0.2454  0.0678
   58RES   O18816262   3.739   1.726   5.546 -0.0127 -0.7299 -0.5020
   58RES   C18916263   3.640   1.819   5.497 -0.1085  0.3174  0.1811
   58RES   H19016264   3.655   1.344   5.553  0.0298 -0.8440  1.3893
   58RES   H19116265   3.783   1.332   5.437 -1.2957  0.0483 -0.3125
   58RES   H19216266   3.782   1.509   5.686 -1.4367 -3.5547  0.7824
   58RES   H19316267   3.607   1.572   5.531  0.2235 -0.2548 -1.7664
   58RES   H19416268   3.721   1.589   5.399 -1.6177 -0.3971 -0.1182
   58RES   H19516269   3.650   1.922   5.533 -2.3243 -0.2242  2.5047
   58RES   H19616270   3.638   1.812   5.389 -1.1492  1.0583  0.1406
   58RES   H19716271   3.543   1.784   5.531 -0.1421 -0.8643 -1.1002
   58RES   O19816272   3.928   1.519   5.539 -0.3098 -0.3082  0.1378
   58RES   C19916273   4.018   1.510   5.656  0.1382  0.3702  0.4071
   58RES   C20016274   4.159   1.508   5.612 -0.1018  0.1792 -0.2034
   58RES   C20116275   4.205   1.371   5.555  0.0208 -0.4683 -0.1262
   58RES   O20216276   4.314   1.391   5.468 -0.1864  0.3509  0.0237
   58RES   C20316277   4.354   1.276   5.387  0.1089 -0.1692  0.2725
   58RES   H20416278   3.992   1.418   5.709  0.0880 -0.0190 -0.2925
   58RES   H20516279   4.004   1.592   5.726 -2.8969  1.5314 -1.4604
   58RES   H20616280   4.195   1.575   5.534 -0.4227 -1.3921 -1.7337
   58RES   H20716281   4.234   1.301   5.634  2.6616  2.2361  1.4566
   58RES   H20816282   4.117   1.342   5.498  0.2736 -2.5510  0.4833
   58RES   H20916283   4.269   1.234   5.333 -0.0904  2.1409 -1.2819
   58RES   H21016284   4.406   1.207   5.454  1.6875  0.9861  0.2751
   58RES   H21116285   4.433   1.312   5.320  0.2301  2.6314  1.8448
   58RES   O21216286   4.221   1.536   5.738 -0.2204  0.4460 -0.1171
   58RES   C21316287   4.358   1.571   5.726 -1.1400 -0.4086 -0.1205
   58RES   C21416288   4.405   1.628   5.860  0.2812 -0.0042  0.1775
   58RES   C21516289   4.512   1.728   5.847 -0.3095 -0.0473  0.6169
   58RES   O21616290   4.543   1.790   5.974 -0.0418 -0.5185 -0.0190
   58RES   C21716291   4.616   1.904   5.956  0.0342  0.2039  0.2929
   58RES   H21816292   4.360   1.655   5.656 -0.9244  0.1597  0.5652
   58RES   H21916293   4.424   1.502   5.674 -1.1051  0.9634 -1.9748
   58RES   H22016294   4.324   1.690   5.897  1.7521  1.7034  0.5904
   58RES   H22116295   4.601   1.681   5.806  0.9070  2.8312 -0.1970
   58RES   H22216296   4.488   1.807   5.776  1.7846 -0.7554 -0.9215
   58RES   H22316297   4.709   1.899   5.900 -0.3418 -0.2500 -0.2921
   58RES   H22416298   4.624   1.951   6.054  1.0771 -1.6569  1.1222
   58RES   H22516299   4.547   1.976   5.912 -0.2346 -0.2967 -0.1032
   58RES   O22616300   4.438   1.522   5.947  0.6822  0.2585 -0.3026
   58RES   C22716301   4.385   1.531   6.077 -0.7241 -0.0892  0.0457
   58RES   C22816302   4.422   1.402   6.158  0.3609  0.4041 -0.0190
   58RES   C22916303   4.457   1.420   6.306 -0.1963 -0.1804 -0.0039
   58RES   O23016304   4.549   1.322   6.356 -0.1577  0.4152 -0.0620
   58RES   C23116305   4.491   1.196   6.380 -0.3939  0.3924  0.4822
   58RES   H23216306   4.277   1.544   6.070 -0.5510  2.2552  1.3196
   58RES   H23316307   4.430   1.616   6.128  4.4742 -1.4928 -1.9253
   58RES   H23416308   4.506   1.355   6.107  1.0929 -0.0817  1.6285
   58RES   H23516309   4.375   1.415   6.378 -0.0320  1.0783  0.2805
   58RES   H23616310   4.508   1.515   6.323  1.2469 -0.5434 -2.1267
   58RES   H23716311   4.576   1.129   6.389 -0.1026  0.9654  2.1731
   58RES   H23816312   4.426   1.164   6.298  1.0856  1.7071 -1.2416
   58RES   H23916313   4.426   1.196   6.468  0.3512 -1.2495  1.0484
   58RES   O24016314   4.318   1.315   6.149 -0.7977 -0.6035 -0.0541
   58RES   C24116315   4.305   1.263   6.019 -0.0395 -0.6923 -0.1659
   58RES   C24216316   4.218   1.138   6.015 -1.1110  0.1507 -0.2533
   58RES   C24316317   4.063   1.166   6.005  1.1003 -0.4037 -0.3017
   58RES   O24416318   4.001   1.045   5.985  0.0529 -0.0149 -0.0985
   58RES   C24516319   3.863   1.056   6.031 -0.1431  0.1545  0.1674
   58RES   H24616320   4.401   1.228   5.983  0.5295  0.4508  0.2199
   58RES   H24716321   4.279   1.339   5.945  1.5461  0.6665  0.6425
   58RES   H24816322   4.240   1.081   6.105 -1.6562  0.4994  0.1066
   58RES   H24916323   4.033   1.220   6.095  0.6234 -1.0629 -0.0587
   58RES   H25016324   4.053   1.236   5.922  0.1518  1.3797  1.2834
   58RES   H25116325   3.801   1.121   5.970 -2.6229 -1.1855  1.1839
   58RES   H25216326   3.859   1.064   6.140 -0.9434  0.7645  0.1022
   58RES   H25316327   3.823   0.956   6.018  2.5469 -0.9177 -0.1403
   58RES   O25416328   4.259   1.063   5.899  0.5364  0.0382  0.6907
   58RES   C25516329   4.323   0.937   5.920 -0.1443  0.4323  0.2604
   58RES   C25616330   4.233   0.818   5.960 -0.2022 -0.6594 -0.2058
   58RES   C25716331   4.270   0.679   5.893 -0.6457 -0.5333 -0.0086
   58RES   O25816332   4.164   0.589   5.928  0.3770 -0.0861 -0.4015
   58RES   C25916333   4.198   0.447   5.925 -0.3602 -0.0507 -0.5789
   58RES   H26016334   4.355   0.917   5.818 -1.7445 -2.2715  0.2195
   58RES   H26116335   4.414   0.952   5.978  1.0784 -2.2305 -0.8671
   58RES   H26216336   4.134   0.854   5.935 -0.2576 -0.5983  0.1051
   58RES   H26316337   4.307   0.678   5.791  1.8471 -0.7073  0.8711
   58RES   H26416338   4.354   0.651   5.956 -0.1509  1.1363  0.1143
   58RES   H26516339   4.114   0.391   5.966  0.4646 -0.3104  0.7586
   58RES   H26616340   4.278   0.420   5.994  0.5962  0.1018 -1.6164
   58RES   H26716341   4.224   0.417   5.824  0.8407  0.7683 -0.5233
   58RES   O26816342   4.253   0.810   6.102  0.6536 -0.5188 -0.0541
   58RES   C26916343   4.134   0.775   6.169  0.2401  0.0714 -0.5000
   58RES   C27016344   4.162   0.752   6.315 -0.3142  0.1861  0.2178
   58RES   C27116345   4.239   0.864   6.388 -0.5066  0.3638 -0.2367
   58RES   O27216346   4.254   0.809   6.524 -0.4609 -0.4873 -0.1476
   58RES   C27316347   4.269   0.908   6.618 -0.3222 -0.2409 -0.5486
   58RES   H27416348   4.092   0.685   6.125 -2.0334  0.2172  1.2728
   58RES   H27516349   4.055   0.851   6.173  1.2777  1.0828  1.0943
   58RES   H27616350   4.067   0.736   6.366 -0.0505 -0.0103  0.6508
   58RES   H27716351   4.186   0.959   6.393 -1.6714 -0.2692 -0.3789
   58RES   H27816352   4.333   0.885   6.337 -0.8008  0.5394 -0.7090
   58RES   H27916353   4.186   0.976   6.634 -0.3518 -0.6778  1.2073
   58RES   H28016354   4.353   0.975   6.596  0.0593 -0.6630 -0.3896
   58RES   H28116355   4.286   0.864   6.716 -0.5986 -0.0413 -0.4108
   58RES   H28216356   4.226   0.664   6.328 -0.3075  0.0059 -1.0526
   59RES     O116357   2.078   4.844   3.084 -0.1917 -0.6791 -0.3504
   59RES     C216358   2.124   4.773   2.969  0.1632 -0.3866  0.2574
   59RES     C316359   2.119   4.624   3.002 -0.4344 -0.0146  0.5256
   59RES     C416360   2.155   4.538   2.878 -0.0941  0.5907  0.2310
   59RES     O516361   2.080   4.423   2.897 -0.5606  0.1834 -0.8025
   59RES     C616362   2.085   4.323   2.801 -0.9379 -0.2439  0.1121
   59RES     H716363   2.066   4.787   2.878 -0.3690  1.2845  0.8331
   59RES     H816364   2.228   4.799   2.950  0.5651  0.5223  3.4229
   59RES     H916365   2.017   4.600   3.033  0.1770 -1.6845  1.2980
   59RES    H1016366   2.262   4.516   2.872  0.2067  1.1568  2.8210
   59RES    H1116367   2.126   4.581   2.782 -1.9862  1.1319  1.0191
   59RES    H1216368   1.986   4.305   2.759 -0.9901  0.1573  0.0610
   59RES    H1316369   2.144   4.349   2.713  0.6253  1.6327  1.6730
   59RES    H1416370   2.132   4.239   2.851  2.9183  1.3844 -0.6528
   59RES    H1516371   2.105   4.791   3.158 -0.3662  1.5123  1.3167
   59RES    O1616372   2.221   4.598   3.091 -0.9333 -0.1148 -0.0468
   59RES    C1716373   2.203   4.488   3.180 -0.6891 -0.6057  0.1215
   59RES    C1816374   2.105   4.503   3.301  0.3102 -0.1294 -0.3184
   59RES    C1916375   2.106   4.384   3.399  0.6417 -0.3816 -0.3312
   59RES    O2016376   1.971   4.366   3.443  0.3233  0.6560  0.6699
   59RES    C2116377   1.960   4.258   3.538 -0.9743  0.0883  0.2141
   59RES    H2216378   2.295   4.452   3.225 -1.0016  0.9502  2.0888
   59RES    H2316379   2.157   4.404   3.128  0.5261 -1.3248  0.1993
   59RES    H2416380   2.003   4.518   3.267 -0.6598 -1.0250  2.1186
   59RES    H2516381   2.134   4.292   3.347  2.9999 -0.0204  0.2580
   59RES    H2616382   2.174   4.397   3.483  2.3799 -2.2111 -1.4028
   59RES    H2716383   2.013   4.293   3.627  1.8447  1.6715 -1.9858
   59RES    H2816384   2.000   4.165   3.500 -1.5881 -0.9548  2.0560
   59RES    H2916385   1.856   4.235   3.561 -0.9053  1.6319  2.2423
   59RES    O3016386   2.142   4.617   3.374  0.6914  0.1092 -0.3441
   59RES    C3116387   2.033   4.688   3.441 -0.2307  0.0389 -0.6145
   59RES    C3216388   2.071   4.804   3.537  0.2127 -0.3304  0.4955
   59RES    C3316389   1.980   4.823   3.659  0.3418 -0.5287  0.7346
   59RES    O3416390   2.036   4.894   3.770  0.5831 -1.2662  0.3018
   59RES    C3516391   2.011   4.849   3.898  0.3838 -0.3822  0.3612
   59RES    H3616392   1.961   4.725   3.368  1.0458  0.3118 -1.7564
   59RES    H3716393   1.978   4.612   3.498 -0.3858  0.6910  0.1114
   59RES    H3816394   2.173   4.790   3.574 -0.8116 -1.8149  2.9511
   59RES    H3916395   1.953   4.727   3.702  0.4661 -1.0808 -0.3939
   59RES    H4016396   1.887   4.865   3.621  0.1839 -2.1935 -0.8306
   59RES    H4116397   1.903   4.838   3.909  0.2794  1.3881  1.3665
   59RES    H4216398   2.050   4.931   3.959  1.6609 -1.0637  0.4755
   59RES    H4316399   2.052   4.756   3.937 -0.2354 -0.6263  0.4384
   59RES    O4416400   2.062   4.924   3.458  0.4084  0.2411 -0.1548
   59RES    C4516401   2.170   5.020   3.477  0.5185  0.5171  0.2574
   59RES    C4616402   2.169   5.141   3.379 -0.1924  0.4317 -0.3216
   59RES    C4716403   2.156   5.103   3.230  0.7073  0.5006 -0.5924
   59RES    O4816404   2.194   5.223   3.156 -0.3768  0.3758  0.4801
   59RES    C4916405   2.151   5.221   3.019  0.5840  0.0314  0.2100
   59RES    H5016406   2.268   4.972   3.472 -0.0714 -0.6618 -0.1226
   59RES    H5116407   2.172   5.057   3.580  0.5746  2.3112 -0.3738
   59RES    H5216408   2.271   5.174   3.395 -0.5527  0.2496  2.5556
   59RES    H5316409   2.227   5.024   3.207  1.2082  0.2694  1.6489
   59RES    H5416410   2.053   5.075   3.203  0.6028  1.3637 -1.1089
   59RES    H5516411   2.044   5.240   3.010  0.4746 -0.3113  0.7584
   59RES    H5616412   2.173   5.131   2.962  0.4410  0.1520 -0.0368
   59RES    H5716413   2.195   5.301   2.960 -1.0477  0.1924 -0.8332
   59RES    O5816414   2.074   5.230   3.420 -0.1778  0.0251 -0.1599
   59RES    C5916415   2.078   5.357   3.364 -0.1192 -0.7210  0.4014
   59RES    C6016416   2.199   5.445   3.396  0.0440  0.1537  0.0148
   59RES    C6116417   2.215   5.498   3.541 -0.6305  1.2742 -0.2552
   59RES    O6216418   2.329   5.584   3.554 -0.2323  0.3855  0.7116
   59RES    C6316419   2.339   5.641   3.683  0.2138  0.4814  0.1723
   59RES    H6416420   1.986   5.405   3.397  0.6115 -0.9268  2.8141
   59RES    H6516421   2.051   5.352   3.258 -2.6740  1.8850  0.8442
   59RES    H6616422   2.292   5.392   3.372 -0.4775 -1.5854  1.6451
   59RES    H6716423   2.122   5.544   3.574 -1.2956 -0.3351  0.1560
   59RES    H6816424   2.239   5.416   3.609 -0.2927  1.7460  0.2006
   59RES    H6916425   2.255   5.710   3.689 -1.9047 -2.0903  1.0575
   59RES    H7016426   2.429   5.697   3.704  1.3595 -2.1865  2.7641
   59RES    H7116427   2.346   5.563   3.759  0.9061  0.1153 -0.2606
   59RES    O7216428   2.180   5.558   3.310 -0.2282 -0.6096  0.3924
   59RES    C7316429   2.221   5.541   3.174 -0.6476 -0.0913  0.3204
   59RES    C7416430   2.227   5.680   3.114  0.5668  0.4099 -0.1286
   59RES    C7516431   2.246   5.683   2.968  0.2859 -0.1106 -0.2601
   59RES    O7616432   2.213   5.810   2.906  0.8928  0.5377 -0.5769
   59RES    C7716433   2.216   5.811   2.764  0.3334  0.0560 -0.0689
   59RES    H7816434   2.322   5.502   3.164 -0.0272  1.1228  1.6876
   59RES    H7916435   2.145   5.481   3.123 -0.3438  0.7951 -1.1977
   59RES    H8016436   2.132   5.728   3.136 -0.9059 -2.0213 -0.9534
   59RES    H8116437   2.183   5.606   2.925 -1.7961  1.0549  0.6629
   59RES    H8216438   2.351   5.660   2.946  0.1066 -1.2523  0.0420
   59RES    H8316439   2.138   5.743   2.730 -1.9605  2.2451  0.6180
   59RES    H8416440   2.306   5.770   2.719 -0.2377 -1.0818 -0.1816
   59RES    H8516441   2.180   5.901   2.713 -0.4576 -0.5212 -0.5362
   59RES    O8616442   2.327   5.750   3.177 -0.6476 -0.0166 -0.5637
   59RES    C8716443   2.309   5.891   3.192  0.2743  0.3233 -0.1589
   59RES    C8816444   2.426   5.961   3.124 -0.2815  0.2470 -0.2470
   59RES    C8916445   2.376   6.066   3.023  0.0626 -0.1226 -0.1610
   59RES    O9016446   2.476   6.103   2.931 -0.0292  0.8433 -0.2860
   59RES    C9116447   2.426   6.166   2.809 -0.5360  0.3846  0.0662
   59RES    H9216448   2.214   5.926   3.152  1.1901 -0.1742 -2.8923
   59RES    H9316449   2.312   5.926   3.295  1.4374 -0.5053  0.1018
   59RES    H9416450   2.486   5.894   3.064 -0.5820  0.0682 -0.3487
   59RES    H9516451   2.288   6.033   2.967 -2.0528  0.6356  2.6184
   59RES    H9616452   2.340   6.157   3.070 -0.2387  0.2186 -1.0362
   59RES    H9716453   2.502   6.214   2.746 -1.5913  0.1233 -1.4243
   59RES    H9816454   2.385   6.083   2.751 -1.6287  2.4928 -2.2855
   59RES    H9916455   2.350   6.238   2.838 -0.8686 -0.1951  0.6597
   59RES   O10016456   2.511   6.010   3.229  0.5166 -0.5929  0.1359
   59RES   C10116457   2.639   6.064   3.179  0.2072  0.2678  0.1545
   59RES   C10216458   2.729   6.133   3.284  0.0035 -0.7626  0.1049
   59RES   C10316459   2.734   6.064   3.425 -0.5463  0.8901  0.1124
   59RES   O10416460   2.870   6.062   3.478  0.0718  0.2056 -0.3178
   59RES   C10516461   2.880   5.991   3.602 -0.6725  1.0591  0.0943
   59RES   H10616462   2.629   6.129   3.092 -0.5367  0.4813  0.3976
   59RES   H10716463   2.687   5.973   3.142 -1.4163 -0.7592  0.4558
   59RES   H10816464   2.831   6.120   3.249 -0.1063  1.1612 -1.0042
   59RES   H10916465   2.710   5.960   3.406 -0.8048  0.6896  1.5329
   59RES   H11016466   2.668   6.105   3.501  0.4233  0.2285  1.3320
   59RES   H11116467   2.814   6.043   3.672  0.1590 -2.3697  3.5936
   59RES   H11216468   2.983   5.992   3.638 -0.3025  1.4535 -0.9514
   59RES   H11316469   2.835   5.893   3.592  0.2781  0.4334  1.6821
   59RES   O11416470   2.684   6.264   3.285 -0.3490 -0.1632 -0.0409
   59RES   C11516471   2.751   6.348   3.377 -0.2382  0.6602 -0.2215
   59RES   C11616472   2.700   6.485   3.340  0.7378  0.3421  0.0238
   59RES   C11716473   2.759   6.587   3.440 -0.1970  0.4282  0.2444
   59RES   O11816474   2.703   6.713   3.401 -0.2783  0.4070 -0.4333
   59RES   C11916475   2.744   6.823   3.486 -0.4147  0.6408 -0.0931
   59RES   H12016476   2.723   6.336   3.482 -2.0856  1.5264 -0.6048
   59RES   H12116477   2.859   6.344   3.366  0.1807 -0.8293  3.5569
   59RES   H12216478   2.592   6.491   3.335  0.7673  0.6962 -0.2598
   59RES   H12316479   2.719   6.560   3.538  0.9966  0.0587  0.6283
   59RES   H12416480   2.868   6.584   3.442 -0.2204 -1.2321  0.2363
   59RES   H12516481   2.698   6.921   3.469 -1.0011  0.1051 -1.7141
   59RES   H12616482   2.852   6.829   3.478 -0.3257 -1.9687 -1.2663
   59RES   H12716483   2.725   6.794   3.589  2.2636  0.6693  0.4267
   59RES   O12816484   2.757   6.512   3.210  0.2293 -0.2789  0.1710
   59RES   C12916485   2.665   6.562   3.113  0.0089 -0.1183 -0.3117
   59RES   C13016486   2.720   6.562   2.971 -0.3849 -0.5460 -0.1893
   59RES   C13116487   2.784   6.426   2.941 -0.4038  0.9764 -0.0408
   59RES   O13216488   2.791   6.392   2.805 -0.3308  0.3045 -0.1512
   59RES   C13316489   2.824   6.252   2.792  0.1213  0.3199 -0.3884
   59RES   H13416490   2.578   6.497   3.101 -0.6107  0.6826 -0.2531
   59RES   H13516491   2.612   6.652   3.144  1.3636  0.5748  0.0260
   59RES   H13616492   2.630   6.588   2.916  0.0768  2.0207  0.2204
   59RES   H13716493   2.723   6.354   2.995 -0.1607 -0.4625 -1.6762
   59RES   H13816494   2.881   6.417   2.991 -0.5079  1.6618  0.2952
   59RES   H13916495   2.752   6.186   2.841  0.0730  0.3557 -0.4104
   59RES   H14016496   2.832   6.219   2.688  0.2334 -0.8773 -0.0076
   59RES   H14116497   2.928   6.231   2.817  0.4163  1.6644 -0.4457
   59RES   O14216498   2.815   6.673   2.963 -0.1567  0.0952 -0.5531
   59RES   C14316499   2.870   6.689   2.831 -0.6569  0.0976 -0.4754
   59RES   C14416500   2.761   6.736   2.729 -0.2103  0.0514  0.2476
   59RES   C14516501   2.825   6.783   2.593  0.6896  0.0877 -0.6461
   59RES   O14616502   2.737   6.752   2.483  0.3677  0.1943 -0.4215
   59RES   C14716503   2.803   6.782   2.356  0.3372  0.0908 -0.2231
   59RES   H14816504   2.948   6.765   2.839  0.6778 -1.3821  0.9571
   59RES   H14916505   2.913   6.595   2.798 -0.3068 -0.0853  0.4820
   59RES   H15016506   2.706   6.642   2.714  0.8493 -0.4914 -0.2602
   59RES   H15116507   2.921   6.732   2.579  0.3491 -1.3369  1.8185
   59RES   H15216508   2.839   6.890   2.607 -1.8956  0.5052 -1.0098
   59RES   H15316509   2.878   6.706   2.337 -0.2748 -0.8557  1.0533
   59RES   H15416510   2.851   6.879   2.360  2.8289 -1.0853 -0.8387
   59RES   H15516511   2.733   6.775   2.272  0.0517  0.0338  0.0171
   59RES   O15616512   2.690   6.844   2.790  0.1698 -0.2152  0.6798
   59RES   C15716513   2.568   6.888   2.727  0.3553 -0.1703 -0.5146
   59RES   C15816514   2.529   7.015   2.800 -0.6836 -0.4793  0.3103
   59RES   C15916515   2.392   7.062   2.752 -0.4509  0.1530 -0.3093
   59RES   O16016516   2.340   7.152   2.848 -0.1187  0.5225  0.0129
   59RES   C16116517   2.384   7.287   2.818 -0.1603 -0.6971  0.4050
   59RES   H16216518   2.582   6.890   2.619  1.4395 -3.4655 -0.5065
   59RES   H16316519   2.490   6.814   2.745  1.1449 -0.6281  1.1512
   59RES   H16416520   2.517   6.998   2.907 -4.1220 -3.0192 -0.3763
   59RES   H16516521   2.397   7.103   2.651 -2.1906  1.2987  0.0508
   59RES   H16616522   2.329   6.974   2.745 -1.2413  0.4632  2.2724
   59RES   H16716523   2.323   7.354   2.878 -0.7072  0.3214 -1.2606
   59RES   H16816524   2.368   7.319   2.715 -0.7056  0.3486  0.8113
   59RES   H16916525   2.490   7.298   2.840 -0.2134  0.6550 -0.0061
   59RES   O17016526   2.628   7.116   2.774  0.1993 -0.3897  0.4534
   59RES   C17116527   2.721   7.128   2.878  0.1491  1.1222  0.3370
   59RES   C17216528   2.839   7.208   2.833  0.5674 -0.4694 -0.4806
   59RES   C17316529   2.951   7.221   2.949 -0.1906  0.5734 -0.6230
   59RES   O17416530   3.070   7.275   2.895 -0.0066 -0.1355  0.6802
   59RES   C17516531   3.171   7.299   2.991  0.7249 -0.2922 -0.6303
   59RES   H17616532   2.767   7.036   2.915 -1.0858 -0.2977 -1.5545
   59RES   H17716533   2.673   7.187   2.956 -0.2049  2.7013 -1.0373
   59RES   H17816534   2.866   7.167   2.736 -2.6470 -0.5834 -1.3850
   59RES   H17916535   2.917   7.275   3.038 -0.7068 -1.3795  0.4150
   59RES   H18016536   2.972   7.116   2.971  0.6185  0.3954 -2.1862
   59RES   H18116537   3.186   7.206   3.046 -1.5363 -0.4238 -0.1967
   59RES   H18216538   3.145   7.387   3.051 -0.6710 -0.8682 -0.3696
   59RES   H18316539   3.269   7.323   2.950  0.5204 -0.2828 -1.1070
   59RES   O18416540   2.802   7.346   2.823  0.1149 -0.3432 -0.2948
   59RES   C18516541   2.757   7.400   2.701  0.4650 -0.4939 -0.0140
   59RES   C18616542   2.865   7.453   2.603  0.9082 -0.2089 -0.5479
   59RES   C18716543   2.807   7.524   2.482 -0.4580 -0.1322 -0.4737
   59RES   O18816544   2.908   7.550   2.382  0.3978 -0.1749  0.0945
   59RES   C18916545   2.848   7.603   2.272  0.2044 -0.0027  0.0567
   59RES   H19016546   2.697   7.485   2.734 -0.1090 -1.9945  2.9009
   59RES   H19116547   2.681   7.333   2.662 -1.3085  1.2892  0.2627
   59RES   H19216548   2.931   7.517   2.661  0.4932  0.5866 -0.9411
   59RES   H19316549   2.754   7.611   2.518  1.1251  1.4502 -1.8597
   59RES   H19416550   2.723   7.468   2.441 -1.2971  2.7176 -2.7843
   59RES   H19516551   2.754   7.558   2.239 -0.0675 -0.5448  1.5535
   59RES   H19616552   2.830   7.710   2.286 -1.8953 -0.4448  0.9003
   59RES   H19716553   2.925   7.602   2.194 -1.3334 -0.3847 -1.4903
   59RES   O19816554   2.914   7.331   2.548  0.0402  0.3764  0.4300
   59RES   C19916555   3.056   7.323   2.549 -1.0900  0.5340 -0.4403
   59RES   C20016556   3.094   7.207   2.447 -0.6853  0.2853  0.0671
   59RES   C20116557   3.236   7.147   2.473  0.3602 -0.2546 -0.2188
   59RES   O20216558   3.264   7.045   2.379 -0.0633  0.3131  0.2733
   59RES   C20316559   3.340   6.940   2.419 -0.2997  0.9429  0.0544
   59RES   H20416560   3.090   7.310   2.652  0.8145  0.1353 -1.1005
   59RES   H20516561   3.107   7.416   2.523  0.5107 -0.3649 -0.6033
   59RES   H20616562   3.029   7.123   2.471  0.9837 -0.4536  2.1833
   59RES   H20716563   3.306   7.229   2.457 -0.1063 -0.0319 -1.1008
   59RES   H20816564   3.254   7.129   2.579  1.0735 -0.0541 -0.3031
   59RES   H20916565   3.282   6.874   2.483  0.7439 -0.5203 -0.4779
   59RES   H21016566   3.433   6.981   2.459  1.5306  1.7520 -4.6287
   59RES   H21116567   3.350   6.880   2.328  0.1117  0.5218  0.3774
   59RES   O21216568   3.089   7.250   2.311 -0.1611 -0.4555 -0.7727
   59RES   C21316569   2.985   7.204   2.229 -0.8850 -0.6146  0.0395
   59RES   C21416570   2.988   7.249   2.084 -0.2693 -1.2644  0.3077
   59RES   C21516571   2.863   7.200   2.004  0.5433  0.2514  0.9438
   59RES   O21616572   2.759   7.294   2.008  0.6455  0.2077 -0.2915
   59RES   C21716573   2.630   7.259   1.961  0.1695  0.0108  0.4978
   59RES   H21816574   2.901   7.246   2.284 -0.6462  0.5154 -0.4502
   59RES   H21916575   2.997   7.095   2.233  2.7289 -0.3664 -1.7234
   59RES   H22016576   2.995   7.358   2.077 -2.6408 -1.1038  0.1758
   59RES   H22116577   2.888   7.184   1.899  1.3224  0.4523  1.0918
   59RES   H22216578   2.817   7.109   2.042  0.8010  0.4555  1.7476
   59RES   H22316579   2.569   7.348   1.977  1.3271  1.0395 -0.6749
   59RES   H22416580   2.575   7.187   2.021 -2.6466  0.0823 -1.8466
   59RES   H22516581   2.625   7.228   1.856  0.7890 -1.6482  0.9383
   59RES   O22616582   3.098   7.187   2.012 -0.1013  0.2916 -0.1517
   59RES   C22716583   3.153   7.272   1.907  0.4472  0.5607 -0.3435
   59RES   C22816584   3.273   7.192   1.849 -1.1280 -0.3232 -0.0011
   59RES   C22916585   3.294   7.230   1.704 -0.1748 -0.1270  0.4987
   59RES   O23016586   3.202   7.149   1.620 -0.3700  0.0217 -0.1404
   59RES   C23116587   3.195   7.174   1.478 -0.1943 -0.1983  0.1102
   59RES   H23216588   3.168   7.372   1.945  0.6156  1.1163 -1.8282
   59RES   H23316589   3.071   7.285   1.835 -0.6010 -0.1312  0.7084
   59RES   H23416590   3.258   7.084   1.856  0.9663 -0.7350 -1.3743
   59RES   H23516591   3.396   7.211   1.671 -0.2746  2.3877 -1.4349
   59RES   H23616592   3.284   7.337   1.686 -0.1325  0.0280  1.3875
   59RES   H23716593   3.156   7.085   1.429  1.5515 -1.4454  0.9253
   59RES   H23816594   3.298   7.198   1.454  0.1530  0.1105  1.8181
   59RES   H23916595   3.127   7.257   1.461  0.4012 -0.1227 -2.0086
   59RES   O24016596   3.394   7.227   1.914  0.1231  0.2305  0.0475
   59RES   C24116597   3.405   7.176   2.048 -0.1231  0.2655  0.0717
   59RES   C24216598   3.540   7.189   2.116  0.7457 -0.1004  0.6124
   59RES   C24316599   3.565   7.158   2.263 -0.2302  0.0157 -0.9513
   59RES   O24416600   3.680   7.219   2.312 -0.1285  1.4473  0.4154
   59RES   C24516601   3.710   7.201   2.448 -0.5880  0.2237 -0.9082
   59RES   H24616602   3.374   7.071   2.050 -2.4271  0.9028 -0.8197
   59RES   H24716603   3.337   7.239   2.104  0.3855 -0.0280  1.0232
   59RES   H24816604   3.550   7.296   2.101  0.1404 -0.1180  0.0717
   59RES   H24916605   3.478   7.183   2.325  0.8624 -1.3178  1.1523
   59RES   H25016606   3.564   7.051   2.283  1.3153  0.0247 -0.8018
   59RES   H25116607   3.800   7.257   2.475 -0.3681 -1.5978  2.4205
   59RES   H25216608   3.734   7.098   2.475  1.1136  1.9441  5.0286
   59RES   H25316609   3.636   7.241   2.518  0.0453 -3.0399  1.7681
   59RES   O25416610   3.612   7.102   2.025 -0.1313  0.1667 -0.7169
   59RES   C25516611   3.728   7.157   1.957  0.8152 -0.4417 -0.9016
   59RES   C25616612   3.773   7.070   1.838 -0.3108 -0.1879 -0.5181
   59RES   C25716613   3.855   7.158   1.736  0.1779 -0.1987 -0.1671
   59RES   O25816614   3.982   7.187   1.796 -0.2360  0.2553 -0.2527
   59RES   C25916615   4.080   7.233   1.707 -0.0974 -0.0797  0.4568
   59RES   H26016616   3.691   7.252   1.920  0.8358  0.6423  1.7690
   59RES   H26116617   3.804   7.184   2.031 -0.2494 -0.9890  0.4244
   59RES   H26216618   3.695   7.017   1.783  1.6251 -4.2840  0.4499
   59RES   H26316619   3.865   7.109   1.640  1.2757 -0.8919  0.2881
   59RES   H26416620   3.808   7.255   1.720  0.4881  0.1035  0.6808
   59RES   H26516621   4.055   7.242   1.602 -0.1320 -0.7782  0.4042
   59RES   H26616622   4.170   7.174   1.696 -0.6534 -0.6296 -1.3269
   59RES   H26716623   4.116   7.330   1.742 -2.3651 -0.4415  4.0645
   59RES   O26816624   3.867   6.976   1.887  0.0925  0.0526  0.3403
   59RES   C26916625   3.812   6.853   1.913 -0.0706 -0.1155 -0.1853
   59RES   C27016626   3.857   6.793   2.047  0.0025 -0.1448 -0.2925
   59RES   C27116627   3.803   6.855   2.179 -0.9730 -0.2202 -0.2787
   59RES   O27216628   3.862   6.794   2.286 -0.2184 -0.6625 -0.0858
   59RES   C27316629   3.790   6.804   2.406  0.5891  0.4499 -0.4116
   59RES   H27416630   3.827   6.782   1.832  0.0827  1.3851 -1.4872
   59RES   H27516631   3.703   6.848   1.920 -0.0808  1.2412  0.7267
   59RES   H27616632   3.829   6.688   2.040  1.6590 -0.5644 -0.8188
   59RES   H27716633   3.695   6.860   2.179 -0.9866 -0.4909  0.2638
   59RES   H27816634   3.840   6.957   2.176 -2.0315  0.1683 -0.0899
   59RES   H27916635   3.690   6.762   2.417  0.9688 -0.3168  0.1788
   59RES   H28016636   3.786   6.908   2.438  0.1960  0.1776  0.4664
   59RES   H28116637   3.854   6.745   2.472 -0.2586 -2.2507 -1.9034
   59RES   H28216638   3.965   6.797   2.038  0.4602 -2.6500  2.9361
   60RES     O116639   6.902   4.560   5.701  0.2285  0.0257 -0.1806
   60RES     C216640   6.985   4.470   5.772 -0.1652 -0.5389 -0.5595
   60RES     C316641   6.945   4.322   5.745  0.6120  0.3912  0.3964
   60RES     C416642   7.074   4.231   5.714 -0.2142 -0.3825 -0.3376
   60RES     O516643   7.169   4.251   5.818  0.4342  0.0471  0.4278
   60RES     C616644   7.289   4.180   5.806  0.4386 -0.2481  0.4010
   60RES     H716645   7.089   4.496   5.751 -0.7538  1.3778 -1.2088
   60RES     H816646   6.975   4.486   5.879  2.9580  0.0328 -0.3200
   60RES     H916647   6.895   4.322   5.648 -1.3373  1.1935  1.3822
   60RES    H1016648   7.118   4.258   5.618 -0.7180 -1.9203 -1.0234
   60RES    H1116649   7.047   4.125   5.709  1.3714 -0.8311  0.2644
   60RES    H1216650   7.351   4.188   5.896  0.3422 -1.1930  0.5555
   60RES    H1316651   7.276   4.075   5.782  3.3322 -0.6213  0.2375
   60RES    H1416652   7.346   4.228   5.727  1.7335  1.0375  2.0644
   60RES    H1516653   6.953   4.581   5.624  0.6416  3.0525  0.8405
   60RES    O1616654   6.871   4.254   5.850 -0.0507 -0.1031  0.5297
   60RES    C1716655   6.736   4.295   5.848 -0.6095  0.4475 -0.1564
   60RES    C1816656   6.666   4.204   5.955 -0.4232  0.6137  0.0554
   60RES    C1916657   6.549   4.268   6.028  0.8196  0.1071  0.8565
   60RES    O2016658   6.528   4.213   6.163  0.1704 -0.2081 -0.6652
   60RES    C2116659   6.404   4.261   6.218  0.4598 -0.2812 -0.2050
   60RES    H2216660   6.686   4.266   5.756  1.1130 -1.9927 -0.3623
   60RES    H2316661   6.716   4.397   5.881  1.7598  0.6029  0.9160
   60RES    H2416662   6.744   4.178   6.026 -1.2792  0.0741  0.8092
   60RES    H2516663   6.555   4.377   6.024  0.0393  0.2089  2.0884
   60RES    H2616664   6.456   4.246   5.974  1.2084  0.6344 -0.0406
   60RES    H2716665   6.412   4.369   6.202  1.3721 -0.4146 -0.6935
   60RES    H2816666   6.390   4.243   6.324  0.8298 -0.1837 -0.1383
   60RES    H2916667   6.316   4.221   6.168  0.0604 -0.4679  0.6368
   60RES    O3016668   6.632   4.100   5.873 -0.5033  0.2977 -0.4005
   60RES    C3116669   6.618   3.970   5.928  0.3475 -0.0781 -0.8543
   60RES    C3216670   6.608   3.850   5.838 -0.0585 -0.6283  0.2212
   60RES    C3316671   6.560   3.724   5.919 -0.2599  0.0841 -0.4533
   60RES    O3416672   6.506   3.623   5.833 -0.0299  0.2302 -0.4336
   60RES    C3516673   6.474   3.509   5.912  1.0453 -0.2428 -0.1007
   60RES    H3616674   6.711   3.955   5.984 -1.0439 -0.1382  1.5231
   60RES    H3716675   6.537   3.976   6.000 -0.3024 -1.4216 -1.4628
   60RES    H3816676   6.538   3.851   5.754  0.4403 -1.4285 -0.2210
   60RES    H3916677   6.476   3.754   5.981 -0.0148 -0.2564  0.0389
   60RES    H4016678   6.641   3.681   5.978  0.8028 -0.0001 -1.9378
   60RES    H4116679   6.563   3.457   5.947  2.0244  0.5058 -1.4063
   60RES    H4216680   6.421   3.440   5.847 -0.0839  1.7858 -1.3835
   60RES    H4316681   6.403   3.546   5.986  0.6536 -0.3336 -0.4289
   60RES    O4416682   6.733   3.814   5.770 -0.1094 -1.1045 -0.1899
   60RES    C4516683   6.801   3.923   5.694 -1.0037 -0.8191 -0.0342
   60RES    C4616684   6.896   3.878   5.583  0.0203  0.2712 -0.3080
   60RES    C4716685   6.987   3.761   5.620  0.1223  0.1282  0.0341
   60RES    O4816686   7.106   3.734   5.538  0.0253  0.0179  0.2503
   60RES    C4916687   7.094   3.642   5.434 -0.0486  0.4891  0.6936
   60RES    H5016688   6.871   3.969   5.762 -2.1777  0.7653  0.1319
   60RES    H5116689   6.725   3.984   5.645  0.2461 -0.1964 -1.2221
   60RES    H5216690   6.959   3.966   5.573 -0.8797  0.6912 -2.5638
   60RES    H5316691   7.024   3.773   5.721  1.8921 -0.4534 -0.5280
   60RES    H5416692   6.928   3.670   5.625  1.9486 -1.0242  1.2161
   60RES    H5516693   7.039   3.688   5.352 -3.0426 -0.4729  2.0683
   60RES    H5616694   7.049   3.545   5.456 -3.0771  1.2100 -2.0060
   60RES    H5716695   7.194   3.627   5.393 -0.8634  0.5732 -1.3559
   60RES    O5816696   6.827   3.867   5.464  0.1468 -0.4982  0.4533
   60RES    C5916697   6.744   3.759   5.438  0.2220 -0.6191  0.0071
   60RES    C6016698   6.657   3.779   5.315  0.4258  0.7925 -0.0285
   60RES    C6116699   6.581   3.648   5.272  0.3807  0.0953 -0.1773
   60RES    O6216700   6.481   3.615   5.372 -0.2963  0.1365  0.3792
   60RES    C6316701   6.444   3.480   5.370 -0.2609 -0.2773  0.9463
   60RES    H6416702   6.675   3.761   5.523  1.7086  1.7696  1.1869
   60RES    H6516703   6.804   3.668   5.445  2.3552  0.7300 -0.5616
   60RES    H6616704   6.588   3.863   5.324 -0.9184 -0.3068  0.1203
   60RES    H6716705   6.531   3.655   5.175  1.0036 -0.6766 -0.5573
   60RES    H6816706   6.654   3.569   5.260  2.2325  1.8491 -0.8476
   60RES    H6916707   6.459   3.420   5.280 -1.0844 -0.0373  0.6413
   60RES    H7016708   6.340   3.468   5.402 -1.2943  1.5231 -1.5710
   60RES    H7116709   6.492   3.430   5.454  0.8983 -1.0629 -0.1690
   60RES    O7216710   6.739   3.800   5.205 -0.1162  0.3609  0.1575
   60RES    C7316711   6.759   3.936   5.158 -0.1255  0.1043 -0.3781
   60RES    C7416712   6.819   3.935   5.017  0.3109  0.3948  0.8234
   60RES    C7516713   6.964   4.002   5.021  0.4115  0.1041 -0.1763
   60RES    O7616714   7.030   3.959   4.907 -0.9407  0.2346 -0.6935
   60RES    C7716715   7.164   4.005   4.893  0.1246  0.5506  0.0953
   60RES    H7816716   6.670   3.999   5.165  0.4365  0.8846 -0.1215
   60RES    H7916717   6.836   3.981   5.220  0.7342 -1.8127 -0.0211
   60RES    H8016718   6.834   3.834   4.980  3.0799  1.2562 -0.5817
   60RES    H8116719   7.023   3.955   5.100 -0.9318 -0.8691  0.2606
   60RES    H8216720   6.953   4.110   5.026 -0.6681 -0.0187  0.3911
   60RES    H8316721   7.178   4.015   4.786 -0.9046 -0.5507 -0.1504
   60RES    H8416722   7.230   3.928   4.933 -0.1669 -0.7283 -1.8175
   60RES    H8516723   7.188   4.098   4.945  0.9323  0.6721 -0.4962
   60RES    O8616724   6.742   3.992   4.915  0.2538 -0.0494 -0.2831
   60RES    C8716725   6.617   3.932   4.907 -0.0193 -0.2313 -0.0141
   60RES    C8816726   6.550   3.992   4.777 -0.0926  0.5561 -0.6284
   60RES    C8916727   6.574   3.911   4.655  0.3613  0.0470  0.0486
   60RES    O9016728   6.606   4.003   4.549  0.0423  0.2518 -0.0772
   60RES    C9116729   6.610   3.938   4.421 -0.5006  0.5984 -0.8718
   60RES    H9216730   6.618   3.824   4.900  0.6025 -0.2294  0.0047
   60RES    H9316731   6.553   3.964   4.989 -0.0762 -0.1943 -0.0726
   60RES    H9416732   6.610   4.083   4.768  0.4966  0.1424 -0.9306
   60RES    H9516733   6.659   3.843   4.648 -2.7715 -4.0195 -0.8182
   60RES    H9616734   6.483   3.859   4.625  1.2870 -1.1854 -0.7049
   60RES    H9716735   6.515   3.889   4.397  0.2303 -0.1120 -2.4076
   60RES    H9816736   6.628   4.023   4.355  0.6091  1.3922  0.4175
   60RES    H9916737   6.694   3.869   4.408  0.7215  1.6413  1.1609
   60RES   O10016738   6.411   4.023   4.796  0.1378 -0.2510 -0.2809
   60RES   C10116739   6.351   4.108   4.700  0.5302  0.3793 -0.7547
   60RES   C10216740   6.195   4.113   4.717  0.6038  0.0858  0.4185
   60RES   C10316741   6.141   4.222   4.628 -0.6941 -0.8165 -0.3919
   60RES   O10416742   6.008   4.181   4.583  0.3048 -0.5817  0.2492
   60RES   C10516743   5.930   4.267   4.498  0.2675  0.0532  0.4888
   60RES   H10616744   6.369   4.070   4.600 -1.2107  0.9277 -1.2924
   60RES   H10716745   6.403   4.204   4.704 -2.6381  2.1904 -1.6034
   60RES   H10816746   6.158   4.016   4.686 -1.0896  0.7597  0.2584
   60RES   H10916747   6.193   4.227   4.533 -1.5884 -0.5165 -0.8665
   60RES   H11016748   6.160   4.317   4.677 -1.1211 -1.8143  1.7841
   60RES   H11116749   5.985   4.310   4.415 -0.1635 -1.0608 -0.3896
   60RES   H11216750   5.890   4.353   4.551 -0.0230  1.4079 -1.8633
   60RES   H11316751   5.845   4.208   4.464  0.4549 -1.1701  2.0724
   60RES   O11416752   6.161   4.129   4.859 -0.0121  0.1050  0.1261
   60RES   C11516753   6.029   4.128   4.901  0.0294  0.1573 -0.2867
   60RES   C11616754   6.033   4.146   5.059 -0.4203 -0.6492 -0.0022
   60RES   C11716755   5.899   4.221   5.101  0.0356  0.7183 -0.2805
   60RES   O11816756   5.900   4.230   5.239 -0.3295 -0.6284 -0.0290
   60RES   C11916757   5.782   4.276   5.292  0.0864 -0.0986 -0.0563
   60RES   H12016758   5.985   4.210   4.844  0.2865 -1.0176 -2.2004
   60RES   H12116759   5.968   4.040   4.878 -0.4994  0.3250  0.4515
   60RES   H12216760   6.115   4.211   5.088 -1.8913  2.4914 -2.5425
   60RES   H12316761   5.885   4.323   5.063 -0.6386  0.5360 -0.5349
   60RES   H12416762   5.812   4.166   5.064  0.9065  0.2156 -1.6289
   60RES   H12516763   5.699   4.232   5.237  1.9332  0.1652 -3.1132
   60RES   H12616764   5.775   4.384   5.294  0.9508 -0.0490  1.5077
   60RES   H12716765   5.783   4.263   5.401 -3.7746  0.1883  0.1011
   60RES   O12816766   6.036   4.025   5.124 -0.2319 -0.5766  0.5741
   60RES   C12916767   6.107   4.014   5.242  0.3756  0.3542  0.5381
   60RES   C13016768   6.129   3.865   5.274  0.0016 -0.5976  0.0417
   60RES   C13116769   6.181   3.853   5.415  0.6091  0.1342 -0.0635
   60RES   O13216770   6.188   3.718   5.460 -0.0199  0.2799 -0.4172
   60RES   C13316771   6.255   3.695   5.590 -0.5155 -0.1018 -0.9936
   60RES   H13416772   6.208   4.046   5.215  0.0864 -0.4123 -1.5319
   60RES   H13516773   6.072   4.071   5.328  0.3458 -0.3798  1.0171
   60RES   H13616774   6.040   3.802   5.265 -0.2592 -0.1325 -0.6750
   60RES   H13716775   6.114   3.905   5.483  1.0250 -1.9378  1.9809
   60RES   H13816776   6.284   3.889   5.410  1.4748 -2.4542 -2.2314
   60RES   H13916777   6.248   3.589   5.614  1.4730  0.2050  1.0922
   60RES   H14016778   6.361   3.719   5.590 -0.4201 -0.4787  0.4247
   60RES   H14116779   6.208   3.755   5.668  0.5865  2.7282 -2.4237
   60RES   O14216780   6.225   3.806   5.190  0.4361 -0.0430 -0.1472
   60RES   C14316781   6.181   3.807   5.050  0.0595  0.4188  0.8387
   60RES   C14416782   6.249   3.688   4.981  0.0773  0.1897  0.5235
   60RES   C14516783   6.268   3.717   4.836 -0.6382  0.0919 -0.0757
   60RES   O14616784   6.390   3.653   4.796  0.1277 -0.2576 -0.1049
   60RES   C14716785   6.386   3.517   4.776  0.2794  0.1926  0.3241
   60RES   H14816786   6.073   3.809   5.036  0.3179 -0.1497 -1.3986
   60RES   H14916787   6.205   3.904   5.006  0.6158  0.3694  1.0291
   60RES   H15016788   6.349   3.672   5.022  0.4712  3.2152  0.8567
   60RES   H15116789   6.288   3.823   4.822 -0.0810  0.2639  1.8437
   60RES   H15216790   6.181   3.699   4.774 -1.3280  1.8892  0.3492
   60RES   H15316791   6.329   3.477   4.692  1.2312 -2.9352  1.1163
   60RES   H15416792   6.354   3.474   4.871  2.7817  0.7006  1.4132
   60RES   H15516793   6.485   3.477   4.754  0.2619  0.4644 -0.2686
   60RES   O15616794   6.161   3.568   4.992 -0.0254 -0.5846  0.3847
   60RES   C15716795   6.174   3.502   5.113 -0.3019  1.1091 -0.5364
   60RES   C15816796   6.046   3.426   5.164 -0.0489 -0.5922 -0.0812
   60RES   C15916797   6.051   3.412   5.310  0.2646 -0.2234 -0.5891
   60RES   O16016798   5.929   3.351   5.357 -0.4684 -0.4036 -0.1979
   60RES   C16116799   5.929   3.353   5.498 -0.3944 -0.1291  0.2311
   60RES   H16216800   6.261   3.439   5.095 -0.0170  0.2067  3.6098
   60RES   H16316801   6.207   3.577   5.185  1.3995  1.2811 -1.4648
   60RES   H16416802   5.953   3.483   5.153 -0.3919 -0.8427  1.4446
   60RES   H16516803   6.141   3.361   5.342 -0.5242 -1.7445 -0.7254
   60RES   H16616804   6.054   3.514   5.347 -0.9579  0.1239 -1.4053
   60RES   H16716805   6.024   3.326   5.543  1.3582 -3.0094 -4.8035
   60RES   H16816806   5.841   3.303   5.539 -1.5412 -0.1538 -2.1892
   60RES   H16916807   5.917   3.456   5.533 -3.0387 -0.6404  0.9618
   60RES   O17016808   6.044   3.295   5.095  0.0770 -0.1937 -0.5216
   60RES   C17116809   5.981   3.293   4.966 -0.2486  0.1167  0.4905
   60RES   C17216810   5.969   3.144   4.922  0.6382  0.7093  0.4015
   60RES   C17316811   6.099   3.062   4.936 -0.1195  0.1112 -0.2182
   60RES   O17416812   6.064   2.934   4.976  0.0389 -0.1008  0.0734
   60RES   C17516813   6.170   2.849   5.015  1.0125 -0.4838 -0.1277
   60RES   H17616814   6.028   3.357   4.892  0.1696  0.6610  1.2279
   60RES   H17716815   5.886   3.341   4.989 -0.8162 -1.0208  0.5622
   60RES   H17816816   5.887   3.098   4.979 -1.4314  1.2840 -2.0236
   60RES   H17916817   6.158   3.068   4.845 -1.1808 -2.0252 -1.0803
   60RES   H18016818   6.152   3.106   5.020  1.1517 -2.0081  0.1048
   60RES   H18116819   6.207   2.863   5.116  1.3081  0.8106 -0.4035
   60RES   H18216820   6.245   2.830   4.938  1.2341 -2.3436  0.5291
   60RES   H18316821   6.119   2.753   5.027 -2.8567  1.6980  1.7780
   60RES   O18416822   5.917   3.147   4.790 -0.8893 -0.3986  0.3240
   60RES   C18516823   5.895   3.022   4.722 -0.1259  0.3592 -0.8951
   60RES   C18616824   5.790   2.926   4.784  1.0167  0.5253  0.0195
   60RES   C18716825   5.808   2.785   4.717 -0.3485 -1.9151 -0.2399
   60RES   O18816826   5.718   2.695   4.774  0.2956 -0.1813 -0.0723
   60RES   C18916827   5.654   2.608   4.677  0.2170  0.6836  0.2100
   60RES   H19016828   5.988   2.973   4.694  0.2245  0.8482 -0.5931
   60RES   H19116829   5.868   3.052   4.620  1.5112  0.4836 -1.3061
   60RES   H19216830   5.796   2.912   4.892 -1.8655  1.7357  0.3894
   60RES   H19316831   5.911   2.758   4.741  0.0182 -0.8298 -0.5539
   60RES   H19416832   5.793   2.796   4.609  0.3358  1.8258 -0.0273
   60RES   H19516833   5.671   2.505   4.707 -0.1404  0.7420  0.6151
   60RES   H19616834   5.547   2.626   4.683 -0.1091 -1.1641  0.1518
   60RES   H19716835   5.689   2.612   4.574  0.7900  1.6483  0.4346
   60RES   O19816836   5.655   2.957   4.751 -0.5690  0.0898 -0.0248
   60RES   C19916837   5.591   3.032   4.857  0.7264 -0.1402  0.6327
   60RES   C20016838   5.457   3.082   4.802  0.1574  0.1159  0.6228
   60RES   C20116839   5.404   3.203   4.871 -0.2442 -0.2724 -0.0305
   60RES   O20216840   5.293   3.259   4.807 -0.1308 -0.1232  0.5038
   60RES   C20316841   5.232   3.368   4.874 -0.4773 -0.8958  0.0667
   60RES   H20416842   5.649   3.118   4.890  2.4300 -0.5041 -1.3197
   60RES   H20516843   5.575   2.958   4.935  1.0959 -1.5335 -0.5937
   60RES   H20616844   5.471   3.119   4.700  0.0224 -0.9694  0.2003
   60RES   H20716845   5.393   3.177   4.976  0.8840  1.2561  0.4872
   60RES   H20816846   5.484   3.277   4.871  2.8402 -3.4519 -0.0298
   60RES   H20916847   5.303   3.448   4.893 -1.2719 -0.3988  0.9618
   60RES   H21016848   5.193   3.345   4.973 -1.0254 -0.6506 -0.0941
   60RES   H21116849   5.153   3.415   4.816 -0.3128  0.0465  0.5899
   60RES   O21216850   5.360   2.977   4.806 -0.2794  0.2714 -0.3227
   60RES   C21316851   5.377   2.871   4.704  0.1294 -0.1688 -0.4519
   60RES   C21416852   5.238   2.801   4.659 -0.1950 -0.5373 -0.0145
   60RES   C21516853   5.262   2.657   4.619 -0.1331  0.3143 -0.4462
   60RES   O21616854   5.150   2.582   4.573  0.4769  0.1058 -0.5077
   60RES   C21716855   5.052   2.579   4.669  0.0698 -0.4491  0.4457
   60RES   H21816856   5.447   2.802   4.751  0.2854  0.5534  0.3849
   60RES   H21916857   5.429   2.916   4.619 -1.8893  1.2335 -0.9733
   60RES   H22016858   5.168   2.818   4.741 -0.1008  2.1606 -0.4350
   60RES   H22116859   5.328   2.660   4.533  0.9867 -1.2718  0.3217
   60RES   H22216860   5.316   2.592   4.689 -1.0039 -1.3274 -1.2853
   60RES   H22316861   4.992   2.489   4.657  0.9163 -0.7483 -1.6845
   60RES   H22416862   5.000   2.675   4.677 -1.9129 -1.4603 -0.1108
   60RES   H22516863   5.101   2.551   4.763  1.5139  2.7743  0.7324
   60RES   O22616864   5.193   2.881   4.544 -0.3254  0.4082 -0.4734
   60RES   C22716865   5.146   3.009   4.575  0.4547  0.1165 -0.2550
   60RES   C22816866   5.105   3.091   4.449  0.0203 -0.4912 -0.5046
   60RES   C22916867   5.214   3.097   4.332  0.3044  0.7988 -0.2390
   60RES   O23016868   5.182   3.187   4.224 -0.2944 -0.3474 -0.1535
   60RES   C23116869   5.289   3.189   4.122  0.3414  0.3452  0.1953
   60RES   H23216870   5.232   3.061   4.617  0.5133  0.5943 -0.9712
   60RES   H23316871   5.076   3.007   4.659  0.9611 -0.7602  0.1549
   60RES   H23416872   5.082   3.192   4.481  3.4694  0.4156 -0.7738
   60RES   H23516873   5.231   3.003   4.280  0.5451 -0.4299  1.9827
   60RES   H23616874   5.314   3.124   4.365  1.4293 -2.2976 -0.9699
   60RES   H23716875   5.333   3.093   4.093 -0.9215  0.2818 -1.5492
   60RES   H23816876   5.369   3.256   4.152  1.1963  0.0333 -1.3409
   60RES   H23916877   5.245   3.225   4.029 -0.9450 -0.6922  0.3921
   60RES   O24016878   4.979   3.050   4.407 -0.6752  0.3080 -0.1278
   60RES   C24116879   4.908   3.114   4.301  0.8036 -0.5200  0.1436
   60RES   C24216880   4.872   3.256   4.326  0.0045  0.7560 -0.5830
   60RES   C24316881   4.754   3.302   4.233 -0.3158 -0.7513  0.2798
   60RES   O24416882   4.722   3.440   4.237  0.1510  0.0012 -0.2070
   60RES   C24516883   4.623   3.478   4.147  0.2510  0.2898  0.4817
   60RES   H24616884   4.809   3.069   4.308  0.3080  0.9622  3.8681
   60RES   H24716885   4.950   3.111   4.201  0.4553  2.6532 -0.1612
   60RES   H24816886   4.958   3.321   4.309 -1.4749  2.9429  0.1083
   60RES   H24916887   4.784   3.284   4.130  1.2165  1.0988  0.3693
   60RES   H25016888   4.660   3.249   4.241 -0.0432 -1.1476  0.8450
   60RES   H25116889   4.609   3.586   4.157 -0.0862  0.0817  2.3310
   60RES   H25216890   4.534   3.427   4.180  0.4635  1.1014  2.3603
   60RES   H25316891   4.647   3.455   4.043  0.1689  3.3727 -0.2741
   60RES   O25416892   4.827   3.263   4.465  0.0114 -0.1479 -0.0993
   60RES   C25516893   4.826   3.393   4.515  0.5830  0.0578  0.5819
   60RES   C25616894   4.783   3.389   4.664 -0.2744  0.5613  0.2293
   60RES   C25716895   4.904   3.369   4.762  0.0885 -0.5897 -0.7743
   60RES   O25816896   4.853   3.319   4.888  0.0775 -0.1527  0.4892
   60RES   C25916897   4.905   3.369   5.005  0.3214 -0.1628 -0.6259
   60RES   H26016898   4.931   3.423   4.517  0.1487  1.8307 -1.4548
   60RES   H26116899   4.770   3.462   4.453 -0.1916 -1.6112 -0.6221
   60RES   H26216900   4.707   3.311   4.660  1.4727 -1.2675  1.6349
   60RES   H26316901   4.966   3.288   4.723  0.2366 -1.3600  1.0308
   60RES   H26416902   4.952   3.467   4.770  1.1047 -1.1590  0.2026
   60RES   H26516903   4.831   3.353   5.083 -0.3133 -2.0261 -1.5858
   60RES   H26616904   4.919   3.477   5.001 -0.5080 -0.0264  0.0455
   60RES   H26716905   4.993   3.323   5.051  1.4908  0.3912 -2.2589
   60RES   O26816906   4.730   3.520   4.684 -0.0096 -0.3484  0.9014
   60RES   C26916907   4.617   3.526   4.772 -0.5464 -0.1328 -0.3302
   60RES   C27016908   4.602   3.668   4.835  0.4886 -0.7239 -0.3457
   60RES   C27116909   4.477   3.676   4.935  0.5429  1.0221  0.3265
   60RES   O27216910   4.492   3.791   5.011 -0.8312 -0.2136 -0.3746
   60RES   C27316911   4.375   3.841   5.073 -0.1421 -0.0027 -0.1513
   60RES   H27416912   4.599   3.450   4.848 -1.7747 -1.8582 -2.2861
   60RES   H27516913   4.529   3.523   4.707 -2.4320  4.4123  1.8338
   60RES   H27616914   4.693   3.694   4.891  1.4386 -0.7948 -1.8333
   60RES   H27716915   4.472   3.592   5.004 -0.5283  1.1077  0.3551
   60RES   H27816916   4.380   3.681   4.886  1.2073  2.9185 -0.8482
   60RES   H27916917   4.400   3.927   5.135 -1.2313 -1.0192  1.7364
   60RES   H28016918   4.320   3.763   5.124  1.1662 -1.3993 -0.8542
   60RES   H28116919   4.319   3.885   4.990  0.7458  0.1182 -0.7059
   60RES   H28216920   4.603   3.748   4.761 -0.6228  0.9002  1.3571
   61RES     O116921   5.603   4.553   6.147  0.3054  0.5280 -0.1460
   61RES     C216922   5.653   4.508   6.274 -0.4581  0.5970  0.0816
   61RES     C316923   5.699   4.623   6.364 -0.1554  0.3717 -0.1175
   61RES     C416924   5.760   4.566   6.493  0.1358 -0.4891  0.0401
   61RES     O516925   5.672   4.580   6.608 -0.5590 -0.3523  0.4808
   61RES     C616926   5.743   4.585   6.731 -0.0639 -0.2844  0.0673
   61RES     H716927   5.577   4.447   6.323 -0.6332  0.3162 -0.5357
   61RES     H816928   5.735   4.441   6.249 -0.7781 -0.2568  1.2476
   61RES     H916929   5.609   4.682   6.380 -0.7315 -0.2374 -1.0376
   61RES    H1016930   5.848   4.621   6.527  0.6508 -1.0549 -0.3583
   61RES    H1116931   5.806   4.468   6.476  0.7446  0.0466 -1.4935
   61RES    H1216932   5.809   4.670   6.744  0.2615 -0.1935 -1.9257
   61RES    H1316933   5.666   4.583   6.808  1.2895  1.6204  1.4845
   61RES    H1416934   5.803   4.495   6.747 -0.0166 -0.5021 -1.2238
   61RES    H1516935   5.670   4.597   6.097  0.6640 -0.4478 -0.5220
   61RES    O1616936   5.793   4.696   6.290  0.1312  0.3321 -0.0431
   61RES    C1716937   5.821   4.823   6.348  0.5459 -0.0017 -0.3420
   61RES    C1816938   5.748   4.938   6.268  0.1416  0.0469  0.5333
   61RES    C1916939   5.641   5.011   6.350 -0.2207  0.0926  0.7229
   61RES    O2016940   5.680   5.076   6.470 -0.0166 -0.2220 -0.2119
   61RES    C2116941   5.777   5.182   6.457 -0.2373  0.3127  0.6310
   61RES    H2216942   5.926   4.850   6.363  0.5352  0.6952 -1.5303
   61RES    H2316943   5.784   4.818   6.451  0.5892 -0.3197 -0.3402
   61RES    H2416944   5.693   4.898   6.183  0.6823  3.5012 -1.5071
   61RES    H2516945   5.594   5.088   6.289 -0.8635 -1.5725 -0.9265
   61RES    H2616946   5.563   4.942   6.383  0.1295  0.6044  2.6835
   61RES    H2716947   5.779   5.239   6.550  0.1898  2.4490 -0.6541
   61RES    H2816948   5.752   5.254   6.380 -0.4598  0.1412  0.5403
   61RES    H2916949   5.880   5.152   6.443 -0.5310 -0.7243  0.5875
   61RES    O3016950   5.838   5.021   6.202  0.0570  0.4271 -0.1489
   61RES    C3116951   5.930   4.953   6.109 -0.3354  0.2781  0.0698
   61RES    C3216952   6.053   5.040   6.086  0.8849 -0.0710  0.4049
   61RES    C3316953   6.133   4.975   5.963 -0.0614 -0.1026  0.2426
   61RES    O3416954   6.266   5.026   5.951 -0.6938 -0.1402 -0.0528
   61RES    C3516955   6.347   5.001   5.837  0.1782 -0.0540 -0.7644
   61RES    H3616956   5.968   4.853   6.129  1.4867  0.7666 -0.7679
   61RES    H3716957   5.864   4.960   6.023  0.4420  1.6907 -0.4308
   61RES    H3816958   6.029   5.145   6.067 -0.5400 -0.4638 -0.0665
   61RES    H3916959   6.075   4.981   5.871  0.0966  2.4355  0.2782
   61RES    H4016960   6.151   4.868   5.972  3.2182  0.1481 -2.3450
   61RES    H4116961   6.447   5.035   5.864  0.6111 -1.5896 -0.4129
   61RES    H4216962   6.303   5.055   5.753  0.8848  1.2401 -0.3168
   61RES    H4316963   6.366   4.897   5.811 -1.7636 -0.7066  0.2852
   61RES    O4416964   6.135   5.026   6.200 -0.4605  0.3431  0.0062
   61RES    C4516965   6.189   5.144   6.253 -0.5324  0.3659 -0.4177
   61RES    C4616966   6.279   5.112   6.379 -0.1263  0.2061 -0.2050
   61RES    C4716967   6.193   5.029   6.482  0.1871  0.0294  0.6830
   61RES    O4816968   6.251   5.013   6.608 -0.2921  0.1252 -0.8622
   61RES    C4916969   6.220   5.114   6.706 -0.2785 -0.6025 -0.0973
   61RES    H5016970   6.107   5.208   6.285 -0.0629 -0.7744  3.2605
   61RES    H5116971   6.244   5.201   6.178  1.9941  0.5039  1.4965
   61RES    H5216972   6.311   5.207   6.422 -2.2299  0.8543 -0.0246
   61RES    H5316973   6.099   5.082   6.497  0.5333  0.5162  1.1881
   61RES    H5416974   6.168   4.935   6.434  0.4706  0.5659 -0.5599
   61RES    H5516975   6.113   5.105   6.720 -0.1183 -1.5634  0.5409
   61RES    H5616976   6.245   5.209   6.659 -1.5484 -0.0724  0.2906
   61RES    H5716977   6.272   5.094   6.800 -0.0997  0.3264  0.0010
   61RES    O5816978   6.394   5.039   6.350 -0.0214 -0.3810 -0.3515
   61RES    C5916979   6.506   5.111   6.294 -0.5858  0.2834  0.3217
   61RES    C6016980   6.583   5.212   6.381 -0.0707  0.5078 -0.8998
   61RES    C6116981   6.705   5.264   6.309 -0.1119 -0.5518 -0.0571
   61RES    O6216982   6.796   5.173   6.251 -0.3150 -1.0341 -1.0841
   61RES    C6316983   6.926   5.226   6.213 -0.4674  0.6250  0.4711
   61RES    H6416984   6.474   5.157   6.201 -0.1642 -1.3236 -0.6414
   61RES    H6516985   6.581   5.039   6.261 -1.0361 -0.2429  0.4208
   61RES    H6616986   6.515   5.293   6.407  1.7125  2.1382 -1.2220
   61RES    H6716987   6.679   5.322   6.220  2.8809  2.2686  0.8230
   61RES    H6816988   6.765   5.335   6.367 -0.3130 -0.8044  0.4601
   61RES    H6916989   6.984   5.144   6.168 -3.3982 -0.6061 -1.2362
   61RES    H7016990   6.959   5.290   6.294 -3.0156  0.5475  1.5879
   61RES    H7116991   6.920   5.291   6.126  1.8435 -0.2267 -0.3752
   61RES    O7216992   6.611   5.150   6.510 -0.2451 -0.0203  0.0820
   61RES    C7316993   6.713   5.055   6.514  0.0778  0.2926 -0.1931
   61RES    C7416994   6.703   4.984   6.647  1.1358  0.5091  0.2089
   61RES    C7516995   6.557   4.940   6.681 -0.7194  0.2238 -0.2252
   61RES    O7616996   6.559   4.833   6.784  0.3129 -0.2953  1.1976
   61RES    C7716997   6.435   4.769   6.791  0.5299 -0.4074 -0.6935
   61RES    H7816998   6.697   4.975   6.441 -0.0353  2.1185 -2.2204
   61RES    H7916999   6.805   5.113   6.503  0.1233  0.6284  1.8029
   61RES    H8017000   6.764   4.895   6.631 -0.7783 -0.2664 -3.3740
   61RES    H8117001   6.507   4.905   6.590  0.7106 -4.3300  0.6066
   61RES    H8217002   6.496   5.026   6.709 -0.8189  0.0645  0.0474
   61RES    H8317003   6.412   4.717   6.697 -0.8690  0.0865 -0.6440
   61RES    H8417004   6.366   4.852   6.802  0.8683  0.2524 -3.2334
   61RES    H8517005   6.424   4.706   6.879  0.2208  1.2045  0.4490
   61RES    O8617006   6.742   5.078   6.738 -0.3521 -0.5674  0.5084
   61RES    C8717007   6.824   5.007   6.829 -0.4099  0.2164 -0.6164
   61RES    C8817008   6.894   5.108   6.918  0.2366 -0.8800 -0.8254
   61RES    C8917009   6.949   5.032   7.044  0.2803 -0.1272 -0.0209
   61RES    O9017010   6.926   5.110   7.161  0.0601 -0.1202 -0.7159
   61RES    C9117011   7.017   5.216   7.171  0.4869  0.3878 -0.2142
   61RES    H9217012   6.754   4.957   6.897 -0.9235 -0.0315 -1.3188
   61RES    H9317013   6.902   4.937   6.799  0.6605 -0.3420  3.1531
   61RES    H9417014   6.828   5.190   6.946  1.2542  0.5026 -2.4174
   61RES    H9517015   6.895   4.940   7.067 -1.4201  1.2388  1.6860
   61RES    H9617016   7.050   5.004   7.015 -0.7468 -2.1428 -1.7629
   61RES    H9717017   7.008   5.264   7.269  0.8898 -0.1824  0.1105
   61RES    H9817018   7.118   5.174   7.166  0.1847 -0.5406  1.0740
   61RES    H9917019   6.994   5.286   7.092 -0.5838  1.8183  1.3283
   61RES   O10017020   7.017   5.156   6.860  0.5117 -0.2414  0.4535
   61RES   C10117021   6.996   5.256   6.760  0.7617 -0.3336 -0.3934
   61RES   C10217022   7.119   5.277   6.679  0.1498  0.3771 -0.2385
   61RES   C10317023   7.113   5.411   6.601 -0.0685 -0.4274 -0.8095
   61RES   O10417024   7.116   5.518   6.690 -0.4237 -0.1492  0.5016
   61RES   C10517025   7.094   5.652   6.628  0.1330  0.3996  0.1176
   61RES   H10617026   6.986   5.350   6.815 -1.3163 -0.3572 -0.6735
   61RES   H10717027   6.901   5.252   6.707 -0.5893  3.2223  1.5416
   61RES   H10817028   7.207   5.273   6.743  1.1383  1.8578 -1.4750
   61RES   H10917029   7.022   5.419   6.542 -0.9501 -1.3103  0.4180
   61RES   H11017030   7.201   5.421   6.539  1.3242 -1.2806  0.9718
   61RES   H11117031   7.175   5.679   6.560  0.4510  0.2998  0.4568
   61RES   H11217032   7.090   5.737   6.697  2.2480  0.8513 -0.2714
   61RES   H11317033   7.008   5.652   6.561 -0.7682  0.0609  1.2653
   61RES   O11417034   7.123   5.174   6.589  0.3551  0.0923 -0.0479
   61RES   C11517035   7.224   5.080   6.605  0.1488 -0.2583 -0.1088
   61RES   C11617036   7.206   4.982   6.489 -0.5651  0.2099  0.3880
   61RES   C11717037   7.052   4.936   6.460 -0.2716  0.0950  0.3105
   61RES   O11817038   7.070   4.817   6.394 -0.0378  0.8848 -0.2205
   61RES   C11917039   6.946   4.791   6.322 -0.0701 -0.0233  0.9496
   61RES   H12017040   7.321   5.128   6.596 -0.2823  0.9282  1.2336
   61RES   H12117041   7.217   5.034   6.704 -1.9717  0.7242  0.2282
   61RES   H12217042   7.253   4.887   6.514 -1.6981 -0.4603  0.0185
   61RES   H12317043   7.004   4.926   6.557 -0.1436  1.3386  0.5061
   61RES   H12417044   6.995   5.009   6.403  0.0382 -1.0798 -1.5462
   61RES   H12517045   6.938   4.699   6.263 -0.4591 -1.0967  2.6508
   61RES   H12617046   6.920   4.875   6.258  1.3222  0.4376  0.9846
   61RES   H12717047   6.874   4.771   6.401  1.2262  0.3000  2.2419
   61RES   O12817048   7.277   5.031   6.374 -0.4633  0.2166  0.6452
   61RES   C12917049   7.302   4.936   6.265  0.0336  0.3921 -0.2180
   61RES   C13017050   7.393   5.000   6.158  0.0909  0.8974  0.2044
   61RES   C13117051   7.519   5.056   6.223 -0.1931 -0.4829 -0.0845
   61RES   O13217052   7.632   5.050   6.137  0.8177  0.0397  0.3068
   61RES   C13317053   7.628   5.149   6.034  0.0092 -0.2688 -0.1042
   61RES   H13417054   7.357   4.847   6.295 -2.0609 -0.7993  0.1356
   61RES   H13517055   7.212   4.894   6.220 -0.8399 -0.0666  1.8927
   61RES   H13617056   7.424   4.926   6.084 -3.0613 -0.0168 -0.2650
   61RES   H13717057   7.552   4.992   6.305  2.0268  1.6385  0.7335
   61RES   H13817058   7.500   5.157   6.257  0.3026 -0.3470 -0.2036
   61RES   H13917059   7.584   5.242   6.069 -0.3932  0.6670 -2.9390
   61RES   H14017060   7.731   5.165   6.003  0.2365 -1.6581 -0.0855
   61RES   H14117061   7.577   5.117   5.943  2.1666 -1.2248 -1.0070
   61RES   O14217062   7.316   5.093   6.075 -0.3183  0.3075  0.3985
   61RES   C14317063   7.231   5.031   5.972 -0.0245 -0.1009  0.2668
   61RES   C14417064   7.150   5.154   5.916 -0.3215  0.0705 -0.2528
   61RES   C14517065   7.016   5.114   5.854  0.7419  0.6837  0.3011
   61RES   O14617066   6.957   5.235   5.828  0.0814  0.0664  0.0398
   61RES   C14717067   6.898   5.243   5.699 -0.6387  0.0851 -0.0885
   61RES   H14817068   7.279   4.982   5.887 -2.0170  0.2768 -1.0940
   61RES   H14917069   7.163   4.960   6.019  0.3365 -2.0794 -2.1145
   61RES   H15017070   7.140   5.240   5.983 -0.5736  0.3351 -0.6286
   61RES   H15117071   6.968   5.066   5.940 -0.7455 -0.8316 -1.3294
   61RES   H15217072   7.023   5.043   5.771 -3.6288  0.1406  0.2972
   61RES   H15317073   6.836   5.157   5.673  0.5247 -0.7898 -0.0386
   61RES   H15417074   6.986   5.236   5.635 -1.7612 -0.1264 -1.6521
   61RES   H15517075   6.843   5.336   5.688  0.7058  0.8430 -0.5310
   61RES   O15617076   7.226   5.209   5.805 -0.0742 -0.2002  0.3155
   61RES   C15717077   7.331   5.290   5.843 -0.2586 -0.1139 -0.0278
   61RES   C15817078   7.369   5.392   5.734  0.2454  0.2279 -0.3637
   61RES   C15917079   7.522   5.418   5.732  1.0119 -0.2585  0.1544
   61RES   O16017080   7.595   5.395   5.852 -0.2710  0.0954  0.5318
   61RES   C16117081   7.585   5.509   5.941 -0.5512 -0.2362  0.8373
   61RES   H16217082   7.314   5.334   5.941  0.4409 -1.6021  0.7766
   61RES   H16317083   7.414   5.225   5.870  0.0659  1.2308  2.4623
   61RES   H16417084   7.347   5.345   5.638 -2.4117  0.5630  0.0558
   61RES   H16517085   7.560   5.361   5.647  0.9017  1.2078 -0.8804
   61RES   H16617086   7.540   5.520   5.701 -0.6301 -0.9338 -3.2468
   61RES   H16717087   7.483   5.547   5.947 -0.0632  1.0133  1.5085
   61RES   H16817088   7.649   5.591   5.907  0.0350 -0.4810  1.3288
   61RES   H16917089   7.613   5.491   6.044 -1.9662 -0.2772  1.2235
   61RES   O17017090   7.297   5.511   5.748  0.1441 -0.2211 -0.2108
   61RES   C17117091   7.162   5.504   5.733 -0.1340 -0.4369  0.3017
   61RES   C17217092   7.088   5.636   5.693  0.3181  0.3240  0.2775
   61RES   C17317093   6.937   5.641   5.718 -0.1866  0.4952 -0.2826
   61RES   O17417094   6.881   5.766   5.682 -0.2330  0.4338  0.2645
   61RES   C17517095   6.746   5.786   5.704  0.4573 -0.3738 -0.0813
   61RES   H17617096   7.117   5.476   5.828 -0.2894 -0.4301  0.2299
   61RES   H17717097   7.142   5.432   5.654  0.1676  1.0940 -1.2011
   61RES   H17817098   7.128   5.721   5.749  1.5168 -0.4842  0.6676
   61RES   H17917099   6.888   5.558   5.667 -1.7644  2.0451 -1.3506
   61RES   H18017100   6.909   5.626   5.823  2.0587 -1.6319  0.0768
   61RES   H18117101   6.686   5.741   5.625 -0.5815  2.1152 -0.7627
   61RES   H18217102   6.710   5.887   5.684 -1.1586 -0.9609 -0.2138
   61RES   H18317103   6.723   5.757   5.807  1.2824  0.5289  0.3624
   61RES   O18417104   7.097   5.647   5.556  0.6500 -0.2310  0.2194
   61RES   C18517105   7.208   5.706   5.490 -0.5396  0.1263  0.6877
   61RES   C18617106   7.217   5.667   5.339 -0.1170 -0.8827 -0.7454
   61RES   C18717107   7.362   5.677   5.280 -0.1902 -0.1654  0.0485
   61RES   O18817108   7.382   5.582   5.175 -0.0510  0.4658  0.4438
   61RES   C18917109   7.371   5.638   5.047  0.2723  0.1676  0.9286
   61RES   H19017110   7.299   5.678   5.542  0.2540  0.5634 -0.4382
   61RES   H19117111   7.199   5.815   5.499 -2.1043  0.0177  0.4978
   61RES   H19217112   7.181   5.567   5.316 -0.2123 -0.4733 -2.4829
   61RES   H19317113   7.431   5.632   5.350 -0.7674  0.5697  1.1009
   61RES   H19417114   7.389   5.781   5.261  0.6835 -0.3542  0.2635
   61RES   H19517115   7.280   5.696   5.036 -0.5853 -0.8164  2.7238
   61RES   H19617116   7.461   5.691   5.017  0.7234  0.1761  2.2830
   61RES   H19717117   7.359   5.549   4.985 -0.0355  0.7155  0.1877
   61RES   O19817118   7.149   5.768   5.257  0.0369 -0.8669 -0.3903
   61RES   C19917119   7.005   5.781   5.304 -0.2026  0.2719 -0.3907
   61RES   C20017120   6.918   5.866   5.206 -0.4292 -0.0193  0.7702
   61RES   C20117121   6.782   5.915   5.265 -0.0585  0.6143  0.9178
   61RES   O20217122   6.795   6.040   5.338 -0.2158  0.2200  0.1671
   61RES   C20317123   6.671   6.085   5.386 -0.1541 -0.1916  0.4928
   61RES   H20417124   7.013   5.842   5.394 -0.6815 -1.8887  1.1528
   61RES   H20517125   6.957   5.684   5.306  0.7726 -0.2621 -2.0448
   61RES   H20617126   6.978   5.954   5.183  1.9674 -2.4491 -2.7146
   61RES   H20717127   6.712   5.937   5.184 -1.2375  1.2570  2.0903
   61RES   H20817128   6.748   5.830   5.324  0.5163 -0.3141 -0.0600
   61RES   H20917129   6.610   6.105   5.298  0.7727 -1.5462 -0.4767
   61RES   H21017130   6.685   6.184   5.429 -4.4306  0.9485 -0.4954
   61RES   H21117131   6.619   6.017   5.454 -0.8422 -0.9368 -0.7620
   61RES   O21217132   6.870   5.789   5.092  0.1472 -0.2277  0.1846
   61RES   C21317133   6.972   5.738   5.017  0.1081  0.3258 -0.2504
   61RES   C21417134   6.913   5.660   4.891  0.2059 -0.0325  0.3598
   61RES   C21517135   6.828   5.539   4.930  0.1373 -0.2096 -0.4563
   61RES   O21617136   6.748   5.504   4.821 -0.8692  0.1775 -0.0581
   61RES   C21717137   6.630   5.431   4.856  0.1085 -0.0757  0.3229
   61RES   H21817138   7.042   5.673   5.070 -0.7669 -1.4219 -1.1968
   61RES   H21917139   7.027   5.829   4.995  1.2512 -0.1744  0.4694
   61RES   H22017140   6.859   5.733   4.831 -1.2787  1.5182  3.4535
   61RES   H22117141   6.890   5.468   4.984 -3.4218 -1.8338  1.6256
   61RES   H22217142   6.760   5.574   5.008  3.5878  0.4090  2.4469
   61RES   H22317143   6.579   5.478   4.941  3.1848  4.1980 -0.0075
   61RES   H22417144   6.665   5.328   4.858 -1.6032 -0.7090 -0.7836
   61RES   H22517145   6.567   5.441   4.768  1.7432  1.2941 -0.7092
   61RES   O22617146   7.036   5.627   4.833  0.4447  0.0093 -0.2441
   61RES   C22717147   7.034   5.614   4.692 -0.8655 -0.6617 -0.2321
   61RES   C22817148   7.180   5.587   4.637  0.5893 -0.0594 -0.8159
   61RES   C22917149   7.183   5.562   4.485 -0.4990 -0.3353 -0.7801
   61RES   O23017150   7.302   5.482   4.464 -0.3513  0.4714 -0.2254
   61RES   C23117151   7.308   5.436   4.324 -0.1394 -0.3351 -1.2330
   61RES   H23217152   6.992   5.704   4.646  0.6693 -0.6808 -1.6766
   61RES   H23317153   6.965   5.538   4.657 -1.5177 -0.1581 -0.0618
   61RES   H23417154   7.200   5.495   4.692 -3.1613 -1.1535 -1.1249
   61RES   H23517155   7.185   5.650   4.420  2.9450  0.7868  0.7734
   61RES   H23617156   7.094   5.503   4.464 -0.9287  0.0312  0.0055
   61RES   H23717157   7.412   5.405   4.310 -0.0559  0.4917 -2.5535
   61RES   H23817158   7.270   5.514   4.258  0.0416  0.5657 -0.2848
   61RES   H23917159   7.247   5.347   4.310  0.4362 -0.6531 -1.8018
   61RES   O24017160   7.262   5.692   4.679  0.4416  0.6696  0.3832
   61RES   C24117161   7.402   5.672   4.672  0.5200 -0.1450  1.0521
   61RES   C24217162   7.472   5.809   4.674 -0.0737 -0.1386 -0.0961
   61RES   C24317163   7.628   5.791   4.708  0.8991 -0.3455 -0.0290
   61RES   O24417164   7.687   5.903   4.772 -0.1367  0.5710  0.2335
   61RES   C24517165   7.715   6.024   4.693 -0.1369  0.0374 -0.1268
   61RES   H24617166   7.435   5.607   4.591  0.2563 -0.3403  1.1032
   61RES   H24717167   7.432   5.619   4.763 -2.6452 -2.0366  1.0378
   61RES   H24817168   7.422   5.869   4.750  1.0433  1.3178 -0.4989
   61RES   H24917169   7.637   5.707   4.778 -1.5589  0.6641  1.5552
   61RES   H25017170   7.681   5.776   4.613  1.2368  1.1812 -0.0823
   61RES   H25117171   7.754   6.003   4.593 -1.7997  1.8047 -1.1773
   61RES   H25217172   7.793   6.087   4.737  2.0383 -1.1123 -2.1877
   61RES   H25317173   7.626   6.086   4.684 -1.4043 -1.8151 -0.7599
   61RES   O25417174   7.476   5.864   4.547 -0.2731  0.1447 -0.1095
   61RES   C25517175   7.368   5.942   4.501  0.8975  0.3214 -0.8101
   61RES   C25617176   7.397   6.060   4.418 -0.3885 -0.2365 -0.7449
   61RES   C25717177   7.465   6.175   4.499 -0.1293  0.2011  0.6131
   61RES   O25817178   7.432   6.294   4.432 -0.0995 -0.3374 -0.4065
   61RES   C25917179   7.489   6.415   4.491  0.0039 -0.0628  0.0076
   61RES   H26017180   7.298   5.872   4.456  0.2325 -0.6905  1.7386
   61RES   H26117181   7.306   5.966   4.587  1.1145  0.9276 -0.8167
   61RES   H26217182   7.295   6.086   4.392 -0.6797  1.6322  2.0128
   61RES   H26317183   7.446   6.185   4.605 -0.2564  0.1680  0.5932
   61RES   H26417184   7.569   6.150   4.475 -0.0927 -0.4503  1.4095
   61RES   H26517185   7.598   6.410   4.493 -0.0792 -1.7981  1.5411
   61RES   H26617186   7.451   6.430   4.591 -1.0630 -3.1790  0.1452
   61RES   H26717187   7.464   6.500   4.428  2.2177  0.9891  0.4903
   61RES   O26817188   7.481   6.015   4.306 -0.3509  0.3907 -0.1300
   61RES   C26917189   7.466   6.091   4.189  0.3547  0.0249 -0.0298
   61RES   C27017190   7.400   6.016   4.072  0.4130 -0.5384  0.0264
   61RES   C27117191   7.476   5.895   4.030  0.3594  0.3067  0.7672
   61RES   O27217192   7.395   5.804   3.947 -0.5457  0.4573 -0.1670
   61RES   C27317193   7.433   5.664   3.960 -0.3791 -0.1225 -0.0316
   61RES   H27417194   7.562   6.128   4.153 -0.0994  0.8540 -0.3765
   61RES   H27517195   7.416   6.187   4.203  2.0032  0.6076  2.1013
   61RES   H27617196   7.305   5.976   4.107 -0.4210  0.0843 -1.4877
   61RES   H27717197   7.506   5.848   4.124  1.5634 -2.7959 -1.1125
   61RES   H27817198   7.562   5.926   3.970 -1.0107  0.5463 -1.0850
   61RES   H27917199   7.534   5.650   3.924 -0.1193 -1.8083  1.2697
   61RES   H28017200   7.371   5.602   3.895  0.6923 -2.1054  0.7944
   61RES   H28117201   7.424   5.628   4.063  1.3830 -1.1595 -0.2188
   61RES   H28217202   7.384   6.086   3.990 -0.1723  0.6379  1.1394
   62RES     O117203   0.097   6.565   6.387 -0.0442  0.4940 -0.0243
   62RES     C217204   0.050   6.698   6.393  0.4290  0.1086 -0.4083
   62RES     C317205   0.160   6.801   6.431 -0.1662  0.3753  0.5249
   62RES     C417206   0.249   6.813   6.299  0.8251 -0.1932 -0.4090
   62RES     O517207   0.178   6.888   6.202  0.5171  0.0355 -0.5000
   62RES     C617208   0.242   6.896   6.076  0.7762  0.7298 -0.0445
   62RES     H717209   7.817   6.727   6.300  0.9365  0.0586 -0.6990
   62RES     H817210   7.792   6.690   6.472  2.6205  1.4452  1.8865
   62RES     H917211   0.223   6.764   6.512  1.8518  1.0951 -0.7046
   62RES    H1017212   0.278   6.715   6.263 -2.2120 -1.3166  0.0128
   62RES    H1117213   0.341   6.869   6.316 -0.8489  2.4315  0.3558
   62RES    H1217214   0.281   6.797   6.053  1.1547  1.3548 -2.2144
   62RES    H1317215   0.175   6.927   5.995 -0.0828 -0.8795  0.0318
   62RES    H1417216   0.324   6.966   6.063 -0.0301  1.5202 -0.9747
   62RES    H1517217   0.155   6.538   6.457  0.0321 -1.2970 -0.7377
   62RES    O1617218   0.094   6.923   6.464  0.6959  0.0568 -0.5032
   62RES    C1717219   0.186   7.027   6.506 -0.3910  0.4988  0.9458
   62RES    C1817220   0.118   7.153   6.560 -0.3465 -0.3250 -0.0680
   62RES    C1917221   0.210   7.222   6.658 -0.2363  0.0678 -0.7847
   62RES    O2017222   0.125   7.301   6.744 -0.7147 -0.3033  0.4041
   62RES    C2117223   0.191   7.370   6.849 -0.3469  0.0061  0.1383
   62RES    H2217224   0.250   7.058   6.423 -0.4898  0.1819  0.7529
   62RES    H2317225   0.269   6.993   6.568  0.1694  3.5213  1.9485
   62RES    H2417226   0.034   7.125   6.624 -1.1824  1.6725 -0.2725
   62RES    H2517227   0.274   7.155   6.715 -1.0627 -0.8676 -0.9408
   62RES    H2617228   0.282   7.280   6.601  2.9533 -0.0799  2.8931
   62RES    H2717229   0.258   7.303   6.903  1.0512 -0.3840 -1.9708
   62RES    H2817230   0.117   7.406   6.919 -0.7614 -0.2428 -0.1695
   62RES    H2917231   0.240   7.457   6.805 -0.9208  0.1019 -0.3222
   62RES    O3017232   0.075   7.243   6.458 -0.7913 -0.0609  0.4854
   62RES    C3117233   7.797   7.195   6.363 -0.3297 -0.4896 -0.3820
   62RES    C3217234   7.688   7.305   6.326  0.0219 -0.6798  0.0987
   62RES    C3317235   7.565   7.252   6.255  0.5296  0.2238  0.4790
   62RES    O3417236   7.471   7.353   6.215 -0.0925  0.2089  0.1455
   62RES    C3517237   7.342   7.298   6.190 -0.6339 -0.6699  0.2679
   62RES    H3617238   0.027   7.159   6.272 -2.1070  1.0736 -1.9900
   62RES    H3717239   7.739   7.117   6.411  0.3744 -1.3674 -0.9477
   62RES    H3817240   7.664   7.350   6.422 -1.7648  2.1890 -1.6035
   62RES    H3917241   7.507   7.190   6.323 -3.1278  1.9488 -0.9281
   62RES    H4017242   7.591   7.186   6.172 -0.8475  1.1333 -0.7025
   62RES    H4117243   7.266   7.373   6.167  1.9698  2.1577  0.6115
   62RES    H4217244   7.317   7.259   6.288 -0.5215  1.1878  1.0531
   62RES    H4317245   7.333   7.218   6.116 -0.4722  0.6511 -1.2201
   62RES    O4417246   7.756   7.404   6.249 -0.3168 -0.0777 -0.6901
   62RES    C4517247   7.708   7.538   6.249 -0.1230  0.8225  0.2120
   62RES    C4617248   7.781   7.638   6.353  0.1941  0.1298 -0.2159
   62RES    C4717249   7.795   7.578   6.492  0.0794  0.2778  0.4953
   62RES    O4817250   0.012   7.683   6.580 -0.1655 -0.2002 -0.3926
   62RES    C4917251   7.808   7.650   6.709  0.1913  0.6775 -0.4341
   62RES    H5017252   7.601   7.535   6.265 -0.4765  2.0573 -1.6912
   62RES    H5117253   7.718   7.565   6.143  0.4213 -0.2830 -0.0242
   62RES    H5217254   7.724   7.731   6.347 -1.2391 -0.4910  2.7276
   62RES    H5317255   7.693   7.548   6.514  0.5284 -0.9157  1.0108
   62RES    H5417256   0.054   7.500   6.498 -0.0522  0.1229  0.1345
   62RES    H5517257   0.024   7.723   6.782  0.4109  3.0997 -2.8504
   62RES    H5617258   0.017   7.549   6.741 -1.8726 -0.5009 -2.2942
   62RES    H5717259   7.702   7.654   6.732  0.3784 -1.1297  0.8392
   62RES    O5817260   0.100   7.659   6.310 -0.1930  0.2321 -0.0352
   62RES    C5917261   0.115   7.769   6.221  0.0286  0.6588 -0.2512
   62RES    C6017262   0.234   7.748   6.123  0.4494  0.0632  0.2396
   62RES    C6117263   0.266   0.065   6.056 -0.1529  0.2247  0.2146
   62RES    O6217264   0.343   0.145   6.148 -0.4606  0.2693 -0.2662
   62RES    C6317265   0.463   0.182   6.080 -0.2702 -0.1691  0.5858
   62RES    H6417266   0.138   0.043   6.275  0.4256  1.0384 -1.0511
   62RES    H6517267   0.021   7.783   6.167 -1.3602  0.4368  2.0255
   62RES    H6617268   0.323   7.726   6.182  0.1659  2.7172  1.7453
   62RES    H6717269   0.311   0.049   5.958 -0.0772 -2.0512  0.6026
   62RES    H6817270   0.168   0.107   6.037 -0.6806 -0.9277  0.3714
   62RES    H6917271   0.522   0.092   6.060  0.3469  0.8244 -2.2549
   62RES    H7017272   0.532   0.238   6.143  2.7378 -0.6667 -2.0869
   62RES    H7117273   0.452   0.232   5.984  0.4513  0.2882  0.7365
   62RES    O7217274   0.198   7.659   6.016  0.0316  0.1780 -0.0392
   62RES    C7317275   0.237   7.528   6.054  0.0099  0.2351  0.7353
   62RES    C7417276   0.186   7.426   5.941  0.7069 -0.5701 -0.0443
   62RES    C7517277   0.201   7.281   6.001 -0.0999  0.0849 -0.0828
   62RES    O7617278   0.122   7.182   5.932 -0.1227 -0.3910 -0.1800
   62RES    C7717279   7.800   7.201   5.943  0.3116 -0.2883  0.5567
   62RES    H7817280   0.343   7.515   6.076 -0.0215  1.0644  1.4188
   62RES    H7917281   0.181   7.501   6.144 -1.5262  0.2485 -0.2049
   62RES    H8017282   0.081   7.450   5.920  0.6484  1.6361  2.5313
   62RES    H8117283   0.167   7.269   6.104  0.0127 -0.3668 -0.0933
   62RES    H8217284   0.305   7.248   5.992 -0.0403  0.0912  0.5601
   62RES    H8317285   7.755   7.176   5.847  0.4298 -0.0335  0.4352
   62RES    H8417286   7.755   7.298   5.964 -1.0003 -0.1685 -2.5420
   62RES    H8517287   7.780   7.134   6.026 -0.9181 -1.0770 -0.3654
   62RES    O8617288   0.268   7.444   5.826 -0.3524 -0.3063 -0.6921
   62RES    C8717289   0.187   7.480   5.717 -0.6213  0.5450 -0.1278
   62RES    C8817290   0.126   7.356   5.641  0.4805 -0.7153 -0.2503
   62RES    C8917291   7.799   7.391   5.593  0.1582 -0.3326  0.2110
   62RES    O9017292   7.749   7.288   5.517  0.5420 -0.5088  0.2474
   62RES    C9117293   7.651   7.333   5.428  0.1476 -0.5416  0.1666
   62RES    H9217294   0.116   7.558   5.745  0.9422  1.9941 -0.1132
   62RES    H9317295   0.247   7.537   5.646 -0.2050 -0.8767 -0.9302
   62RES    H9417296   0.135   7.273   5.711  1.7466  0.3612  0.9073
   62RES    H9517297   7.738   7.418   5.679 -0.5843 -1.5771  0.0901
   62RES    H9617298   7.809   7.481   5.531  0.1595 -0.1526  0.4755
   62RES    H9717299   7.602   7.248   5.381  1.3936 -1.9437  1.3231
   62RES    H9817300   7.579   7.394   5.482  0.7440  1.7359 -1.5713
   62RES    H9917301   7.700   7.401   5.359 -0.3789  0.5074  0.8104
   62RES   O10017302   0.211   7.339   5.527  0.4405 -0.1719  0.5779
   62RES   C10117303   0.322   7.271   5.570  0.1029  0.1395  0.6642
   62RES   C10217304   0.421   7.255   5.451  0.1484  0.1399  1.2677
   62RES   C10317305   0.384   7.137   5.360 -0.1804  0.6009 -0.4192
   62RES   O10417306   0.502   7.124   5.284  0.4579 -0.4483  0.5238
   62RES   C10517307   0.477   7.072   5.159  0.3032 -0.1503 -0.1328
   62RES   H10617308   0.294   7.171   5.604 -2.8862  0.8104  0.2349
   62RES   H10717309   0.373   7.323   5.652 -0.2625  1.1057  0.2834
   62RES   H10817310   0.443   7.348   5.399 -1.0719  0.0580  0.5804
   62RES   H10917311   0.296   7.151   5.297  0.6042  0.3410 -1.5898
   62RES   H11017312   0.372   7.046   5.418  2.2728 -0.2676 -1.2064
   62RES   H11117313   0.395   7.001   5.150  2.4322 -3.0617  2.3172
   62RES   H11217314   0.566   7.037   5.106  0.1785  1.3133 -1.3503
   62RES   H11317315   0.442   7.142   5.083  1.3759 -0.6504 -1.1082
   62RES   O11417316   0.537   7.222   5.526  0.4982  0.5180  0.4085
   62RES   C11517317   0.664   7.262   5.488  0.7364  0.4770 -0.0900
   62RES   C11617318   0.758   7.245   5.611 -0.1427  0.1638 -0.4748
   62RES   C11717319   0.901   7.289   5.582  0.2987  0.1155 -0.0740
   62RES   O11817320   0.966   7.174   5.530 -0.0022 -0.5620  0.1838
   62RES   C11917321   1.094   7.186   5.467 -0.1029 -0.0714 -0.1842
   62RES   H12017322   0.710   7.198   5.412 -2.8241 -0.6716 -1.3657
   62RES   H12117323   0.671   7.362   5.444 -0.3481  0.7726  0.4039
   62RES   H12217324   0.763   7.139   5.634 -1.8384  0.2483  0.3042
   62RES   H12317325   0.898   7.373   5.512  3.0678  0.4655  0.1962
   62RES   H12417326   0.953   7.318   5.673 -3.0919  0.4995  1.8504
   62RES   H12517327   1.078   7.225   5.367  1.2215 -2.6909 -1.4488
   62RES   H12617328   1.160   7.099   5.472 -1.1686 -0.7873  2.1235
   62RES   H12717329   1.135   7.276   5.513 -0.2449 -0.9289  1.6661
   62RES   O12817330   0.704   7.320   5.719 -0.4593  0.1845 -0.3077
   62RES   C12917331   0.669   7.457   5.693 -0.2578 -0.6924  0.1879
   62RES   C13017332   0.650   7.530   5.827 -0.7430  0.1071  0.2358
   62RES   C13117333   0.571   7.657   5.821  0.0465 -0.5163  0.2813
   62RES   O13217334   0.631   7.743   5.723 -0.0659 -0.3782 -0.0606
   62RES   C13317335   0.565   0.045   5.701  0.1900 -0.4919  0.2618
   62RES   H13417336   0.748   7.500   5.632  0.9169 -1.2363  1.2910
   62RES   H13517337   0.578   7.463   5.633  0.0296 -3.3470 -0.5717
   62RES   H13617338   0.593   7.464   5.892  0.8468 -0.7946  0.7505
   62RES   H13717339   0.559   7.715   5.912  1.6598 -0.2709  0.3468
   62RES   H13817340   0.478   7.620   5.779  0.0435 -1.5480  1.1704
   62RES   H13917341   0.535   0.110   5.784 -0.4699 -0.2046 -0.1965
   62RES   H14017342   0.630   0.110   5.643 -0.2058 -1.3360 -1.1460
   62RES   H14117343   0.478   0.012   5.644 -0.2019 -1.2540  1.3053
   62RES   O14217344   0.779   7.559   5.887 -0.1909 -0.3149 -0.0453
   62RES   C14317345   0.830   7.454   5.965  0.0400 -0.1754  0.0741
   62RES   C14417346   0.956   7.497   6.044 -1.0917  0.9263 -0.1216
   62RES   C14517347   1.044   7.373   6.078  0.2238 -0.7251 -0.1143
   62RES   O14617348   0.960   7.272   6.134 -0.3399 -0.9872 -0.3927
   62RES   C14717349   0.943   7.278   6.278  0.3494 -0.0507 -0.4337
   62RES   H14817350   0.758   7.427   6.043  1.6721 -1.7291  1.0764
   62RES   H14917351   0.851   7.366   5.904 -1.3001  0.1876 -0.9266
   62RES   H15017352   1.013   7.558   5.975 -0.9466  0.8571 -0.0644
   62RES   H15117353   1.125   7.377   6.151 -0.6541  1.7740  0.7931
   62RES   H15217354   1.088   7.336   5.986 -0.6389 -0.3723 -0.6768
   62RES   H15317355   0.843   7.307   6.311 -0.3254 -0.4509 -2.0948
   62RES   H15417356   1.010   7.344   6.332 -2.0934  0.2259  2.4519
   62RES   H15517357   0.969   7.184   6.328 -0.5933 -0.3913 -0.5688
   62RES   O15617358   0.935   7.571   6.169  0.5861  0.2628 -0.3738
   62RES   C15717359   0.866   7.693   6.162  0.2271 -0.7278  0.5854
   62RES   C15817360   0.873   7.760   6.303  0.7032  0.1545 -0.2405
   62RES   C15917361   0.761   0.056   6.317 -0.1917  0.4670 -0.0889
   62RES   O16017362   0.722   0.063   6.454  0.4855  0.1396 -0.7391
   62RES   C16117363   0.609   0.149   6.485  0.8006 -1.1385 -0.7071
   62RES   H16217364   0.902   7.762   6.086 -0.8235 -0.1125  0.6373
   62RES   H16317365   0.762   7.670   6.141 -0.4053  1.4729  1.1233
   62RES   H16417366   0.863   7.682   6.379 -0.9277 -0.4220 -1.0175
   62RES   H16517367   0.807   0.147   6.278 -0.2184  0.6767  0.3606
   62RES   H16617368   0.668   0.026   6.269 -0.5387 -0.9575  1.4527
   62RES   H16717369   0.524   0.123   6.422  1.0782 -2.3476 -0.6011
   62RES   H16817370   0.629   0.253   6.460 -1.1922 -0.3141  1.0797
   62RES   H16917371   0.576   0.137   6.588 -0.7885  1.2314 -0.9177
   62RES   O17017372   1.000   0.014   6.312 -0.5320  1.2845 -0.1741
   62RES   C17117373   1.041   0.047   6.446  0.4849  0.4287  0.9210
   62RES   C17217374   1.172   0.120   6.438 -0.4278 -0.4893  0.7250
   62RES   C17317375   1.269   0.065   6.542  0.0236 -0.0825 -0.3745
   62RES   O17417376   1.406   0.089   6.510  0.6733 -0.1244  0.1712
   62RES   C17517377   1.455   0.220   6.534  0.5576 -0.5995 -0.0653
   62RES   H17617378   1.045   7.770   6.501 -0.0085  0.8143  1.6276
   62RES   H17717379   0.963   0.100   6.500 -0.5822 -0.0983 -0.0583
   62RES   H17817380   1.219   0.113   6.340  1.9409  0.6158  1.7345
   62RES   H17917381   1.251   0.112   6.638  1.1711 -0.4954  0.0390
   62RES   H18017382   1.268   7.774   6.532 -0.6110 -0.0382 -0.8884
   62RES   H18117383   1.411   0.289   6.462  1.5372  0.4964  0.3702
   62RES   H18217384   1.558   0.249   6.515  0.1820 -0.6919 -2.3656
   62RES   H18317385   1.451   0.242   6.641 -0.7015 -0.3111 -0.1560
   62RES   O18417386   1.153   0.255   6.478 -0.2707  0.2386 -0.0403
   62RES   C18517387   1.131   0.346   6.370  0.0575 -0.5108  0.5350
   62RES   C18617388   1.073   0.485   6.419  0.2002 -0.2439  0.4093
   62RES   C18717389   1.007   0.556   6.299  0.1716  0.5445 -0.0182
   62RES   O18817390   0.895   0.487   6.241 -0.0743  0.4596  0.5027
   62RES   C18917391   0.782   0.471   6.315 -0.0035  0.5271 -0.0087
   62RES   H19017392   1.064   0.298   6.299  1.4903 -1.4648 -0.1940
   62RES   H19117393   1.219   0.361   6.307 -0.0062 -0.3520  0.4834
   62RES   H19217394   0.998   0.478   6.498 -1.2554  0.3315 -0.8849
   62RES   H19317395   1.088   0.567   6.226 -0.9460 -1.0542 -1.5548
   62RES   H19417396   0.960   0.653   6.318 -0.4977  0.3646 -0.7189
   62RES   H19517397   0.799   0.415   6.407 -2.1909 -1.3780 -0.7131
   62RES   H19617398   0.756   0.574   6.336 -3.6266 -0.5795  1.3283
   62RES   H19717399   0.700   0.418   6.266  1.0439  0.6713 -2.0045
   62RES   O19817400   1.183   0.567   6.465 -0.3284 -0.0094  0.2256
   62RES   C19917401   1.222   0.548   6.598 -0.0993  0.3030 -0.0112
   62RES   C20017402   1.353   0.638   6.614 -0.6715  0.0153  0.9246
   62RES   C20117403   1.431   0.603   6.739 -0.7402 -0.2288 -0.5581
   62RES   O20217404   1.508   0.490   6.726 -0.5574 -0.4185  0.2293
   62RES   C20317405   1.573   0.442   6.840 -0.5574 -0.6374 -0.0974
   62RES   H20417406   1.245   0.442   6.614 -2.8715 -0.5731 -1.5081
   62RES   H20517407   1.158   0.573   6.682 -0.7464 -0.0555 -0.3967
   62RES   H20617408   1.418   0.629   6.527 -0.9809  0.2283  0.6699
   62RES   H20717409   1.481   0.695   6.770 -0.4229 -0.2518 -0.9863
   62RES   H20817410   1.363   0.580   6.821  0.8933 -1.0674  0.5765
   62RES   H20917411   1.497   0.412   6.912 -0.5041 -0.3992  0.0608
   62RES   H21017412   1.642   0.513   6.886 -0.7556  0.4553 -1.4807
   62RES   H21117413   1.630   0.353   6.813  1.1819 -0.1280  1.7343
   62RES   O21217414   1.313   0.770   6.632  0.5537  0.4693 -0.2805
   62RES   C21317415   1.305   0.835   6.504  0.0676  0.2618 -0.9030
   62RES   C21417416   1.262   0.980   6.516  1.3476  0.3802 -0.5533
   62RES   C21517417   1.270   1.055   6.381 -0.3300 -0.7167  0.4722
   62RES   O21617418   1.218   1.190   6.401  0.6534  0.0918  0.2385
   62RES   C21717419   1.242   1.272   6.292 -0.0741  0.3558 -0.0997
   62RES   H21817420   1.230   0.791   6.438 -2.1381  2.3248  0.1909
   62RES   H21917421   1.399   0.838   6.449 -0.0715  1.5006 -1.0825
   62RES   H22017422   1.159   0.986   6.550  1.2820  1.8586 -0.9732
   62RES   H22117423   1.374   1.061   6.347 -0.7042  0.5410 -0.4556
   62RES   H22217424   1.206   1.006   6.308  0.6200 -1.7834  0.3400
   62RES   H22317425   1.207   1.230   6.197  1.4287  1.7156 -1.2946
   62RES   H22417426   1.345   1.307   6.292  0.0914 -0.1195  0.7537
   62RES   H22517427   1.192   1.367   6.303 -0.4382  0.2713 -0.9391
   62RES   O22617428   1.357   1.031   6.617 -0.1100  0.5018 -0.1731
   62RES   C22717429   1.304   1.068   6.739 -0.3006  0.0071 -0.3840
   62RES   C22817430   1.412   1.058   6.851  0.0451  0.1551 -0.1123
   62RES   C22917431   1.449   1.190   6.921 -0.1152  0.0455 -0.0258
   62RES   O23017432   1.570   1.192   7.001 -0.1941 -0.3436  0.0740
   62RES   C23117433   1.556   1.224   7.139 -0.0821  0.4272 -0.0079
   62RES   H23217434   1.217   1.003   6.753  0.7985 -1.4658 -0.2492
   62RES   H23317435   1.270   1.170   6.725  0.1534  0.4091  1.2556
   62RES   H23417436   1.498   0.998   6.821 -1.3079 -1.3692 -0.9994
   62RES   H23517437   1.352   1.207   6.968 -0.3867  0.5717 -0.7634
   62RES   H23617438   1.464   1.272   6.851  1.5940  0.7988  1.2020
   62RES   H23717439   1.520   1.326   7.152 -0.2047  0.2468  1.0908
   62RES   H23817440   1.642   1.209   7.205 -0.2246  2.3056  0.6475
   62RES   H23917441   1.489   1.157   7.193  0.5783  1.5584  2.3084
   62RES   O24017442   1.342   0.989   6.953 -0.5002 -0.0541  0.3797
   62RES   C24117443   1.413   0.883   7.011  0.7459 -0.6094  0.5240
   62RES   C24217444   1.339   0.819   7.129 -0.1750  0.6711 -0.4179
   62RES   C24317445   1.418   0.695   7.188 -0.4646  0.1283 -0.6429
   62RES   O24417446   1.316   0.609   7.250  0.3255 -0.2723  0.1210
   62RES   C24517447   1.381   0.515   7.339  0.1102  0.3663  1.1559
   62RES   H24617448   1.515   0.911   7.037  0.2000  0.6596  1.3563
   62RES   H24717449   1.418   0.802   6.937  0.8483 -0.3397  0.2361
   62RES   H24817450   1.238   0.787   7.101 -0.1071  0.1088 -0.0194
   62RES   H24917451   1.461   0.632   7.111 -1.2992 -1.4868  0.1982
   62RES   H25017452   1.492   0.734   7.258 -0.9250  0.1402 -0.1541
   62RES   H25117453   1.408   0.579   7.424  0.0077  3.6166 -1.1397
   62RES   H25217454   1.473   0.471   7.300 -0.5917  1.7349 -2.1898
   62RES   H25317455   1.313   0.435   7.369 -1.3457  0.6005 -1.4236
   62RES   O25417456   1.342   0.911   7.240  0.5136 -0.5240  0.2140
   62RES   C25517457   1.213   0.941   7.297 -0.6740 -0.2843  0.0357
   62RES   C25617458   1.231   1.048   7.407  0.5344 -0.5547  0.2096
   62RES   C25717459   1.098   1.127   7.439  0.6077  0.2657 -1.1151
   62RES   O25817460   1.011   1.058   7.526 -0.3065  0.5090 -0.7564
   62RES   C25917461   0.921   1.146   7.602  0.3980 -0.3239 -0.3721
   62RES   H26017462   1.144   0.968   7.217  0.7515 -0.3039 -1.2364
   62RES   H26117463   1.177   0.847   7.339  2.2838 -2.1306 -1.3868
   62RES   H26217464   1.300   1.125   7.372 -1.0453  0.3772 -0.8788
   62RES   H26317465   1.114   1.228   7.478 -1.7173  0.0126  0.5790
   62RES   H26417466   1.037   1.149   7.351 -0.8800  0.2735 -0.0915
   62RES   H26517467   0.962   1.240   7.638  0.3893 -0.5276  0.1690
   62RES   H26617468   0.861   1.107   7.684  1.3984  1.8685  1.4365
   62RES   H26717469   0.847   1.176   7.527  1.9018 -0.4592 -1.9499
   62RES   O26817470   1.284   0.992   7.526 -0.2709 -0.1416 -0.1490
   62RES   C26917471   1.327   1.075   7.632 -0.2530 -0.5198  0.6587
   62RES   C27017472   1.458   1.148   7.611  0.2851 -0.2225 -0.5031
   62RES   C27117473   1.477   1.253   7.718  0.1279  0.2187 -0.0190
   62RES   O27217474   1.600   1.318   7.710  0.4015 -0.3510  0.2016
   62RES   C27317475   1.592   1.447   7.658 -0.4232  0.0534 -0.1088
   62RES   H27417476   1.347   1.002   7.710 -0.4818 -1.7429 -0.4034
   62RES   H27517477   1.249   1.129   7.687  0.2471 -1.6599  2.5183
   62RES   H27617478   1.547   1.085   7.610  0.5550  0.1601 -0.7734
   62RES   H27717479   1.464   1.212   0.001 -1.5454 -1.5048 -0.9073
   62RES   H27817480   1.397   1.327   7.709  2.3205  3.0294  2.3614
   62RES   H27917481   1.547   1.450   7.559 -0.7148  1.9591  0.0693
   62RES   H28017482   1.692   1.491   7.657 -0.5602  0.3924  0.6990
   62RES   H28117483   1.533   1.513   7.721 -1.7836 -1.1002 -0.1506
   62RES   H28217484   1.451   1.199   7.515 -0.6934  2.2992  0.8686
   63RES     O117485   3.854   0.284   5.492 -0.2296 -0.2483  0.1080
   63RES     C217486   3.873   0.421   5.526  0.2108  0.2497  0.1151
   63RES     C317487   3.805   0.506   5.418 -0.0592 -0.4820  0.6046
   63RES     C417488   3.824   0.657   5.443 -0.4127  0.1388  0.2323
   63RES     O517489   3.799   0.733   5.319 -0.4335 -0.2160 -0.3523
   63RES     C617490   3.857   0.861   5.321  0.1043 -0.0998  0.1464
   63RES     H717491   3.840   0.439   5.628  0.4025  0.0672  0.2108
   63RES     H817492   3.980   0.438   5.510 -0.0362  0.8815 -0.9222
   63RES     H917493   3.698   0.483   5.419  0.2499 -1.9572  1.3942
   63RES    H1017494   3.928   0.677   5.470 -0.0621 -0.3932 -0.7259
   63RES    H1117495   3.753   0.692   5.518 -0.4971 -0.3101  0.3650
   63RES    H1217496   3.839   0.918   5.230 -1.8458 -3.0756 -1.4314
   63RES    H1317497   3.826   0.913   5.411  0.1311  0.3427 -0.0954
   63RES    H1417498   3.963   0.837   5.329  0.0544 -0.6888 -0.8328
   63RES    H1517499   3.880   0.271   5.402 -1.4599 -1.4538 -0.1065
   63RES    O1617500   3.865   0.466   5.298 -0.4895 -0.6240  0.3655
   63RES    C1717501   3.776   0.421   5.194  0.0595 -0.3788  0.3286
   63RES    C1817502   3.845   0.388   5.068  0.0435 -0.9039  0.1017
   63RES    C1917503   3.912   0.501   4.990  0.6062  0.1705  0.4498
   63RES    O2017504   3.955   0.471   4.861 -0.3672  0.0805  0.0155
   63RES    C2117505   3.962   0.584   4.782 -0.4744 -0.3393 -0.7302
   63RES    H2217506   3.685   0.480   5.181  0.4921  0.7724  2.2721
   63RES    H2317507   3.743   0.329   5.242 -0.5089  0.9068  2.5098
   63RES    H2417508   3.766   0.346   5.006 -0.8049 -1.6402  1.6346
   63RES    H2517509   3.830   0.571   4.972  2.2360  1.6531 -1.3259
   63RES    H2617510   3.995   0.545   5.046  0.7024  0.4012  0.1271
   63RES    H2717511   4.030   0.656   4.826  0.6231 -0.4914 -2.1575
   63RES    H2817512   3.864   0.630   4.772 -0.0506  1.4843  2.5563
   63RES    H2917513   3.993   0.540   4.688 -0.7873 -1.9856 -0.0903
   63RES    O3017514   3.932   0.278   5.103  0.1292  0.2160  0.3926
   63RES    C3117515   3.935   0.171   5.010  0.1286 -0.0277  0.0310
   63RES    C3217516   4.014   0.053   5.063 -0.7601  0.0460  0.1473
   63RES    C3317517   3.963   0.003   5.191  0.5451  0.6314 -0.5709
   63RES    O3417518   4.049   7.732   5.258 -0.8333 -0.8892  0.1591
   63RES    C3517519   4.029   7.728   5.397 -0.1983 -0.2826  0.0344
   63RES    H3617520   3.835   0.130   4.999  0.6646 -1.6939  1.2405
   63RES    H3717521   3.954   0.195   4.905 -2.2500  0.5107 -0.3057
   63RES    H3817522   4.024   7.798   4.982  0.6900  0.7542 -0.3282
   63RES    H3917523   3.877   7.754   5.176  1.0024 -0.0979  0.0006
   63RES    H4017524   3.937   0.085   5.259 -0.5703 -0.2950  0.1321
   63RES    H4117525   4.092   7.658   5.452 -2.2373 -3.2939 -1.2932
   63RES    H4217526   3.924   7.703   5.414 -0.6659 -0.5577 -2.9304
   63RES    H4317527   4.052   0.007   5.442 -0.7050  0.1572 -0.6421
   63RES    O4417528   4.150   0.087   5.081 -0.4946 -0.6801  0.3110
   63RES    C4517529   4.231   0.111   4.965  0.2603 -0.3273 -0.3447
   63RES    C4617530   4.362   0.181   5.007 -0.0672  0.4390  0.6252
   63RES    C4717531   4.483   0.118   4.941  0.2704 -0.0584 -0.3556
   63RES    O4817532   4.606   0.181   4.973  0.2173 -0.0869  0.2284
   63RES    C4917533   4.718   0.093   5.001  0.0814 -0.5239 -0.4521
   63RES    H5017534   4.170   0.162   4.891 -1.6717  0.1382  1.5106
   63RES    H5117535   4.244   0.012   4.921 -0.2022 -0.2634 -0.6338
   63RES    H5217536   4.374   0.175   5.115 -1.6522 -0.2234  0.7805
   63RES    H5317537   4.481   0.016   4.979 -1.1256  0.6330  1.5091
   63RES    H5417538   4.485   0.127   4.833  2.2058  1.4580 -0.2196
   63RES    H5517539   4.718   0.010   4.931 -1.0303 -1.9325  1.1729
   63RES    H5617540   4.697   0.067   5.105 -0.7562  0.6192 -0.3206
   63RES    H5717541   4.810   0.152   5.010 -2.2266  3.2234 -0.5255
   63RES    O5817542   4.360   0.325   4.971  0.7120  0.0665  0.3718
   63RES    C5917543   4.261   0.411   5.029 -0.1437 -1.0997 -0.1807
   63RES    C6017544   4.317   0.445   5.173 -0.0946 -0.3548 -0.4334
   63RES    C6117545   4.199   0.498   5.256  0.1689 -0.0375 -0.5283
   63RES    O6217546   4.232   0.531   5.392 -0.3295  0.9763  0.0960
   63RES    C6317547   4.279   0.658   5.402  0.3475  0.6676  0.0687
   63RES    H6417548   4.166   0.357   5.033  0.0937 -1.4394  1.2821
   63RES    H6517549   4.230   0.497   4.970 -0.4368 -0.5188  0.8121
   63RES    H6617550   4.375   0.366   5.222  1.6567  0.1835 -1.6000
   63RES    H6717551   4.149   0.580   5.205  1.7749  0.9238 -0.5928
   63RES    H6817552   4.119   0.424   5.257 -1.0749  1.2877 -1.0882
   63RES    H6917553   4.306   0.697   5.304  0.9524  0.7759  0.2745
   63RES    H7017554   4.365   0.656   5.469 -0.3276  0.2682  0.9300
   63RES    H7117555   4.193   0.708   5.447  0.7131  0.7116  0.7263
   63RES    O7217556   4.402   0.555   5.149  0.2598  0.3115 -0.1589
   63RES    C7317557   4.536   0.516   5.146 -0.2128 -0.5867  0.1666
   63RES    C7417558   4.622   0.619   5.078  0.5942  0.0505  0.7000
   63RES    C7517559   4.757   0.558   5.064  0.0283  0.2380  1.3302
   63RES    O7617560   4.837   0.621   4.972 -0.2143 -0.3311 -0.6079
   63RES    C7717561   4.962   0.566   4.970 -0.2139  0.3325  0.2208
   63RES    H7817562   4.566   0.505   5.251 -1.4075 -1.8042  0.3954
   63RES    H7917563   4.546   0.422   5.092  3.1127  0.5515 -1.3157
   63RES    H8017564   4.576   0.635   4.981  2.3420 -2.0734 -0.5393
   63RES    H8117565   4.744   0.456   5.027 -0.1041  0.6437  0.2616
   63RES    H8217566   4.800   0.552   5.164  0.7601 -0.4465  0.9790
   63RES    H8317567   5.001   0.551   5.071  1.5297 -1.3163 -0.6646
   63RES    H8417568   5.032   0.633   4.920 -0.8438  1.2146  0.5098
   63RES    H8517569   4.954   0.474   4.911 -1.5076  0.7807 -0.3250
   63RES    O8617570   4.620   0.741   5.152  0.4507  0.2808  1.1473
   63RES    C8717571   4.688   0.855   5.101  0.1649  0.4028  0.4207
   63RES    C8817572   4.613   0.979   5.144  0.2148 -0.2284  0.0163
   63RES    C8917573   4.702   1.101   5.148  0.2722 -0.1401 -0.3859
   63RES    O9017574   4.705   1.165   5.271 -0.4260  0.1328 -0.2435
   63RES    C9117575   4.819   1.253   5.277 -0.6580 -0.3614  0.5972
   63RES    H9217576   4.793   0.850   5.127  0.3115 -0.7737 -0.3603
   63RES    H9317577   4.683   0.834   4.994  0.2501 -2.0595  0.8639
   63RES    H9417578   4.576   0.961   5.245 -0.0744  0.6749  0.0828
   63RES    H9517579   4.798   1.084   5.100  0.7363  2.9061 -0.6286
   63RES    H9617580   4.656   1.167   5.075 -1.3383 -0.1117  0.6146
   63RES    H9717581   4.826   1.336   5.348 -0.1746  1.5724 -1.6318
   63RES    H9817582   4.899   1.184   5.303  0.0161  0.3052  0.3166
   63RES    H9917583   4.846   1.295   5.179 -1.6542 -0.1695  0.3960
   63RES   O10017584   4.496   1.012   5.060  0.4810  0.1140 -0.1188
   63RES   C10117585   4.379   0.938   5.101  0.2563  0.3010  0.6738
   63RES   C10217586   4.261   0.976   5.012 -0.5539 -0.3828  0.4204
   63RES   C10317587   4.129   0.958   5.089 -0.1320  0.5699  0.0473
   63RES   O10417588   4.005   1.006   5.017  0.9556 -0.3330 -0.0267
   63RES   C10517589   3.952   0.908   4.934 -0.3813 -0.9842 -0.1084
   63RES   H10617590   4.360   0.963   5.205  0.0423 -0.9349  0.9355
   63RES   H10717591   4.400   0.833   5.079  0.7335  0.6360 -0.4929
   63RES   H10817592   4.281   1.078   4.980 -1.0342  0.1457  1.7761
   63RES   H10917593   4.135   1.008   5.185  0.1787  0.5518  0.0384
   63RES   H11017594   4.109   0.855   5.117  0.2162  0.2719 -0.7712
   63RES   H11117595   4.032   0.858   4.880  0.7314  1.1048 -0.4683
   63RES   H11217596   3.898   0.967   4.859  1.6605  3.5789  1.8109
   63RES   H11317597   3.884   0.838   4.983 -0.4017  0.5541  2.1161
   63RES   O11417598   4.266   0.883   4.902  0.0060  0.0280  0.4092
   63RES   C11517599   4.331   0.936   4.786 -0.7936  0.1401  1.0699
   63RES   C11617600   4.312   0.826   4.681  0.3465 -0.6631  0.1583
   63RES   C11717601   4.369   0.689   4.717 -0.6529  0.1228  0.1332
   63RES   O11817602   4.461   0.648   4.613  0.0204  0.1814  0.5433
   63RES   C11917603   4.524   0.527   4.645 -0.0761  0.2220  0.4948
   63RES   H12017604   4.274   1.023   4.755 -1.1481 -0.2675  0.5669
   63RES   H12117605   4.435   0.955   4.810 -0.3481  0.7324 -1.1599
   63RES   H12217606   4.356   0.858   4.586  0.0747  0.4472  0.4015
   63RES   H12317607   4.428   0.704   4.808 -0.3615  0.1114 -0.0541
   63RES   H12417608   4.286   0.618   4.721 -1.7903  1.3652 -1.0609
   63RES   H12517609   4.590   0.527   4.732 -0.8089 -0.6474  1.0577
   63RES   H12617610   4.579   0.488   4.559 -1.5644 -1.2861  0.2006
   63RES   H12717611   4.452   0.451   4.675  0.1885  0.4821  1.8162
   63RES   O12817612   4.164   0.820   4.681 -0.2630  0.1768  0.5034
   63RES   C12917613   4.110   0.879   4.569 -0.7419 -0.2840  1.0263
   63RES   C13017614   4.137   0.792   4.441  0.4306 -0.3527 -0.0415
   63RES   C13117615   4.074   0.863   4.307 -0.3936  0.0785 -0.4151
   63RES   O13217616   4.152   0.980   4.277  0.1318  0.2655  0.5717
   63RES   C13317617   4.138   1.013   4.141  0.0502 -0.5179  0.8228
   63RES   H13417618   4.006   0.899   4.593 -0.1070  2.2119  1.7941
   63RES   H13517619   4.142   0.982   4.550  2.1236 -1.6081 -1.8774
   63RES   H13617620   4.244   0.785   4.419 -0.1871 -2.0673 -2.6586
   63RES   H13717621   3.972   0.896   4.331 -0.5430 -0.2963 -0.5402
   63RES   H13817622   4.086   0.794   4.224  1.0441 -0.8378  0.5310
   63RES   H13917623   4.036   1.049   4.126  0.1100 -1.4704 -2.1667
   63RES   H14017624   4.198   1.103   4.125 -0.2719 -0.5582 -0.7279
   63RES   H14117625   4.170   0.937   4.069  0.2001  0.5595 -0.2580
   63RES   O14217626   4.087   0.662   4.463 -0.0635 -0.8904 -0.0097
   63RES   C14317627   4.157   0.562   4.375  0.0595 -0.0315  0.0415
   63RES   C14417628   4.054   0.453   4.349  0.2289  0.1421 -0.1379
   63RES   C14517629   4.129   0.345   4.260  0.1493  0.5134  0.0181
   63RES   O14617630   4.093   0.208   4.262  0.1358  0.0210  0.0273
   63RES   C14717631   4.174   0.138   4.165 -0.7827  0.0268 -0.4644
   63RES   H14817632   4.197   0.606   4.283 -0.4315  0.8559  0.2398
   63RES   H14917633   4.235   0.517   4.437  1.2990 -1.1249 -2.2658
   63RES   H15017634   4.030   0.392   4.437  1.0139  1.5780  1.0921
   63RES   H15117635   4.230   0.344   4.303  0.5880  0.1618 -1.0107
   63RES   H15217636   4.151   0.384   4.161 -0.2626  2.6589  0.7453
   63RES   H15317637   4.142   0.167   4.065  1.7786 -0.3686 -1.4133
   63RES   H15417638   4.172   0.029   4.165 -1.2642  0.0225 -2.2462
   63RES   H15517639   4.279   0.165   4.172 -1.2805  1.9081  0.0032
   63RES   O15617640   3.937   0.506   4.281  0.2573  0.1566  0.2090
   63RES   C15717641   3.833   0.413   4.256 -0.2361  0.3022 -0.2626
   63RES   C15817642   3.724   0.482   4.170 -0.2120 -0.6577 -0.9087
   63RES   C15917643   3.585   0.418   4.186  0.0458 -0.8164  0.2858
   63RES   O16017644   3.487   0.509   4.123 -0.3476  0.0351 -0.0312
   63RES   C16117645   3.409   0.593   4.205  0.3584 -0.1140  0.4136
   63RES   H16217646   3.872   0.336   4.191 -1.3148  0.3047 -0.9207
   63RES   H16317647   3.785   0.363   4.341  0.4445  0.4050  0.1869
   63RES   H16417648   3.712   0.582   4.212  0.1303 -2.0725  2.7202
   63RES   H16517649   3.590   0.325   4.129 -1.0107  0.7570 -2.5170
   63RES   H16617650   3.565   0.389   4.288 -3.2125 -3.0248 -0.9029
   63RES   H16717651   3.328   0.633   4.145  1.2334 -0.9418 -1.3542
   63RES   H16817652   3.475   0.676   4.231 -0.3059  0.2133  1.1030
   63RES   H16917653   3.385   0.562   4.307 -2.7118  0.6024 -0.0189
   63RES   O17017654   3.761   0.518   4.033 -0.3990  0.0258  0.4589
   63RES   C17117655   3.877   0.606   4.010  0.2704  0.4876 -0.4642
   63RES   C17217656   3.846   0.710   3.897  0.3165 -0.4453  0.4757
   63RES   C17317657   3.963   0.747   3.806  0.1238 -0.0514 -0.3043
   63RES   O17417658   3.925   0.804   3.675  0.1619  0.0224  0.4816
   63RES   C17517659   3.897   0.709   3.574 -0.1041 -0.1629  0.0696
   63RES   H17617660   3.966   0.547   3.992 -1.0108 -0.9825 -2.1877
   63RES   H17717661   3.887   0.666   4.101  2.2935  1.3504 -1.2244
   63RES   H17817662   3.771   0.663   3.835 -1.2426 -0.3418  2.2187
   63RES   H17917663   4.017   0.821   3.864 -0.2381 -0.0136 -0.0132
   63RES   H18017664   4.038   0.668   3.800 -1.8794 -1.8870 -2.3790
   63RES   H18117665   3.900   0.758   3.477 -0.9865 -0.5276 -0.1429
   63RES   H18217666   3.795   0.672   3.574 -0.0919 -0.1950 -0.4565
   63RES   H18317667   3.972   0.629   3.577  1.6259  1.4589  1.5970
   63RES   O18417668   3.800   0.834   3.947 -0.2734 -0.2735  0.7184
   63RES   C18517669   3.666   0.832   3.977  0.1610  0.0503  0.8644
   63RES   C18617670   3.617   0.970   4.023 -0.1362  0.0776 -0.9699
   63RES   C18717671   3.660   1.095   3.942  0.1960 -1.1251  0.2375
   63RES   O18817672   3.567   1.194   3.934 -0.7257 -0.3273  0.4735
   63RES   C18917673   3.613   1.324   3.903 -0.7913  1.2052  0.3188
   63RES   H19017674   3.646   0.755   4.051 -0.4677  0.5596  1.2304
   63RES   H19117675   3.603   0.799   3.894  3.3817 -0.8937 -1.2863
   63RES   H19217676   3.510   0.955   4.014 -0.2734 -0.4833  1.3607
   63RES   H19317677   3.698   1.067   3.844  2.2664  0.8724  0.4317
   63RES   H19417678   3.750   1.134   3.988  1.8000 -3.7143 -0.5730
   63RES   H19517679   3.657   1.376   3.989 -1.0159 -0.2051  1.3119
   63RES   H19617680   3.682   1.305   3.822 -1.0336 -1.1161  0.6072
   63RES   H19717681   3.536   1.376   3.847 -3.3372 -1.6920  0.9778
   63RES   O19817682   3.646   0.973   4.158 -0.1637 -0.0769 -0.3717
   63RES   C19917683   3.557   1.051   4.230  0.2074 -0.1753 -0.3953
   63RES   C20017684   3.630   1.064   4.364  0.0168  0.2073 -0.7129
   63RES   C20117685   3.766   1.127   4.367  0.8220 -0.0227  0.3438
   63RES   O20217686   3.796   1.208   4.485  0.2729  0.1590  0.1934
   63RES   C20317687   3.929   1.206   4.530 -0.3850 -0.4845 -0.4169
   63RES   H20417688   3.461   1.000   4.235  0.1262 -0.0378 -0.5477
   63RES   H20517689   3.531   1.147   4.185  0.2612 -0.4558 -1.0341
   63RES   H20617690   3.567   1.122   4.431  0.7720 -1.2528  1.3168
   63RES   H20717691   3.844   1.058   4.337 -0.9518 -1.6322 -0.7191
   63RES   H20817692   3.777   1.202   4.288  0.4838  0.4397  0.7297
   63RES   H20917693   3.957   1.103   4.551  2.6319  0.5452  0.7362
   63RES   H21017694   3.937   1.266   4.620  0.8370  0.5571 -1.2041
   63RES   H21117695   4.006   1.240   4.461  1.3570 -2.7502  0.3210
   63RES   O21217696   3.642   0.937   4.420 -0.6555  0.0527  0.0396
   63RES   C21317697   3.548   0.895   4.513 -0.2192  0.3275  1.0813
   63RES   C21417698   3.568   0.960   4.651  0.4107  0.0419 -0.8626
   63RES   C21517699   3.549   0.869   4.774  0.1759 -0.1969 -0.4196
   63RES   O21617700   3.623   0.922   4.887  0.2625  0.2426 -0.3790
   63RES   C21717701   3.630   0.826   4.992 -0.1765  0.3178 -0.7791
   63RES   H21817702   3.557   0.788   4.533 -1.7902 -0.0697 -0.2183
   63RES   H21917703   3.444   0.907   4.483  0.2788  1.4965 -0.1890
   63RES   H22017704   3.664   1.012   4.641  1.3737 -2.0350 -2.9160
   63RES   H22117705   3.449   0.870   4.817  0.2847  0.1293 -0.1704
   63RES   H22217706   3.574   0.766   4.750  0.1076 -0.3841  0.2855
   63RES   H22317707   3.526   0.802   5.013 -0.2725  1.2546 -0.1826
   63RES   H22417708   3.674   0.856   5.087 -4.5580  1.7760  0.8787
   63RES   H22517709   3.681   0.739   4.949 -3.1728 -1.5664 -0.6848
   63RES   O22617710   3.471   1.069   4.663  0.0265  0.3644  0.2782
   63RES   C22717711   3.500   1.162   4.769 -0.0899 -0.3166  0.5396
   63RES   C22817712   3.409   1.291   4.756 -0.7027 -0.4768 -0.2522
   63RES   C22917713   3.452   1.365   4.625 -0.2349 -0.8143 -0.1521
   63RES   O23017714   3.402   1.503   4.643  0.4031 -1.3629  0.5088
   63RES   C23117715   3.429   1.596   4.543  0.6418  0.2007 -0.6951
   63RES   H23217716   3.606   1.186   4.767 -0.2724  0.5084  0.5274
   63RES   H23317717   3.469   1.124   4.866  0.4189  1.6514  1.4784
   63RES   H23417718   3.431   1.360   4.837  2.0384  1.7943 -2.8029
   63RES   H23517719   3.415   1.308   4.540 -1.5495 -0.8122  0.4087
   63RES   H23617720   3.560   1.380   4.618 -0.0378 -1.3337  1.6432
   63RES   H23717721   3.530   1.597   4.501 -0.4177  2.0554 -3.2590
   63RES   H23817722   3.400   1.693   4.582 -3.4236 -0.3516 -2.1510
   63RES   H23917723   3.354   1.591   4.464 -0.3228  1.3379  0.1354
   63RES   O24017724   3.270   1.247   4.764 -0.0846  0.5584  0.2636
   63RES   C24117725   3.170   1.349   4.740  0.2354 -0.6327 -0.0451
   63RES   C24217726   3.026   1.308   4.781  0.3221  0.5818 -0.3456
   63RES   C24317727   2.935   1.431   4.785 -0.4371  0.6312  0.2287
   63RES   O24417728   2.820   1.404   4.850  0.0339  0.0682  0.4285
   63RES   C24517729   2.749   1.527   4.884 -0.6770  0.3204 -0.5985
   63RES   H24617730   3.164   1.361   4.632 -0.0460 -2.0379 -0.1958
   63RES   H24717731   3.193   1.444   4.788  0.0315 -0.0349 -1.1117
   63RES   H24817732   3.031   1.272   4.884  0.0094  2.1321  0.2145
   63RES   H24917733   2.988   1.517   4.828  0.1204  0.2685  0.2697
   63RES   H25017734   2.926   1.470   4.683 -1.9294 -3.0576 -1.1249
   63RES   H25117735   2.717   1.583   4.796  0.6639  0.9390 -0.7016
   63RES   H25217736   2.805   1.595   4.947 -1.5373  1.1542 -0.7067
   63RES   H25317737   2.661   1.506   4.945  0.0810  0.9953  0.7320
   63RES   O25417738   2.958   1.220   4.686  0.0468 -0.2313 -0.4308
   63RES   C25517739   3.011   1.092   4.675  0.3831  0.4902 -0.3261
   63RES   C25617740   2.954   1.020   4.550  0.4468 -0.4033  0.9028
   63RES   C25717741   3.045   1.028   4.423  0.2179  0.3568 -0.2847
   63RES   O25817742   2.980   0.978   4.308 -0.2749  0.3461  0.6347
   63RES   C25917743   3.059   0.941   4.206 -0.0774 -0.3292  0.3308
   63RES   H26017744   3.120   1.095   4.672  0.3701  0.1525 -1.5057
   63RES   H26117745   2.982   1.040   4.767 -1.4128  0.7539 -0.7150
   63RES   H26217746   2.850   1.052   4.536  0.5472 -0.1940  0.6301
   63RES   H26317747   3.069   1.133   4.407  0.0582  1.1769  4.1411
   63RES   H26417748   3.144   0.985   4.441 -0.2605 -0.3166  0.7520
   63RES   H26517749   3.111   1.031   4.172  1.8268 -1.0744  1.1821
   63RES   H26617750   2.997   0.911   4.122  1.4239 -0.3404 -0.8037
   63RES   H26717751   3.118   0.852   4.228 -1.2189 -1.2223 -0.1764
   63RES   O26817752   2.946   0.879   4.586 -0.2954 -0.5522  0.8198
   63RES   C26917753   2.815   0.830   4.582  0.2284 -0.5719  0.2434
   63RES   C27017754   2.741   0.853   4.712 -0.5541 -0.4238 -1.0190
   63RES   C27117755   2.631   0.750   4.715  0.4855  0.0326  0.2112
   63RES   O27217756   2.537   0.765   4.612  0.3870 -0.2400  0.1967
   63RES   C27317757   2.425   0.676   4.625 -0.1726 -0.2694  0.7631
   63RES   H27417758   2.835   0.723   4.587  2.9958 -0.0420  2.2924
   63RES   H27517759   2.756   0.843   4.492  0.7131 -1.6404 -0.2398
   63RES   H27617760   2.808   0.838   4.796  0.5848  1.4120 -1.5793
   63RES   H27717761   2.588   0.741   4.815  0.4153  1.6482  0.3378
   63RES   H27817762   2.674   0.651   4.697  1.3271  0.6013 -1.0189
   63RES   H27917763   2.397   0.676   4.731  1.9206  0.3203  1.3336
   63RES   H28017764   2.464   0.577   4.603 -2.6889 -0.9085 -1.0988
   63RES   H28117765   2.340   0.695   4.560  1.4012  1.0674 -0.9334
   63RES   H28217766   2.709   0.957   4.718 -0.5320 -0.5024  0.7307
   64RES     O117767   2.313   4.851   0.202  0.0134 -0.1923  0.1631
   64RES     C217768   2.406   4.813   0.306 -0.0935  0.0325  0.2214
   64RES     C317769   2.441   4.925   0.410  0.0280 -0.4221  0.1521
   64RES     C417770   2.472   4.875   0.551  0.4788 -0.1029  0.3495
   64RES     O517771   2.459   4.986   0.640  0.0298 -0.3830 -0.7821
   64RES     C617772   2.512   4.962   0.770 -0.2655 -0.0779  0.4509
   64RES     H717773   2.363   4.728   0.358  4.0671 -1.7497  0.9645
   64RES     H817774   2.498   4.779   0.258 -0.5364 -0.7410 -0.0943
   64RES     H917775   2.362   5.001   0.415  0.3449 -0.1907  1.7967
   64RES    H1017776   2.572   4.833   0.562  1.0367  1.0902 -0.0622
   64RES    H1117777   2.391   4.809   0.581  0.9651  1.0551  4.4594
   64RES    H1217778   2.612   4.917   0.769  0.1073  0.7358 -1.0839
   64RES    H1317779   2.525   5.048   0.836  0.7885 -0.1739  0.3908
   64RES    H1417780   2.435   4.900   0.815 -1.0004  0.5057  0.0077
   64RES    H1517781   2.321   4.944   0.188 -1.8744 -0.0589 -0.2233
   64RES    O1617782   2.562   4.983   0.362 -0.1295 -0.7710  0.2008
   64RES    C1717783   2.575   5.118   0.390 -0.4539 -0.2088  0.2965
   64RES    C1817784   2.497   5.206   0.281 -0.6891 -0.1243 -0.1596
   64RES    C1917785   2.541   5.150   0.140 -0.1518 -0.1783 -0.0375
   64RES    O2017786   2.492   5.239   0.036 -0.0183 -0.1662 -0.0653
   64RES    C2117787   2.559   5.216   7.729 -0.2059  0.1040  0.4875
   64RES    H2217788   2.680   5.134   0.364 -0.1450 -0.9585  1.0297
   64RES    H2317789   2.557   5.140   0.496 -0.3684  1.5516 -0.0416
   64RES    H2417790   2.533   5.306   0.304  1.1893 -0.7142 -0.4600
   64RES    H2517791   2.649   5.142   0.128 -0.0476  1.1106 -0.0739
   64RES    H2617792   2.502   5.052   0.115  0.8346 -0.3458 -0.9831
   64RES    H2717793   2.521   5.119   7.697  1.5295  0.0698 -1.5518
   64RES    H2817794   2.667   5.222   7.733 -0.2893  2.5145 -0.2558
   64RES    H2917795   2.519   5.271   7.644 -1.0501 -1.4130 -0.1180
   64RES    O3017796   2.357   5.187   0.305  0.6386 -0.4901  0.0495
   64RES    C3117797   2.296   5.299   0.247  0.0218 -0.0265  0.0189
   64RES    C3217798   2.191   5.355   0.342  0.1436 -0.6048  0.5821
   64RES    C3317799   2.105   5.464   0.256 -0.0117  0.2596  0.4108
   64RES    O3417800   1.987   5.492   0.332  0.4353  0.3368 -0.1651
   64RES    C3517801   1.887   5.569   0.264  0.2287 -0.6581 -0.0865
   64RES    H3617802   2.364   5.375   0.210 -0.1496  0.3642  0.5122
   64RES    H3717803   2.251   5.258   0.156  0.9572  0.6795 -0.7640
   64RES    H3817804   2.131   5.274   0.384 -1.4985 -0.5218 -1.5381
   64RES    H3917805   2.067   5.428   0.161  1.8949 -0.3482 -0.1609
   64RES    H4017806   2.155   5.560   0.241 -1.3829  1.1485  1.3920
   64RES    H4117807   1.869   5.530   0.164  0.2105  2.3226 -1.3313
   64RES    H4217808   1.910   5.675   0.247  2.0513 -1.2215 -1.3047
   64RES    H4317809   1.802   5.566   0.331  0.0680 -0.8292 -0.2978
   64RES    O4417810   2.250   5.425   0.455 -0.2171 -0.5870  0.3298
   64RES    C4517811   2.314   5.348   0.562 -0.5611 -0.1270  0.6115
   64RES    C4617812   2.330   5.428   0.695 -0.2052  0.7787  0.0345
   64RES    C4717813   2.402   5.346   0.797  0.2671  0.3916  0.8214
   64RES    O4817814   2.361   5.374   0.936 -0.1154  0.3515 -0.1178
   64RES    C4917815   2.232   5.348   0.978 -0.0139 -0.2268  1.1630
   64RES    H5017816   2.414   5.318   0.529 -0.5768 -0.0460  0.4935
   64RES    H5117817   2.249   5.260   0.568 -1.4983  0.5292  0.1542
   64RES    H5217818   2.225   5.449   0.717 -0.2622  0.0619  0.4439
   64RES    H5317819   2.377   5.241   0.782 -0.4527  0.7992 -0.9300
   64RES    H5417820   2.510   5.347   0.783 -0.0647 -0.1149 -2.0593
   64RES    H5517821   2.168   5.355   0.890  1.7362  1.0931 -0.0515
   64RES    H5617822   2.211   5.414   1.062 -0.1013  0.7748  0.3728
   64RES    H5717823   2.204   5.250   1.016 -1.6904  0.2402  1.1756
   64RES    O5817824   2.406   5.545   0.674  0.3866  0.3673 -0.6104
   64RES    C5917825   2.401   5.636   0.789  0.4096 -0.3967 -0.2466
   64RES    C6017826   2.445   5.778   0.740  1.0558 -0.6980  0.0334
   64RES    C6117827   2.599   5.793   0.719 -0.5832 -0.1397 -0.1029
   64RES    O6217828   2.643   5.920   0.666 -0.2207 -0.5372  0.1078
   64RES    C6317829   2.778   5.946   0.656  0.1269  0.4891  0.0764
   64RES    H6417830   2.467   5.603   0.869 -1.7647 -1.3755  1.2199
   64RES    H6517831   2.295   5.630   0.817  0.2479 -0.0374 -0.7790
   64RES    H6617832   2.397   5.793   0.644 -1.2632  1.8048  1.4969
   64RES    H6717833   2.645   5.785   0.818  0.6155 -1.0608 -0.7189
   64RES    H6817834   2.639   5.709   0.662  0.7949 -1.2911  2.4588
   64RES    H6917835   2.808   6.033   0.597  1.1617  2.4287  3.3176
   64RES    H7017836   2.837   5.864   0.616 -1.4981 -1.2629  1.2120
   64RES    H7117837   2.812   5.981   0.754 -0.3910 -0.6203  0.6632
   64RES    O7217838   2.397   5.881   0.830 -0.1431 -0.0593  0.1109
   64RES    C7317839   2.361   6.013   0.775 -0.3413  0.2002 -0.2088
   64RES    C7417840   2.287   6.100   0.880 -0.0463  0.1445 -0.0784
   64RES    C7517841   2.375   6.135   1.003  0.0643  0.3899 -0.2036
   64RES    O7617842   2.290   6.206   1.088  0.3452 -0.4217  0.1344
   64RES    C7717843   2.256   6.141   1.205  0.5531  0.3163 -0.5125
   64RES    H7817844   2.454   6.061   0.743  0.1408  0.3783  1.4271
   64RES    H7917845   2.292   6.015   0.690  0.2759  0.7353 -0.7009
   64RES    H8017846   2.250   6.187   0.825 -0.3189 -0.4541 -0.8451
   64RES    H8117847   2.467   6.186   0.974 -0.1651  0.5027 -0.7459
   64RES    H8217848   2.419   6.049   1.052  2.7463  2.3363  0.9373
   64RES    H8317849   2.342   6.111   1.265 -1.1155 -1.7464  0.9258
   64RES    H8417850   2.202   6.047   1.192 -0.7712  0.9927  0.0980
   64RES    H8517851   2.190   6.199   1.268  0.1553 -0.6620 -0.0225
   64RES    O8617852   2.183   6.016   0.932  0.0700  0.3982  0.2189
   64RES    C8717853   2.049   6.074   0.933  0.4009 -0.0436  0.1072
   64RES    C8817854   1.944   5.976   0.998 -0.1677  0.0040  0.8828
   64RES    C8917855   1.825   6.050   1.076  0.1571  0.4591  0.2930
   64RES    O9017856   1.744   6.127   0.979 -0.5264 -0.0894 -0.1207
   64RES    C9117857   1.606   6.089   0.963  0.0173 -0.7523 -0.0819
   64RES    H9217858   2.052   6.162   0.998  0.7714  0.7052 -0.9244
   64RES    H9317859   2.036   6.115   0.833  2.9506 -1.0547 -0.6783
   64RES    H9417860   1.995   5.911   1.069 -1.5341 -1.5401  0.4948
   64RES    H9517861   1.753   5.987   1.129  0.5050 -0.0842  0.1281
   64RES    H9617862   1.855   6.116   1.158  1.0975  0.6902 -0.2306
   64RES    H9717863   1.558   6.170   0.909  0.0233  0.3760  1.5746
   64RES    H9817864   1.601   5.994   0.909 -1.4475  1.0294 -3.2272
   64RES    H9917865   1.556   6.076   1.059  1.1889  1.6999  0.8986
   64RES   O10017866   1.878   5.879   0.914 -0.7176 -0.3552 -0.0383
   64RES   C10117867   1.964   5.780   0.846  0.1216 -0.4399 -0.3980
   64RES   C10217868   1.873   5.666   0.790  0.3165  0.7275 -0.6105
   64RES   C10317869   1.943   5.529   0.758  0.5185 -0.3108  0.4939
   64RES   O10417870   1.864   5.414   0.758  0.0457 -0.1991  0.8599
   64RES   C10517871   1.802   5.403   0.629  0.3684  0.1385 -0.1583
   64RES   H10617872   2.046   5.753   0.913  0.2631  0.2783 -0.2712
   64RES   H10717873   2.023   5.827   0.767 -1.9980 -1.9646 -2.9389
   64RES   H10817874   1.785   5.648   0.852  0.5780 -1.7663 -0.9142
   64RES   H10917875   2.006   5.499   0.842 -1.5724  0.9338  2.5604
   64RES   H11017876   2.010   5.531   0.671 -0.7606  1.2012 -0.4843
   64RES   H11117877   1.882   5.387   0.557 -0.0156  0.8194 -0.7403
   64RES   H11217878   1.750   5.492   0.594 -1.3639  0.4644  3.0394
   64RES   H11317879   1.735   5.319   0.614  0.7545 -0.4796  1.4274
   64RES   O11417880   1.809   5.716   0.668 -0.0741 -0.5376 -0.0567
   64RES   C11517881   1.689   5.782   0.696 -0.8062  0.0758  0.9166
   64RES   C11617882   1.566   5.693   0.711 -1.2017  0.3797 -0.5129
   64RES   C11717883   1.491   5.726   0.843  0.5731 -0.2611 -0.9213
   64RES   O11817884   1.394   5.629   0.880 -0.3924  0.7099 -0.5134
   64RES   C11917885   1.304   5.658   0.988  0.3318  1.1820 -0.3048
   64RES   H12017886   1.703   5.841   0.787 -1.2121 -1.0120  1.6901
   64RES   H12117887   1.664   5.847   0.612 -0.0797  0.3042  0.8721
   64RES   H12217888   1.593   5.587   0.710  1.6663  1.0399  0.6323
   64RES   H12317889   1.564   5.740   0.922 -0.4286  1.1975 -0.2310
   64RES   H12417890   1.442   5.823   0.832  0.5273 -0.2410 -0.5450
   64RES   H12517891   1.246   5.749   0.975  0.7774  1.8575  2.1305
   64RES   H12617892   1.370   5.674   1.073  2.8519  0.7374 -2.1049
   64RES   H12717893   1.242   5.569   0.995  0.1684  1.2680 -0.6317
   64RES   O12817894   1.476   5.729   0.610 -0.2089  0.4314 -0.1728
   64RES   C12917895   1.496   5.670   0.485  0.5790 -0.0951 -0.8781
   64RES   C13017896   1.410   5.721   0.372 -0.1110  0.5011  0.0150
   64RES   C13117897   1.374   5.613   0.275 -0.2763 -0.6218 -0.1407
   64RES   O13217898   1.259   5.652   0.195 -0.3063  0.4006 -0.5039
   64RES   C13317899   1.233   5.557   0.094  0.4987  0.3345 -0.1244
   64RES   H13417900   1.601   5.681   0.461  1.4339  1.2622  3.1969
   64RES   H13517901   1.466   5.568   0.509 -3.4111  1.6504  2.1447
   64RES   H13617902   1.319   5.763   0.415  0.3319  3.0874 -1.4448
   64RES   H13717903   1.337   5.523   0.324 -1.0979 -0.6700 -0.8257
   64RES   H13817904   1.461   5.585   0.216 -0.4865 -2.2116  0.2662
   64RES   H13917905   1.318   5.514   0.042 -0.1106  2.5239 -3.0820
   64RES   H14017906   1.182   5.468   0.131  1.8308 -0.4129 -0.0464
   64RES   H14117907   1.172   5.601   0.015 -0.7343  0.8055  1.0657
   64RES   O14217908   1.489   5.819   0.308  0.3700  0.3490  0.3601
   64RES   C14317909   1.424   5.898   0.217  0.4269 -0.4999 -0.3698
   64RES   C14417910   1.494   6.029   0.190  0.4892  0.3229 -0.7542
   64RES   C14517911   1.406   6.122   0.102  0.3529 -0.1428  0.5561
   64RES   O14617912   1.461   6.252   0.100  0.4019  0.5600  0.4231
   64RES   C14717913   1.373   6.354   0.043  0.2310 -0.0096 -0.0334
   64RES   H14817914   1.416   5.845   0.121  1.1947  0.3168 -0.8884
   64RES   H14917915   1.322   5.929   0.239  1.5337  1.4114  2.2806
   64RES   H15017916   1.522   6.095   0.273  0.8954 -2.0591  1.0432
   64RES   H15117917   1.299   6.123   0.119  0.3291  0.4319  0.3823
   64RES   H15217918   1.407   6.079   0.001 -0.6394  2.1938 -0.4809
   64RES   H15317919   1.356   6.323   7.757  0.5716 -2.7907  0.7105
   64RES   H15417920   1.418   6.452   0.028  0.0201 -0.4324 -4.0570
   64RES   H15517921   1.276   6.364   0.091 -0.3888  1.8911 -1.6198
   64RES   O15617922   1.614   6.005   0.110 -0.0154 -0.0580 -0.1971
   64RES   C15717923   1.726   5.958   0.185  0.6277  0.5432 -0.1007
   64RES   C15817924   1.861   5.962   0.111 -0.7399 -0.3506 -0.0403
   64RES   C15917925   1.866   6.076   0.010 -0.6727 -0.7907  0.3618
   64RES   O16017926   2.000   6.116   7.800  0.3917  0.1847 -0.1215
   64RES   C16117927   2.054   6.225   0.071  0.1965  0.0808 -0.0816
   64RES   H16217928   1.744   6.021   0.272  2.8952 -0.4979  0.2307
   64RES   H16317929   1.697   5.856   0.212 -0.9179  1.1167  0.4741
   64RES   H16417930   1.937   5.971   0.189 -1.4763  0.6439  0.5835
   64RES   H16517931   1.811   6.054   7.735 -0.0920  1.2127 -0.4886
   64RES   H16617932   1.801   6.154   0.051 -0.0809 -1.1864  2.0736
   64RES   H16717933   1.991   6.314   0.072 -1.0096 -0.7535 -0.8470
   64RES   H16817934   2.153   6.251   0.034 -0.4499  0.7188 -1.4103
   64RES   H16917935   2.063   6.181   0.171 -0.7115  0.6316  0.2535
   64RES   O17017936   1.881   5.832   0.051  0.0469 -0.4034 -0.0813
   64RES   C17117937   2.012   5.811   0.014 -0.1937 -0.2154  0.0595
   64RES   C17217938   2.017   5.683   7.744 -0.1231 -0.1441 -0.1182
   64RES   C17317939   2.160   5.630   7.723  0.0348  0.4667 -0.3756
   64RES   O17417940   2.154   5.490   7.695 -0.7231 -0.4119 -0.7364
   64RES   C17517941   2.288   5.439   7.674  0.3674  1.1492  0.1619
   64RES   H17617942   2.077   5.791   0.100  0.9939  0.0925 -0.7481
   64RES   H17717943   2.052   5.892   7.771 -1.1482 -0.5313 -1.0095
   64RES   H17817944   1.973   5.601   7.801 -2.0394  1.3767  0.6522
   64RES   H17917945   2.214   5.692   7.651 -0.7860  2.5835  0.7816
   64RES   H18017946   2.221   5.633   7.813 -0.3222 -2.7542  0.0107
   64RES   H18117947   2.304   5.333   7.654  2.3335  1.5805 -0.7590
   64RES   H18217948   2.358   5.465   7.754  2.7097 -1.6203 -0.8671
   64RES   H18317949   2.319   5.479   7.577  0.5968 -0.8408 -0.6114
   64RES   O18417950   1.949   5.719   7.627 -0.9840 -0.2986 -0.1947
   64RES   C18517951   1.888   5.615   7.544  0.0431  0.1926 -0.0582
   64RES   C18617952   1.820   5.685   7.424  0.0254  0.0760 -0.9869
   64RES   C18717953   1.718   5.587   7.365 -0.0920  0.2311 -0.2086
   64RES   O18817954   1.756   5.454   7.362 -0.0057 -0.1565 -0.1179
   64RES   C18917955   1.651   5.357   7.327 -0.4209  0.1676 -0.3621
   64RES   H19017956   1.820   5.550   7.598  0.0113  0.7023  0.5192
   64RES   H19117957   1.966   5.543   7.519 -0.2408  0.2046 -0.9828
   64RES   H19217958   1.768   5.775   7.459  3.8170  0.9475  2.8027
   64RES   H19317959   1.705   5.631   7.266  2.4749  1.1351 -0.1915
   64RES   H19417960   1.620   5.599   7.411 -0.2359  1.0098 -0.7038
   64RES   H19517961   1.598   5.359   7.231  3.0365  2.0407 -2.3100
   64RES   H19617962   1.693   5.256   7.332 -0.1144  0.1981 -1.9478
   64RES   H19717963   1.563   5.357   7.391 -0.1486  0.4930  0.0099
   64RES   O19817964   1.923   5.724   7.333 -0.3889  0.0501 -0.0250
   64RES   C19917965   1.898   5.832   7.243 -0.1935  0.5920  0.5332
   64RES   C20017966   1.947   5.962   7.285  0.2166 -0.5238 -0.0166
   64RES   C20117967   1.877   6.081   7.199  0.6144  1.1627 -0.5401
   64RES   O20217968   1.934   6.204   7.242 -0.2672  0.8397  0.8812
   64RES   C20317969   1.876   6.308   7.165 -1.1645 -0.0634  0.0419
   64RES   H20417970   1.789   5.841   7.242 -0.2416  0.0593 -1.8304
   64RES   H20517971   1.920   5.805   7.140 -0.3013  0.3002  0.5844
   64RES   H20617972   1.938   5.972   7.393 -0.3598 -1.2688  0.0110
   64RES   H20717973   1.885   6.057   7.093 -1.5275  0.0091 -0.4723
   64RES   H20817974   1.772   6.076   7.229  0.6931  0.6986 -0.3369
   64RES   H20917975   1.768   6.295   7.178 -1.2238 -1.8821 -1.9066
   64RES   H21017976   1.904   6.307   7.060 -0.2852  0.7962  0.2634
   64RES   H21117977   1.892   6.408   7.204  0.5530 -0.6292  0.8281
   64RES   O21217978   2.080   5.962   7.242  0.7321 -0.5575 -0.1621
   64RES   C21317979   2.181   5.920   7.336 -0.8729  1.0167 -0.2872
   64RES   C21417980   2.321   5.954   7.276 -0.2258  0.0051  0.7465
   64RES   C21517981   2.353   6.102   7.291 -0.5882  0.2967  0.7981
   64RES   O21617982   2.487   6.148   7.268  0.2238 -0.1633  0.7143
   64RES   C21717983   2.494   6.284   7.297  0.6010 -0.7972  0.1450
   64RES   H21817984   2.158   5.815   7.353 -2.5792  1.3689 -0.3363
   64RES   H21917985   2.164   5.972   7.431  1.3586  0.0508  0.6924
   64RES   H22017986   2.394   5.889   7.324  0.3496  0.2774  0.2373
   64RES   H22117987   2.279   6.156   7.232 -0.6903 -0.1583  0.5066
   64RES   H22217988   2.329   6.126   7.395 -1.2223 -1.3637  1.0615
   64RES   H22317989   2.416   6.341   7.246  2.1097  1.7578  0.5784
   64RES   H22417990   2.586   6.330   7.260  0.2662 -0.0829  0.1789
   64RES   H22517991   2.489   6.313   7.402 -3.2894  0.6478 -0.3326
   64RES   O22617992   2.305   5.937   7.136  0.5415 -0.2740  0.5933
   64RES   C22717993   2.291   5.804   7.093  0.0161  0.3366 -0.0732
   64RES   C22817994   2.271   5.791   6.939  0.4290 -0.2606 -0.6146
   64RES   C22917995   2.298   5.654   6.887  0.2547 -0.0080  0.2737
   64RES   O23017996   2.353   5.660   6.757 -0.3313 -0.5553  0.1094
   64RES   C23117997   2.372   5.549   6.684 -0.5353  0.1379  0.4000
   64RES   H23217998   2.201   5.755   7.131 -0.4202  2.4634  1.7450
   64RES   H23317999   2.376   5.748   7.130  0.2384  0.4065 -0.4783
   64RES   H23418000   2.350   5.853   6.897  0.0485  1.0383  0.5235
   64RES   H23518001   2.212   5.588   6.899  0.4617  0.0754  2.3756
   64RES   H23618002   2.369   5.614   6.959 -1.5404 -3.1238  0.4414
   64RES   H23718003   2.269   5.521   6.660 -0.9183  3.8825 -2.9041
   64RES   H23818004   2.418   5.459   6.725  1.1643 -0.3776 -2.4424
   64RES   H23918005   2.422   5.576   6.591 -0.0547 -0.2499  0.5437
   64RES   O24018006   2.136   5.819   6.915  0.2951 -0.2535  0.1869
   64RES   C24118007   2.116   5.944   6.861  0.6229  0.1780  0.0462
   64RES   C24218008   1.961   5.953   6.837 -0.2661  0.1864 -0.4780
   64RES   C24318009   1.931   6.097   6.795  0.4486  0.0394 -0.4537
   64RES   O24418010   1.786   6.122   6.788  0.2002 -0.2251 -0.1663
   64RES   C24518011   1.727   6.202   6.686 -0.0082  0.7930 -0.1950
   64RES   H24618012   2.177   5.956   6.771  2.0290  0.5440  1.0311
   64RES   H24718013   2.150   6.012   6.939  2.4393  0.1621 -0.7040
   64RES   H24818014   1.906   5.926   6.927 -0.1886 -1.0128 -0.7826
   64RES   H24918015   1.974   6.172   6.861 -1.3140 -0.8996  1.8334
   64RES   H25018016   1.968   6.122   6.695 -2.0212 -0.4125 -1.5062
   64RES   H25118017   1.708   6.149   6.592 -1.4665 -1.8353  1.5217
   64RES   H25218018   1.787   6.293   6.684 -2.5048  2.4957  1.0731
   64RES   H25318019   1.633   6.221   6.738 -0.1188 -1.0378  0.3019
   64RES   O25418020   1.949   5.872   6.719 -0.1628 -0.6021 -0.7051
   64RES   C25518021   1.829   5.807   6.708  0.6902  0.2622 -0.1190
   64RES   C25618022   1.825   5.707   6.590 -0.0128  0.1444  0.6627
   64RES   C25718023   1.828   5.558   6.631 -0.9532  0.8961 -0.2026
   64RES   O25818024   1.898   5.479   6.540  0.1398  0.5612  0.1223
   64RES   C25918025   1.873   5.341   6.566 -0.0497 -0.1456  0.3623
   64RES   H26018026   1.795   5.750   6.794  2.5214 -3.2928 -1.6434
   64RES   H26118027   1.749   5.881   6.698 -0.2323 -0.3873  2.1786
   64RES   H26218028   1.914   5.718   6.526  1.0301 -2.0431  1.6718
   64RES   H26318029   1.875   5.554   6.729  0.5966  1.7848 -0.8881
   64RES   H26418030   1.727   5.520   6.646 -0.8597 -0.1554 -2.0412
   64RES   H26518031   1.944   5.291   6.500 -0.6431  0.5847 -0.8528
   64RES   H26618032   1.770   5.314   6.541  0.7708 -2.5764 -0.5387
   64RES   H26718033   1.900   5.330   6.671 -2.1804  1.3098  1.0966
   64RES   O26818034   1.713   5.709   6.497  0.6896  0.6430 -0.1368
   64RES   C26918035   1.713   5.823   6.413  0.0263  0.1472  0.2001
   64RES   C27018036   1.584   5.842   6.330  0.4118  0.3817 -0.3380
   64RES   C27118037   1.557   5.986   6.280  0.0063  0.1285  0.0846
   64RES   O27218038   1.526   6.071   6.388 -0.3465 -0.2053  0.2002
   64RES   C27318039   1.501   6.205   6.340 -0.1770 -0.0687 -0.0747
   64RES   H27418040   1.802   5.819   6.350  1.6938 -0.7698  2.5787
   64RES   H27518041   1.718   5.916   6.471  0.3937 -1.5489  2.9536
   64RES   H27618042   1.585   5.782   6.239 -0.9602  1.1682 -0.8802
   64RES   H27718043   1.479   5.985   6.204  1.3155  1.3391 -1.3328
   64RES   H27818044   1.651   6.020   6.236 -0.7295  0.9428 -0.9004
   64RES   H27918045   1.413   6.211   6.276  1.1864  1.0881 -1.8862
   64RES   H28018046   1.585   6.254   6.291 -0.7184 -0.2199 -1.1491
   64RES   H28118047   1.483   6.275   6.422  0.3207 -0.8877  0.7501
   64RES   H28218048   1.498   5.811   6.389 -0.4821 -0.2019 -1.9057
   65RES     O118049   3.198   6.114   6.860 -0.0377  0.3606 -0.1059
   65RES     C218050   3.318   6.129   6.794 -0.5507  0.1168 -0.0357
   65RES     C318051   3.425   6.069   6.882 -0.6256 -0.0359 -0.1682
   65RES     C418052   3.548   6.021   6.811  0.3727  0.6544  0.0879
   65RES     O518053   3.512   5.912   6.726  0.1078 -0.2199  0.3481
   65RES     C618054   3.620   5.866   6.653 -0.1999  0.1198 -0.3168
   65RES     H718055   3.306   6.078   6.699 -0.7704  2.4148 -1.2909
   65RES     H818056   3.348   6.231   6.769  1.2755 -0.6138 -0.9074
   65RES     H918057   3.381   5.980   6.927 -1.1206 -0.2507 -1.0597
   65RES    H1018058   3.629   5.994   6.878 -0.2851 -0.0912  0.5870
   65RES    H1118059   3.588   6.104   6.753  0.1295  0.4636 -0.3632
   65RES    H1218060   3.607   5.777   6.592 -1.2745  0.7064 -0.9635
   65RES    H1318061   3.649   5.950   6.590  0.3979  0.5640  0.5206
   65RES    H1418062   3.712   5.856   6.710 -0.7979 -1.3229  0.4247
   65RES    H1518063   3.187   6.167   6.937 -0.6511 -0.9691  0.7477
   65RES    O1618064   3.460   6.167   6.974 -0.0895  0.0141 -0.5101
   65RES    C1718065   3.503   6.113   7.101  0.8742 -0.1562 -0.2642
   65RES    C1818066   3.566   6.215   7.200  0.0192 -0.1976 -0.2719
   65RES    C1918067   3.600   6.144   7.337 -0.9557  0.0433  0.3888
   65RES    O2018068   3.628   6.242   7.440  0.0317 -0.1103  0.0176
   65RES    C2118069   3.636   6.192   7.566  0.6383  0.3437 -0.1776
   65RES    H2218070   3.564   6.022   7.099 -2.8555 -2.7439 -0.1704
   65RES    H2318071   3.409   6.078   7.142  2.2402 -3.0903  0.5560
   65RES    H2418072   3.495   6.296   7.213  0.2567  0.6324 -3.5866
   65RES    H2518073   3.503   6.105   7.369 -0.8807  1.4456  2.4534
   65RES    H2618074   3.680   6.071   7.331 -0.3716  0.7444 -0.5034
   65RES    H2718075   3.731   6.144   7.586  0.2609 -0.9869 -1.5187
   65RES    H2818076   3.553   6.127   7.593  0.0822  1.0762 -0.1095
   65RES    H2918077   3.625   6.280   7.630 -1.3241 -0.3536  0.4926
   65RES    O3018078   3.698   6.266   7.155  0.5259 -0.6567  0.1340
   65RES    C3118079   3.697   6.366   7.053  0.5839 -0.2924  0.5379
   65RES    C3218080   3.818   6.457   7.059  1.0108 -0.8258 -0.2928
   65RES    C3318081   3.786   6.582   7.146  0.2639  0.3498 -0.0113
   65RES    O3418082   3.909   6.640   7.186  0.5847 -0.0344  0.3589
   65RES    C3518083   3.889   6.765   7.250 -0.5452  0.1851  0.0482
   65RES    H3618084   3.704   6.318   6.955  0.8825 -2.6818  1.6768
   65RES    H3718085   3.599   6.413   7.055  0.8914  0.4108 -0.7591
   65RES    H3818086   3.907   6.407   7.098  1.1657 -0.6479 -0.4193
   65RES    H3918087   3.727   6.551   7.233  0.3992  0.9994  0.3090
   65RES    H4018088   3.723   6.655   7.095 -0.2196 -0.1948 -0.2003
   65RES    H4118089   3.839   6.840   7.189  0.7477 -0.3687 -1.7237
   65RES    H4218090   3.983   6.810   7.282 -0.5231  0.5577 -0.5260
   65RES    H4318091   3.831   6.748   7.340  1.6540  0.7314  1.6151
   65RES    O4418092   3.845   6.501   6.924 -0.4698  0.1451 -0.5411
   65RES    C4518093   3.923   6.410   6.843 -0.0049 -0.7346 -0.2140
   65RES    C4618094   3.935   6.487   6.711  0.5253  0.1975  0.4199
   65RES    C4718095   4.069   6.467   6.648 -0.0676 -0.2368 -0.0391
   65RES    O4818096   4.104   6.331   6.673  0.0767 -0.5294 -0.0457
   65RES    C4918097   4.228   6.292   6.616  0.1708 -0.1765 -0.2908
   65RES    H5018098   3.872   6.317   6.817  0.6063 -1.2182  0.2928
   65RES    H5118099   4.016   6.386   6.894  0.0240  1.0953  0.6056
   65RES    H5218100   3.932   6.595   6.727  0.9329  0.1786  0.6398
   65RES    H5318101   4.081   6.499   6.545  2.1803  3.1711  1.2127
   65RES    H5418102   4.136   6.540   6.693  1.6462 -0.6321 -1.8422
   65RES    H5518103   4.309   6.336   6.674  0.0852  0.5880 -0.7399
   65RES    H5618104   4.231   6.331   6.514 -1.1689  0.0537 -0.2421
   65RES    H5718105   4.244   6.184   6.615 -0.9119 -0.4252  2.9976
   65RES    O5818106   3.828   6.468   6.623 -0.1447 -0.6694  0.7588
   65RES    C5918107   3.693   6.482   6.685 -0.0875 -0.0727  0.0650
   65RES    C6018108   3.581   6.483   6.577 -0.6110 -0.1368 -0.3605
   65RES    C6118109   3.447   6.470   6.647 -0.2727  0.6946 -0.6902
   65RES    O6218110   3.335   6.508   6.573 -0.1107  0.5995 -0.4704
   65RES    C6318111   3.215   6.513   6.647 -0.5699 -0.0014 -0.0425
   65RES    H6418112   3.691   6.572   6.746 -1.4008  0.0470 -0.1471
   65RES    H6518113   3.677   6.388   6.738 -0.6064  0.9800  1.8032
   65RES    H6618114   3.585   6.574   6.516  2.4507 -0.0356 -0.0508
   65RES    H6718115   3.440   6.365   6.674  0.2690  1.4189  2.4246
   65RES    H6818116   3.458   6.529   6.738  2.5094  0.3657 -0.7677
   65RES    H6918117   3.188   6.416   6.690 -0.4099  0.6597  1.5722
   65RES    H7018118   3.127   6.541   6.589 -0.5806  0.4964  0.2120
   65RES    H7118119   3.234   6.569   6.738  0.8517  1.5660 -1.2733
   65RES    O7218120   3.605   6.374   6.494  0.2924  0.3555  0.5244
   65RES    C7318121   3.551   6.388   6.358 -0.2292  0.3379  0.0391
   65RES    C7418122   3.523   6.249   6.313  0.7763 -0.6083 -0.1624
   65RES    C7518123   3.433   6.165   6.409  0.3738 -0.5877  0.5349
   65RES    O7618124   3.363   6.070   6.325  0.1063  0.2840 -0.1049
   65RES    C7718125   3.285   5.993   6.415 -0.1837 -0.6045  0.3077
   65RES    H7818126   3.449   6.425   6.367 -1.3688 -2.8016  0.6271
   65RES    H7918127   3.611   6.452   6.292  2.7959 -1.7972  0.5936
   65RES    H8018128   3.472   6.265   6.218 -0.0797  1.6858  0.6601
   65RES    H8118129   3.368   6.236   6.460 -0.7449 -0.2264 -1.3570
   65RES    H8218130   3.499   6.121   6.484 -2.2541 -1.4485  2.4248
   65RES    H8318131   3.194   5.955   6.368 -1.3825  0.6846  1.5442
   65RES    H8418132   3.249   6.060   6.493 -0.5376 -0.2746 -0.1376
   65RES    H8518133   3.347   5.916   6.460  1.3562  0.0316 -0.6829
   65RES    O8618134   3.641   6.180   6.270 -0.2284 -0.6374  0.3024
   65RES    C8718135   3.620   6.060   6.191  0.3329 -0.0475  0.0605
   65RES    C8818136   3.759   6.047   6.119  0.5598  0.6203  0.5442
   65RES    C8918137   3.786   5.900   6.087  0.5592  0.1800  0.5140
   65RES    O9018138   3.918   5.883   6.034 -0.5422  0.3897  0.2745
   65RES    C9118139   3.933   5.747   6.018  0.0027 -0.2568 -0.2980
   65RES    H9218140   3.608   5.976   6.261  1.8705 -0.1836  0.1883
   65RES    H9318141   3.535   6.058   6.124 -0.6162 -1.0430  1.2704
   65RES    H9418142   3.843   6.080   6.179  0.1068 -1.9809  2.7479
   65RES    H9518143   3.778   5.836   6.175 -1.4787 -0.8721 -0.4210
   65RES    H9618144   3.711   5.862   6.018  0.0566  0.8679  0.6761
   65RES    H9718145   3.859   5.712   5.947 -2.6855  0.8695  1.8604
   65RES    H9818146   4.036   5.735   5.985 -0.0312 -0.5504 -0.2937
   65RES    H9918147   3.917   5.684   6.105  1.1005  0.0591  0.1458
   65RES   O10018148   3.741   6.121   5.996 -0.2964  0.0490  0.2890
   65RES   C10118149   3.786   6.260   6.005  0.1519  0.2957 -0.0078
   65RES   C10218150   3.780   6.349   5.876  0.2844 -0.1002 -0.5501
   65RES   C10318151   3.637   6.379   5.825 -0.4784  0.3980 -0.1803
   65RES   O10418152   3.583   6.472   5.920 -0.2036  0.1187  0.1599
   65RES   C10518153   3.446   6.487   5.905  0.1239  0.2736 -0.6514
   65RES   H10618154   3.884   6.270   6.052 -0.2289  0.4418  0.7564
   65RES   H10718155   3.727   6.310   6.082  1.8348 -0.1693  1.6378
   65RES   H10818156   3.827   6.446   5.890 -0.4820  0.1086  0.6917
   65RES   H10918157   3.584   6.284   5.821 -0.2006  0.3019 -2.0481
   65RES   H11018158   3.640   6.424   5.725 -1.6541  0.9869  0.0414
   65RES   H11118159   3.400   6.577   5.946 -2.7990 -1.9489  1.1529
   65RES   H11218160   3.400   6.397   5.946  0.9253  1.6194  3.4306
   65RES   H11318161   3.427   6.498   5.799  0.8842 -0.5695 -0.8738
   65RES   O11418162   3.865   6.293   5.772 -0.3359  0.6102  0.2085
   65RES   C11518163   3.845   6.174   5.706  0.6377  0.2918 -0.1652
   65RES   C11618164   3.903   6.169   5.561  0.6942 -0.3305 -0.4961
   65RES   C11718165   3.908   6.028   5.509 -0.3463  0.1235 -0.2116
   65RES   O11818166   3.991   6.027   5.394 -0.8402 -0.5683  0.0335
   65RES   C11918167   4.001   5.899   5.336 -0.0115  0.5207 -0.8315
   65RES   H12018168   3.908   6.110   5.767 -0.0331 -0.4898 -0.2791
   65RES   H12118169   3.745   6.132   5.708 -0.2821  2.4783  0.7033
   65RES   H12218170   4.000   6.219   5.548  1.1051 -0.3989  2.1006
   65RES   H12318171   3.951   5.966   5.587  0.7044  1.5542  0.3766
   65RES   H12418172   3.804   5.996   5.501  0.0146 -1.2722  0.4772
   65RES   H12518173   4.088   5.881   5.273 -0.4918 -0.9980 -1.0960
   65RES   H12618174   3.911   5.888   5.276  1.0786  0.1817 -2.4239
   65RES   H12718175   3.991   5.818   5.409  0.4655  0.3162 -0.9891
   65RES   O12818176   3.809   6.236   5.478 -0.1340 -0.9336  0.1385
   65RES   C12918177   3.826   6.379   5.463 -0.1681  0.5439  0.2424
   65RES   C13018178   3.929   6.413   5.352 -0.0399 -0.1662  0.1535
   65RES   C13118179   3.988   6.548   5.340 -0.4426 -0.6823  0.2583
   65RES   O13218180   4.067   6.557   5.453 -0.3320 -0.3207 -0.6827
   65RES   C13318181   4.122   6.685   5.477  0.8707  1.1069  0.7935
   65RES   H13418182   3.728   6.412   5.429 -0.7451 -0.8533  0.5407
   65RES   H13518183   3.828   6.430   5.560 -2.4906 -0.4616  0.8284
   65RES   H13618184   4.014   6.345   5.353  1.1397  1.2198 -1.3504
   65RES   H13718185   3.907   6.620   5.328  1.1473  0.9390 -1.1077
   65RES   H13818186   4.063   6.557   5.261  0.5902  0.2910  1.3308
   65RES   H13918187   4.029   6.738   5.498  0.2250 -0.4147  1.8485
   65RES   H14018188   4.194   6.675   5.558  1.5066 -2.0097 -0.1100
   65RES   H14118189   4.181   6.726   5.395 -0.4580  2.5723  0.5360
   65RES   O14218190   3.875   6.391   5.219 -0.7046  0.2035  0.1711
   65RES   C14318191   3.866   6.254   5.181  0.1900  0.0785  0.6152
   65RES   C14418192   3.786   6.233   5.046  0.5541 -0.3903 -0.8271
   65RES   C14518193   3.782   6.078   5.018  0.4621 -0.5688 -0.9484
   65RES   O14618194   3.669   6.034   4.957  0.2422  0.2993  0.4480
   65RES   C14718195   3.651   6.066   4.819  0.0551 -0.8253  1.2903
   65RES   H14818196   3.962   6.204   5.171  1.5791  1.8142  4.2574
   65RES   H14918197   3.813   6.195   5.256 -0.7832  0.6922  0.4281
   65RES   H15018198   3.686   6.274   5.059  0.7931 -0.0777  0.0640
   65RES   H15118199   3.783   6.018   5.109  3.7637  1.1265  0.1919
   65RES   H15218200   3.861   6.043   4.951 -0.2157  0.1991 -2.1499
   65RES   H15318201   3.721   6.017   4.751  0.3656 -1.0285  1.7563
   65RES   H15418202   3.683   6.170   4.812  1.4093 -1.2364  1.0586
   65RES   H15518203   3.550   6.048   4.784  0.5172 -0.7398 -0.1220
   65RES   O15618204   3.857   6.294   4.937 -0.0181  0.4365 -0.2786
   65RES   C15718205   3.817   6.425   4.900  0.0434  0.3510 -0.1050
   65RES   C15818206   3.861   6.464   4.759 -0.2716  0.2681 -0.6202
   65RES   C15918207   3.816   6.603   4.719 -0.0941  0.7034  0.1217
   65RES   O16018208   3.894   6.638   4.602  0.3697  0.1721 -0.0320
   65RES   C16118209   3.883   6.774   4.568 -0.0918  0.3191  0.3744
   65RES   H16218210   3.710   6.426   4.917  0.1555 -1.3175  0.8487
   65RES   H16318211   3.867   6.497   4.965 -1.3111  0.6731  0.5990
   65RES   H16418212   3.969   6.450   4.762 -0.0643  2.2060  2.3526
   65RES   H16518213   3.710   6.611   4.696 -1.1306 -0.4327  4.1043
   65RES   H16618214   3.840   6.678   4.794  0.1487  0.0590  0.7033
   65RES   H16718215   3.925   6.843   4.642  1.5444  1.6106 -1.6844
   65RES   H16818216   3.782   6.801   4.539 -0.3063 -0.4103  0.4423
   65RES   H16918217   3.937   6.783   4.474  0.4431  1.5198  0.7814
   65RES   O17018218   3.801   6.376   4.666  0.2422 -0.1983  0.0812
   65RES   C17118219   3.891   6.283   4.601  0.7949  0.2981 -0.0332
   65RES   C17218220   3.832   6.240   4.462 -0.0901  0.8665  0.0105
   65RES   C17318221   3.839   6.351   4.359  0.1413  0.4578 -0.6583
   65RES   O17418222   3.825   6.295   4.229  0.0064  1.0120 -0.3943
   65RES   C17518223   3.889   6.365   4.129  0.4165  0.3387 -0.1075
   65RES   H17618224   3.905   6.197   4.666 -0.6452 -1.8063 -2.3864
   65RES   H17718225   3.990   6.322   4.579  0.4005  0.8729 -0.8050
   65RES   H17818226   3.886   6.153   4.425 -3.0148 -1.4402  0.9378
   65RES   H17918227   3.765   6.429   4.372  0.4970  0.6197  0.4241
   65RES   H18018228   3.941   6.389   4.366 -0.1949  1.2210  0.1002
   65RES   H18118229   3.992   6.396   4.148  0.4475 -0.3076  0.8116
   65RES   H18218230   3.835   6.457   4.110 -0.7420  0.1102  2.0006
   65RES   H18318231   3.869   6.303   4.042 -1.0481 -0.3410  0.6916
   65RES   O18418232   3.701   6.192   4.490  0.3134  0.0292 -0.3071
   65RES   C18518233   3.652   6.098   4.396 -0.2437  0.2544 -0.0507
   65RES   C18618234   3.516   6.045   4.449  0.4069  0.5498 -0.2095
   65RES   C18718235   3.430   6.141   4.530 -0.9293  0.1669 -0.5761
   65RES   O18818236   3.294   6.106   4.545  0.2193  0.1354  0.0369
   65RES   C18918237   3.227   6.167   4.650  0.4014  0.0567  0.2491
   65RES   H19018238   3.715   6.011   4.375 -1.5672 -0.8265  0.3466
   65RES   H19118239   3.623   6.146   4.302  0.2884  3.0724  1.1807
   65RES   H19218240   3.463   6.017   4.358 -2.3236 -3.1582  2.3401
   65RES   H19318241   3.432   6.238   4.481 -0.3202  0.0179 -0.8520
   65RES   H19418242   3.479   6.148   4.628 -0.6838  0.3353 -0.7102
   65RES   H19518243   3.246   6.273   4.633 -0.3980  0.4244  1.5019
   65RES   H19618244   3.119   6.159   4.632  0.6096 -1.1908 -0.5330
   65RES   H19718245   3.253   6.125   4.747  1.3126 -1.9707 -0.8434
   65RES   O19818246   3.538   5.924   4.525 -0.1930 -0.1151  0.7923
   65RES   C19918247   3.438   5.826   4.498  0.2329 -0.7105 -0.2240
   65RES   C20018248   3.488   5.703   4.572  0.6540 -0.2248 -0.2829
   65RES   C20118249   3.411   5.579   4.527  0.4512  0.7635  0.0803
   65RES   O20218250   3.458   5.448   4.544  0.1375  0.0009 -0.6871
   65RES   C20318251   3.449   5.411   4.679 -0.0241 -0.1322 -0.5395
   65RES   H20418252   3.435   5.806   4.391 -1.4474 -1.6803 -0.0112
   65RES   H20518253   3.343   5.867   4.531  0.9836  1.4801 -0.6822
   65RES   H20618254   3.588   5.685   4.532  0.7695 -1.3995  0.5383
   65RES   H20718255   3.308   5.578   4.564 -0.3350 -0.9109 -1.9941
   65RES   H20818256   3.403   5.581   4.418 -0.4400 -0.1475  0.1147
   65RES   H20918257   3.478   5.307   4.694 -0.3423 -0.6213 -3.1750
   65RES   H21018258   3.348   5.433   4.714 -0.0371  1.6597 -1.6345
   65RES   H21118259   3.508   5.470   4.750 -1.2613  2.3291 -1.4809
   65RES   O21218260   3.483   5.711   4.716  0.2573  0.6863 -0.1792
   65RES   C21318261   3.372   5.775   4.779 -0.1478 -0.3465 -0.4174
   65RES   C21418262   3.369   5.731   4.927 -0.8168 -0.2889  0.7384
   65RES   C21518263   3.240   5.765   4.993  0.7849  0.0638 -0.1187
   65RES   O21618264   3.220   5.706   5.123 -0.0940  0.3753  0.0605
   65RES   C21718265   3.087   5.735   5.171  0.5206 -0.9636 -0.6265
   65RES   H21818266   3.280   5.746   4.727  0.5720  0.5181 -2.2160
   65RES   H21918267   3.372   5.883   4.770  1.4502 -0.4291 -1.6489
   65RES   H22018268   3.362   5.624   4.905  0.9791 -0.4840  1.0246
   65RES   H22118269   3.234   5.874   4.999 -0.9582 -0.0033 -0.2774
   65RES   H22218270   3.157   5.728   4.932  0.7881 -0.7987  0.3951
   65RES   H22318271   3.008   5.716   5.098 -0.0955 -0.3563 -0.1195
   65RES   H22418272   3.080   5.842   5.193  1.5356 -0.8982 -0.6021
   65RES   H22518273   3.061   5.680   5.261  1.4413 -1.1130 -0.4508
   65RES   O22618274   3.490   5.772   4.990  0.3911 -0.3839  0.2392
   65RES   C22718275   3.529   5.680   5.097 -0.7426  0.2753  0.3516
   65RES   C22818276   3.677   5.673   5.114 -0.4748  0.5052 -0.1156
   65RES   C22918277   3.719   5.610   5.253 -0.2594  0.0892  0.0205
   65RES   O23018278   3.859   5.626   5.273 -0.3043 -0.3491 -0.2019
   65RES   C23118279   3.921   5.522   5.348  0.3630  0.5727  0.1164
   65RES   H23218280   3.497   5.578   5.074  0.9957 -0.2583  0.2620
   65RES   H23318281   3.484   5.720   5.188  0.4206 -1.4457  1.7296
   65RES   H23418282   3.708   5.776   5.129  0.5893 -0.1703  2.6400
   65RES   H23518283   3.691   5.505   5.262 -0.8774  0.1961 -0.6315
   65RES   H23618284   3.670   5.677   5.325 -1.9933  0.5538 -1.5591
   65RES   H23718285   4.020   5.566   5.360  0.0386  1.0265  1.2357
   65RES   H23818286   3.924   5.420   5.312  0.3540  0.2298  1.0817
   65RES   H23918287   3.880   5.530   5.449 -4.6872  0.0491 -1.7511
   65RES   O24018288   3.740   5.598   5.011 -0.4821  0.7868 -0.0601
   65RES   C24118289   3.799   5.681   4.915  0.1527 -0.0420  0.7297
   65RES   C24218290   3.856   5.594   4.808 -0.0793 -0.0655 -0.5315
   65RES   C24318291   3.868   5.662   4.674 -0.1087 -0.1491  0.1512
   65RES   O24418292   3.954   5.778   4.690  0.0669 -0.4331 -0.2386
   65RES   C24518293   3.950   5.853   4.572 -0.2781 -0.1277 -0.0742
   65RES   H24618294   3.889   5.728   4.952  1.5235 -1.2697 -0.9682
   65RES   H24718295   3.721   5.745   4.873  0.3371 -0.1480  0.2235
   65RES   H24818296   3.782   5.516   4.788 -1.3939  1.2547 -0.9318
   65RES   H24918297   3.916   5.591   4.607  0.6578 -0.2612  0.8035
   65RES   H25018298   3.767   5.694   4.648 -0.2669 -0.7968 -0.0392
   65RES   H25118299   3.848   5.890   4.556 -0.8288 -2.2185 -1.5728
   65RES   H25218300   3.976   5.791   4.486 -0.1584  2.3098 -1.8506
   65RES   H25318301   4.012   5.943   4.573 -0.7418  0.2356 -1.7507
   65RES   O25418302   3.986   5.538   4.847  0.7498 -0.8432  0.0261
   65RES   C25518303   3.980   5.430   4.934 -0.7933 -0.2835  0.1280
   65RES   C25618304   4.073   5.320   4.872 -0.5273  0.0585  0.1711
   65RES   C25718305   4.075   5.183   4.944  0.0019  0.3315 -0.3505
   65RES   O25818306   4.180   5.105   4.897  0.4609  0.3853  0.0145
   65RES   C25918307   4.223   4.993   4.976  0.0878 -0.3117 -0.2055
   65RES   H26018308   4.007   5.466   5.033 -0.6851 -0.9625  0.3509
   65RES   H26118309   3.883   5.381   4.937 -0.2867 -1.2234  1.8323
   65RES   H26218310   4.172   5.365   4.880 -0.3899 -0.4816  1.7677
   65RES   H26318311   4.081   5.201   5.051 -1.0604  0.4071 -0.2998
   65RES   H26418312   3.982   5.128   4.927  1.3200 -1.6430 -1.2940
   65RES   H26518313   4.278   4.927   4.909  0.9963 -0.1297  0.3614
   65RES   H26618314   4.139   4.932   5.012 -0.3823  0.6964  0.4286
   65RES   H26718315   4.277   5.039   5.059  0.4594 -1.4871  0.2241
   65RES   O26818316   4.028   5.294   4.739  0.2227 -0.2144 -0.5523
   65RES   C26918317   4.126   5.335   4.645 -0.2107  0.3025 -1.0968
   65RES   C27018318   4.072   5.317   4.511 -0.6009  0.3233 -0.0207
   65RES   C27118319   4.179   5.360   4.404 -0.4233  0.5934 -0.3391
   65RES   O27218320   4.123   5.347   4.276  0.2629  0.2255 -0.8246
   65RES   C27318321   4.204   5.397   4.165 -0.8634 -0.5074 -0.0723
   65RES   H27418322   4.218   5.278   4.662  1.3361  2.5718 -1.6931
   65RES   H27518323   4.135   5.443   4.651 -0.9348  0.2475  1.5718
   65RES   H27618324   4.041   5.213   4.498 -2.5516  1.0049 -1.0005
   65RES   H27718325   4.279   5.318   4.411  0.4055  2.4959 -0.4727
   65RES   H27818326   4.194   5.466   4.427  1.8008  0.0707  0.7683
   65RES   H27918327   4.145   5.370   4.078  0.0344  2.7162 -1.7510
   65RES   H28018328   4.300   5.346   4.166  0.2930  1.5495 -2.5623
   65RES   H28118329   4.219   5.505   4.176  1.8611 -0.7769 -0.7511
   65RES   H28218330   3.987   5.381   4.490 -1.2153 -0.8208 -1.0780
   66RES     O118331   2.467   0.398   3.621  0.7170  0.1599 -0.6393
   66RES     C218332   2.551   0.300   3.672 -0.0714 -0.4031 -0.6221
   66RES     C318333   2.470   0.209   3.777  0.3315 -0.0279  0.1073
   66RES     C418334   2.353   0.124   3.721 -0.4300 -0.5376 -0.2326
   66RES     O518335   2.242   0.138   3.795  0.7207  0.0351  0.5031
   66RES     C618336   2.169   0.260   3.778 -0.8639  0.2060  0.9918
   66RES     H718337   2.594   0.234   3.597  1.6833  0.7282 -0.6309
   66RES     H818338   2.636   0.350   3.719 -0.0830  0.1191 -1.1548
   66RES     H918339   2.429   0.276   3.853  3.9021  2.9264 -0.4167
   66RES    H1018340   2.392   0.022   3.725  2.0468  0.4115  0.7979
   66RES    H1118341   2.330   0.153   3.619  0.0685  1.2997  0.1760
   66RES    H1218342   2.120   0.254   3.681  0.2447  1.3010  0.3349
   66RES    H1318343   2.082   0.273   3.841  0.3385  1.7245  2.3860
   66RES    H1418344   2.223   0.355   3.773 -0.6471 -0.0070 -1.4234
   66RES    H1518345   2.478   0.480   3.665  1.6402  0.8856 -2.1502
   66RES    O1618346   2.571   0.121   3.831  0.3968 -0.4265 -0.0176
   66RES    C1718347   2.642   0.164   3.945  0.1883 -0.1329  0.6159
   66RES    C1818348   2.760   0.083   3.986 -0.4136 -0.1549  0.0372
   66RES    C1918349   2.808   0.120   4.126  0.4716  0.0814  0.1119
   66RES    O2018350   2.941   0.066   4.138  0.3097 -0.1013  0.2298
   66RES    C2118351   2.972   0.026   4.271 -0.1506 -0.7579 -0.0276
   66RES    H2218352   2.568   0.174   4.024  0.6465 -0.8663  1.1370
   66RES    H2318353   2.673   0.267   3.926  0.9482 -0.4239  0.2417
   66RES    H2418354   2.836   0.086   3.908  0.8304 -1.1737  1.1725
   66RES    H2518355   2.810   0.229   4.135  0.3263  0.0679  0.3213
   66RES    H2618356   2.738   0.095   4.206 -0.2670  1.0059 -0.2335
   66RES    H2718357   3.063   0.080   4.296 -0.9256  0.1254  0.9432
   66RES    H2818358   2.987   7.737   4.292 -2.6146 -0.7297  2.2080
   66RES    H2918359   2.904   0.069   4.345 -0.6865  2.4769 -2.3139
   66RES    O3018360   2.717   7.768   3.997  0.7263  0.4969 -0.7256
   66RES    C3118361   2.812   7.662   4.005 -0.2090 -0.0402  0.2187
   66RES    C3218362   2.736   7.536   3.959  0.4590 -0.2280  0.2873
   66RES    C3318363   2.823   7.410   3.949  0.2356 -0.1679  0.4381
   66RES    O3418364   2.821   7.353   4.080 -0.0816  0.1015 -0.3435
   66RES    C3518365   2.732   7.251   4.091  0.0447  0.1417  0.5427
   66RES    H3618366   2.901   7.673   3.944 -0.8314 -1.1304 -0.9291
   66RES    H3718367   2.851   7.649   4.106 -2.0113 -1.4569  0.7671
   66RES    H3818368   2.662   7.518   4.036  1.6814 -1.8727  1.1032
   66RES    H3918369   2.926   7.424   3.917  0.6972 -2.8339  0.6709
   66RES    H4018370   2.787   7.337   3.877  0.6897  0.9255 -0.9276
   66RES    H4118371   2.727   7.212   4.193  0.6864  0.8124  0.8295
   66RES    H4218372   2.769   7.167   4.032 -0.4904  0.0023  0.4062
   66RES    H4318373   2.632   7.277   4.059 -0.2520 -1.2562  0.3081
   66RES    O4418374   2.650   7.557   3.848  0.4163  0.1421  0.4439
   66RES    C4518375   2.716   7.598   3.728 -0.9464  0.9574 -0.2219
   66RES    C4618376   2.612   7.661   3.636  0.2863 -0.0110  0.0858
   66RES    C4718377   2.673   7.745   3.517 -0.1905 -0.1183 -0.4069
   66RES    O4818378   2.571   0.011   3.455 -0.0793  0.3411  0.5135
   66RES    C4918379   2.621   0.107   3.372 -0.5373  0.1810 -0.5522
   66RES    H5018380   2.758   7.510   3.679 -0.8087  0.9294 -0.0558
   66RES    H5118381   2.791   7.677   3.732  0.0077 -0.0025  1.8633
   66RES    H5218382   2.553   7.733   3.693 -0.9197 -0.8917 -0.0358
   66RES    H5318383   2.744   7.812   3.567 -1.6073 -0.6771  2.4569
   66RES    H5418384   2.719   7.687   3.437  0.6486 -3.2856  2.2507
   66RES    H5518385   2.660   0.066   3.279 -0.4604 -1.0581  0.0246
   66RES    H5618386   2.703   0.167   3.411 -0.4885  1.6244 -2.7666
   66RES    H5718387   2.544   0.183   3.356  1.5624  2.5914  0.4721
   66RES    O5818388   2.537   7.554   3.571  0.0132  0.4129  0.0673
   66RES    C5918389   2.413   7.526   3.643 -0.4686 -0.1790 -0.4840
   66RES    C6018390   2.303   7.484   3.551 -0.1977 -0.1093  1.2868
   66RES    C6118391   2.167   7.495   3.616 -0.0283 -0.2833  0.0526
   66RES    O6218392   2.072   7.579   3.550 -0.7545 -0.3541 -0.4893
   66RES    C6318393   2.017   7.683   3.628 -0.1178  0.3628  0.8707
   66RES    H6418394   2.379   7.614   3.698  0.2630  0.2621 -0.7334
   66RES    H6518395   2.436   7.447   3.715 -1.2965 -0.4551 -0.5221
   66RES    H6618396   2.313   7.553   3.467  0.0078 -1.0089  0.5525
   66RES    H6718397   2.114   7.402   3.634 -1.6773  0.9542  1.8243
   66RES    H6818398   2.188   7.538   3.714  0.0077  0.7071 -0.3762
   66RES    H6918399   1.943   7.742   3.575 -1.8799  0.1767  3.0677
   66RES    H7018400   2.100   7.749   3.656  0.7852 -0.2880 -0.1977
   66RES    H7118401   1.975   7.641   3.719 -0.4190  0.4627  0.7750
   66RES    O7218402   2.324   7.352   3.507  0.8247  0.2691 -0.0690
   66RES    C7318403   2.370   7.329   3.368 -0.0521 -0.6452  0.3185
   66RES    C7418404   2.432   7.192   3.350 -0.0519 -0.0749  0.1516
   66RES    C7518405   2.506   7.166   3.215  0.1073  0.2221  0.7592
   66RES    O7618406   2.604   7.069   3.236 -0.7672  0.2959 -0.1526
   66RES    C7718407   2.554   6.944   3.182 -0.1138 -0.3068 -0.3601
   66RES    H7818408   2.287   7.345   3.299  1.0021  1.6709 -0.4799
   66RES    H7918409   2.447   7.405   3.352 -3.0322  1.8088 -3.1881
   66RES    H8018410   2.512   7.196   3.425  0.2425 -0.4911 -0.1355
   66RES    H8118411   2.555   7.259   3.187  1.0127 -0.5366 -0.2187
   66RES    H8218412   2.430   7.146   3.139  1.5715 -1.1361 -0.3717
   66RES    H8318413   2.598   6.921   3.084  1.3280  0.5906  0.0636
   66RES    H8418414   2.447   6.937   3.163 -0.2778 -2.2501  1.1217
   66RES    H8518415   2.585   6.862   3.247  1.1723  0.5356  0.0998
   66RES    O8618416   2.336   7.090   3.357  0.1393  0.4727  0.1638
   66RES    C8718417   2.365   7.000   3.460  0.0708 -0.5534 -1.0012
   66RES    C8818418   2.241   6.908   3.490  0.2012  0.1486 -0.4681
   66RES    C8918419   2.301   6.782   3.547  0.0735  1.1754 -0.1660
   66RES    O9018420   2.189   6.697   3.590  0.3345 -0.5819  0.4704
   66RES    C9118421   2.216   6.604   3.689  0.5809  0.1455  0.0086
   66RES    H9218422   2.456   6.942   3.444  0.9496 -0.0339  1.7668
   66RES    H9318423   2.379   7.057   3.552  1.2005 -0.6556 -1.1034
   66RES    H9418424   2.189   6.894   3.395  0.5015 -2.7098 -0.2715
   66RES    H9518425   2.355   6.732   3.466  0.1874  0.7912  0.1445
   66RES    H9618426   2.365   6.816   3.628  1.2890  0.2826 -0.7319
   66RES    H9718427   2.154   6.618   3.777  1.0664 -1.0189  0.5504
   66RES    H9818428   2.189   6.500   3.666  1.1707 -0.0968  0.3894
   66RES    H9918429   2.323   6.604   3.712  0.3369  0.2086  1.1693
   66RES   O10018430   2.159   6.974   3.585 -0.3365  0.0023  0.7806
   66RES   C10118431   2.086   7.083   3.537  0.5386  0.4478 -0.7764
   66RES   C10218432   1.949   7.078   3.606 -0.3196 -0.2100 -0.2587
   66RES   C10318433   1.840   7.183   3.558  0.1145  0.2670  0.0613
   66RES   O10418434   1.808   7.156   3.419 -0.2621 -0.0750  0.3215
   66RES   C10518435   1.703   7.236   3.367 -0.4424  0.1755 -0.2748
   66RES   H10618436   2.056   7.082   3.432 -0.1704  2.1843 -0.6154
   66RES   H10718437   2.129   7.181   3.559  2.1951 -0.2493 -0.8061
   66RES   H10818438   1.903   6.979   3.607  0.5004 -0.6310 -2.5560
   66RES   H10918439   1.879   7.284   3.561  1.7060 -0.3500  0.7992
   66RES   H11018440   1.752   7.185   3.621 -0.9334 -0.3171 -1.3444
   66RES   H11118441   1.669   7.195   3.272 -2.7878  1.0806  0.1205
   66RES   H11218442   1.746   7.332   3.342 -0.4235  0.0949 -0.5529
   66RES   H11318443   1.617   7.243   3.434  0.3981 -0.6472  0.9334
   66RES   O11418444   1.967   7.113   3.742  0.3712  0.2258 -0.3746
   66RES   C11518445   2.018   7.003   3.825 -0.5888  0.1373 -0.0021
   66RES   C11618446   1.926   6.989   3.952  0.2015 -0.0262  0.2488
   66RES   C11718447   1.945   6.840   4.011 -0.2754 -0.5548  0.2991
   66RES   O11818448   1.826   6.797   4.069  0.1749  0.7068 -0.0814
   66RES   C11918449   1.724   6.747   3.982 -0.0355 -0.5563 -0.2524
   66RES   H12018450   2.015   6.902   3.784  1.7299 -1.8494  4.3822
   66RES   H12118451   2.122   7.017   3.854 -1.1805  4.5153  0.3321
   66RES   H12218452   1.821   7.004   3.926  0.0461 -0.2856  0.7150
   66RES   H12318453   1.977   6.779   3.927  0.6637 -1.2821  1.1905
   66RES   H12418454   2.024   6.840   4.086  0.4569  1.7683 -0.4411
   66RES   H12518455   1.680   6.821   3.915 -1.2625 -1.2144 -0.1785
   66RES   H12618456   1.642   6.711   4.045  0.7888  1.8606  2.3240
   66RES   H12718457   1.759   6.658   3.930 -1.8824 -0.5970 -1.4856
   66RES   O12818458   1.963   7.071   4.065  0.6080  0.1100 -0.4503
   66RES   C12918459   1.927   7.211   4.071  0.1232  0.0619 -0.0360
   66RES   C13018460   1.777   7.232   4.105  1.1846  0.1391 -0.6101
   66RES   C13118461   1.719   7.373   4.080  0.1230  0.0602 -0.1005
   66RES   O13218462   1.574   7.364   4.069 -0.2771 -0.1726  0.1202
   66RES   C13318463   1.503   7.496   4.074  0.0099 -0.5702  0.4900
   66RES   H13418464   1.997   7.270   4.131  0.3396 -1.1095  0.8719
   66RES   H13518465   1.940   7.254   3.972 -2.5998 -1.9981 -1.3563
   66RES   H13618466   1.719   7.150   4.064 -0.5942  0.3174  1.5180
   66RES   H13718467   1.759   7.417   3.989 -0.1901 -0.5712 -0.5384
   66RES   H13818468   1.742   7.451   4.153 -2.9941  0.5005  0.4693
   66RES   H13918469   1.558   7.581   4.035 -0.1581 -0.6771  0.0075
   66RES   H14018470   1.413   7.487   4.013  1.6003 -0.4683 -1.9337
   66RES   H14118471   1.468   7.512   4.176 -1.2227 -0.0755  0.0051
   66RES   O14218472   1.763   7.228   4.249  0.3791  0.3252 -0.1774
   66RES   C14318473   1.752   7.092   4.307 -0.3274  0.3361  0.6799
   66RES   C14418474   1.725   7.100   4.454  0.0932 -0.2190  0.2054
   66RES   C14518475   1.592   7.174   4.486  0.8392  0.1412 -0.6475
   66RES   O14618476   1.526   7.120   4.602  0.1069  0.4295 -0.2445
   66RES   C14718477   1.404   7.181   4.628  0.4925  0.5832 -0.0222
   66RES   H14818478   1.676   7.036   4.252  0.2919  0.4038 -0.2713
   66RES   H14918479   1.838   7.030   4.282 -0.3911  1.1342 -1.6681
   66RES   H15018480   1.703   6.999   4.488  0.4601 -0.5985 -0.6583
   66RES   H15118481   1.526   7.147   4.404  0.2563  0.7309 -0.3763
   66RES   H15218482   1.596   7.283   4.492 -0.0122  0.2113 -1.2231
   66RES   H15318483   1.412   7.283   4.667  1.3829  0.7932 -0.7298
   66RES   H15418484   1.361   7.117   4.705  2.1198 -0.0880  0.3502
   66RES   H15518485   1.334   7.186   4.545 -0.0576 -1.2711  0.3215
   66RES   O15618486   1.842   7.139   4.529  0.5649 -0.0518  0.1861
   66RES   C15718487   1.875   7.276   4.536  0.6883  0.3143 -0.0025
   66RES   C15818488   2.012   7.285   4.607 -0.1661  0.1776  0.6169
   66RES   C15918489   2.015   7.425   4.671 -0.0387 -0.6203 -0.1884
   66RES   O16018490   2.083   7.417   4.791 -0.2191 -0.3984 -0.3143
   66RES   C16118491   2.090   7.545   4.856  0.2429 -0.1385 -0.3788
   66RES   H16218492   1.894   7.339   4.449  1.6395  1.1577  0.8016
   66RES   H16318493   1.796   7.324   4.595  1.5774  1.7765  0.0240
   66RES   H16418494   2.028   7.207   4.681 -1.7270  0.8120  1.6305
   66RES   H16518495   2.063   7.503   4.611  0.7236 -0.7085  0.3054
   66RES   H16618496   1.922   7.481   4.670  0.6857  0.5970 -0.4191
   66RES   H16718497   2.119   7.528   4.960 -0.9336  0.6783  0.0792
   66RES   H16818498   1.999   7.603   4.849 -0.2016 -0.6117  1.1700
   66RES   H16918499   2.166   7.605   4.807  0.5443 -0.5658 -0.4445
   66RES   O17018500   2.126   7.276   4.525 -0.1410 -0.1710 -0.1028
   66RES   C17118501   2.146   7.159   4.449  0.0704 -0.3360 -0.6600
   66RES   C17218502   2.276   7.180   4.370 -0.1362  0.1381  0.2212
   66RES   C17318503   2.295   7.056   4.278  0.0501 -0.6455 -0.2185
   66RES   O17418504   2.389   7.092   4.179  0.0104 -0.0971  0.0005
   66RES   C17518505   2.398   6.992   4.071 -0.0508  0.0050  0.1869
   66RES   H17618506   2.074   7.131   4.373  1.6909 -1.3653 -1.8462
   66RES   H17718507   2.151   7.079   4.523 -1.6894  0.7096  0.6496
   66RES   H17818508   2.267   7.277   4.321  3.8502  1.3407  1.7032
   66RES   H17918509   2.340   6.973   4.334  0.9692  0.7858  1.1961
   66RES   H18018510   2.209   7.008   4.230 -1.4511  0.8792  0.8943
   66RES   H18118511   2.465   7.024   3.991 -2.0930  0.1755 -1.4904
   66RES   H18218512   2.297   6.986   4.029 -0.5592  1.1999  1.2197
   66RES   H18318513   2.436   6.897   4.108 -1.4471 -0.2579  0.9637
   66RES   O18418514   2.390   7.185   4.455  0.0945 -0.3747 -0.0001
   66RES   C18518515   2.513   7.231   4.402 -0.6243 -0.2114 -0.4414
   66RES   C18618516   2.561   7.348   4.496 -0.4886  0.1013  0.4388
   66RES   C18718517   2.709   7.387   4.461  0.0891 -0.3188 -1.1798
   66RES   O18818518   2.744   7.506   4.533 -0.7145  0.1438 -0.4069
   66RES   C18918519   2.865   7.466   4.608  0.2259 -0.1100  0.1791
   66RES   H19018520   2.505   7.274   4.302  0.8140  0.0713 -0.4466
   66RES   H19118521   2.588   7.152   4.405 -0.7732 -0.3630 -0.6832
   66RES   H19218522   2.503   7.439   4.484  0.5084  0.9507  1.8941
   66RES   H19318523   2.715   7.404   4.353 -0.6820 -0.7373 -1.2941
   66RES   H19418524   2.772   7.299   4.474  0.1401 -0.0870  0.1941
   66RES   H19518525   2.853   7.406   4.698 -1.1643  0.8791  0.6759
   66RES   H19618526   2.934   7.416   4.541  1.5460  0.1610  1.3249
   66RES   H19718527   2.907   7.560   4.645 -0.8931  1.5850 -2.6966
   66RES   O19818528   2.566   7.289   4.627 -0.7046  0.1759  0.5435
   66RES   C19918529   2.467   7.322   4.719  0.3519 -0.2055 -0.3090
   66RES   C20018530   2.483   7.278   4.866 -0.4903  0.0640  0.5872
   66RES   C20118531   2.359   7.313   4.949  0.0470 -0.0794 -0.1672
   66RES   O20218532   2.363   7.263   5.082 -0.1026 -0.0463 -0.5676
   66RES   C20318533   2.266   7.313   5.168  0.1025 -0.2247  0.2732
   66RES   H20418534   2.371   7.290   4.677 -0.3558  2.3485 -0.7403
   66RES   H20518535   2.442   7.428   4.713  1.9424  0.2363  0.7493
   66RES   H20618536   2.507   7.171   4.874  0.8610  0.1465 -1.6637
   66RES   H20718537   2.364   7.422   4.954  0.3715 -0.2043  3.3881
   66RES   H20818538   2.269   7.280   4.896 -0.3054 -0.5055  0.6940
   66RES   H20918539   2.285   7.273   5.268  0.0568 -1.3549 -0.1652
   66RES   H21018540   2.166   7.284   5.135  0.0286 -1.5496  1.5936
   66RES   H21118541   2.260   7.422   5.173 -0.5940 -0.3129  1.8009
   66RES   O21218542   2.598   7.348   4.905 -0.1654 -0.5857  0.5100
   66RES   C21318543   2.673   7.303   5.017 -0.6369 -0.3271  0.4232
   66RES   C21418544   2.815   7.366   5.030 -0.5929 -1.0513  0.4306
   66RES   C21518545   2.923   7.268   5.091  0.1085 -0.1841 -0.3026
   66RES   O21618546   3.048   7.315   5.050  0.0004 -0.0253  0.1699
   66RES   C21718547   3.148   7.265   5.130 -0.4937  0.7766 -0.3013
   66RES   H21818548   2.698   7.198   5.001  2.8719  0.8462 -2.1664
   66RES   H21918549   2.617   7.302   5.111  2.0709 -2.0289  2.0813
   66RES   H22018550   2.843   7.389   4.927 -2.0299  0.6180  0.3971
   66RES   H22118551   2.912   7.264   5.199 -0.3546 -0.3210 -0.3529
   66RES   H22218552   2.926   7.163   5.061  3.3447  0.0046 -0.8152
   66RES   H22318553   3.169   7.162   5.103  1.0688  1.4758 -1.7881
   66RES   H22418554   3.123   7.285   5.235 -1.2094  1.1081 -0.5354
   66RES   H22518555   3.237   7.319   5.100  0.4778 -0.1730  0.8170
   66RES   O22618556   2.816   7.473   5.119 -0.2430 -0.4137  0.3489
   66RES   C22718557   2.798   7.603   5.061 -0.2111  0.4530  0.8470
   66RES   C22818558   2.803   7.705   5.173  0.4794 -0.1500 -0.3478
   66RES   C22918559   2.828   0.027   5.116  0.0668 -0.1611 -0.0007
   66RES   O23018560   2.840   0.114   5.229 -0.0094  0.0322  0.0183
   66RES   C23118561   2.858   0.243   5.184 -0.2301 -0.3015 -0.0390
   66RES   H23218562   2.704   7.610   5.007  0.5870  0.5453 -0.5350
   66RES   H23318563   2.879   7.625   4.992 -1.8663 -1.3580 -1.7587
   66RES   H23418564   2.879   7.676   5.246 -1.0863 -1.4163  0.8245
   66RES   H23518565   2.742   0.051   5.053 -2.1146 -0.3536  2.8021
   66RES   H23618566   2.919   0.032   5.056 -0.8086 -0.9631 -1.4238
   66RES   H23718567   2.770   0.283   5.133 -0.0317  0.7995  0.4656
   66RES   H23818568   2.943   0.244   5.116 -0.5234 -1.8116 -0.4452
   66RES   H23918569   2.876   0.307   5.271 -0.6592  0.1957 -0.3156
   66RES   O24018570   2.684   7.715   5.249 -0.2493  0.3340 -0.5035
   66RES   C24118571   2.654   7.610   5.341 -0.0697  0.2023 -0.3283
   66RES   C24218572   2.550   7.645   5.443  0.9833  0.2188 -0.5789
   66RES   C24318573   2.590   7.753   5.546 -0.3938 -0.3996  0.9264
   66RES   O24418574   2.488   7.769   5.646  0.1437 -0.1845  0.7657
   66RES   C24518575   2.499   0.061   5.738  0.2598 -0.3566 -0.0870
   66RES   H24618576   2.744   7.575   5.391  1.1069  1.1280 -1.7556
   66RES   H24718577   2.615   7.522   5.290  1.0214 -1.2606  1.2884
   66RES   H24818578   2.526   7.559   5.504  0.3841  0.7099 -0.1173
   66RES   H24918579   2.685   7.730   5.594  0.9871  0.2723 -1.4346
   66RES   H25018580   2.605   0.026   5.488 -1.8098 -0.3559  0.5973
   66RES   H25118581   2.437   0.038   5.825  1.8089  2.3141  1.8046
   66RES   H25218582   2.462   0.150   5.687 -1.2028 -0.6958  0.3491
   66RES   H25318583   2.600   0.082   5.772 -0.1606  0.3356  0.7559
   66RES   O25418584   2.427   7.671   5.378  0.1026 -0.1128  0.0618
   66RES   C25518585   2.316   7.605   5.438 -0.2506  0.4561  0.0004
   66RES   C25618586   2.185   7.662   5.398  0.1347 -0.6737 -0.6792
   66RES   C25718587   2.070   7.563   5.425  0.3149 -0.2307 -0.2039
   66RES   O25818588   2.051   7.472   5.317 -0.1532 -0.0314 -0.0924
   66RES   C25918589   1.959   7.377   5.354  0.4118  0.1276  0.0932
   66RES   H26018590   2.323   7.504   5.398  0.7909  0.4235  0.2714
   66RES   H26118591   2.316   7.592   5.546 -0.3775 -4.2896 -0.4652
   66RES   H26218592   2.193   7.686   5.292  1.0462 -1.5259 -0.8127
   66RES   H26318593   2.088   7.500   5.513  0.2245 -1.4094 -1.0233
   66RES   H26418594   1.983   7.628   5.430  1.3194  1.0094  2.0077
   66RES   H26518595   1.961   7.297   5.280 -2.1529  0.7963 -0.7470
   66RES   H26618596   1.861   7.424   5.353  1.1852  1.7423 -0.2282
   66RES   H26718597   1.973   7.333   5.453  0.9304 -2.0097 -0.8891
   66RES   O26818598   2.147   7.781   5.481 -0.4383  0.5754  0.1213
   66RES   C26918599   2.201   0.082   5.426  0.0853 -0.3443 -0.7149
   66RES   C27018600   2.155   0.205   5.507 -0.3817  0.2969  0.4380
   66RES   C27118601   2.209   0.338   5.445 -0.3637 -0.0183  0.9356
   66RES   O27218602   2.159   0.448   5.522 -0.0096  0.3584 -0.0822
   66RES   C27318603   2.208   0.574   5.492  0.2250 -0.0128 -0.6081
   66RES   H27418604   2.190   0.098   5.319  0.5363  0.5499 -0.6347
   66RES   H27518605   2.309   0.081   5.446 -0.1778  1.8586  1.0099
   66RES   H27618606   2.048   0.216   5.493 -0.2093  0.3835 -0.8854
   66RES   H27718607   2.188   0.351   5.339  0.2457 -2.0115  0.5467
   66RES   H27818608   2.318   0.342   5.448 -0.3310  1.7457 -1.3407
   66RES   H27918609   2.179   0.611   5.394  1.5860 -0.6279 -1.2599
   66RES   H28018610   2.316   0.566   5.506  0.0195 -2.3434 -0.0528
   66RES   H28118611   2.172   0.649   5.561 -0.7608 -1.7177  0.7685
   66RES   H28218612   2.175   0.201   5.614  2.7604  1.4884 -0.0437
   67RES     O118613   4.466   6.692   7.768  0.5590 -0.3295 -0.3587
   67RES     C218614   4.474   6.706   7.628  0.6616  0.2723 -0.1511
   67RES     C318615   4.626   6.737   7.602 -0.5985 -0.4335 -0.8118
   67RES     C418616   4.649   6.758   7.451 -0.1106  0.2332  0.5321
   67RES     O518617   4.781   6.742   7.416  0.2102  0.5395 -0.1720
   67RES     C618618   4.800   6.728   7.277  0.0289  0.5410 -0.5633
   67RES     H718619   4.444   6.614   7.577 -0.8075  0.8624 -0.3954
   67RES     H818620   4.412   6.788   7.591  0.7565 -0.3515 -1.7408
   67RES     H918621   4.687   6.661   7.650  1.4210  0.3687 -2.0707
   67RES    H1018622   4.595   6.847   7.419 -0.8030 -0.3711 -0.0112
   67RES    H1118623   4.595   6.681   7.396  0.2508  0.1890  0.2407
   67RES    H1218624   4.894   6.773   7.247  2.1160 -1.9610  1.9853
   67RES    H1318625   4.814   6.622   7.259  0.1636  0.4369  0.1364
   67RES    H1418626   4.723   6.762   7.207 -0.2365  2.0170  0.4080
   67RES    H1518627   4.538   6.749   7.791  0.1465  0.6749 -1.5177
   67RES    O1618628   4.631   6.864   7.677  0.1117  0.0563 -0.2777
   67RES    C1718629   4.768   6.898   7.705  0.1439  0.0248 -0.0981
   67RES    C1818630   4.767   7.016   7.808  0.3477 -0.3258  0.0683
   67RES    C1918631   4.645   7.103   7.804 -0.7059  0.3067 -0.3489
   67RES    O2018632   4.669   7.233   0.039  0.5348  0.1721  0.1140
   67RES    C2118633   4.554   7.317   0.008 -0.6887  0.1065  0.8715
   67RES    H2218634   4.824   6.926   7.616  2.0166 -3.2719 -0.0368
   67RES    H2318635   4.822   6.808   7.733 -0.4507 -0.7181 -1.3015
   67RES    H2418636   4.857   7.072   7.781  0.7832 -0.9173  0.2962
   67RES    H2518637   4.599   7.108   7.705 -2.4599 -0.5531  0.3900
   67RES    H2618638   4.570   7.049   0.046 -1.1329 -0.0546 -1.2125
   67RES    H2718639   4.577   7.415   0.049  0.3658  0.8785 -1.4845
   67RES    H2818640   4.464   7.285   0.061 -1.4531 -0.8586 -0.9532
   67RES    H2918641   4.536   7.327   7.718  0.5265 -0.1140  0.6432
   67RES    O3018642   4.793   6.935   0.106  0.4460 -0.2201  0.5635
   67RES    C3118643   4.832   7.011   0.220  0.1896 -0.4719 -0.2206
   67RES    C3218644   4.894   6.929   0.338  0.1733 -0.2656  0.1556
   67RES    C3318645   4.903   7.019   0.465 -0.9085  0.3434  0.7809
   67RES    O3418646   4.785   7.029   0.543 -0.3460 -0.5318  0.1658
   67RES    C3518647   4.799   7.124   0.642 -0.4945 -0.2792  0.3256
   67RES    H3618648   4.907   7.085   0.190 -1.4791  1.1868 -0.4335
   67RES    H3718649   4.742   7.066   0.249 -0.8789 -1.8114 -0.9463
   67RES    H3818650   4.826   6.846   0.357  2.7883 -1.9403  2.5587
   67RES    H3918651   4.943   7.114   0.431  1.6716  0.0446  2.8408
   67RES    H4018652   4.968   6.977   0.541 -1.5626  1.4006  1.9444
   67RES    H4118653   4.887   7.110   0.704 -1.0197 -1.9922  0.7068
   67RES    H4218654   4.716   7.111   0.712 -0.3459  1.1885  0.7937
   67RES    H4318655   4.805   7.231   0.620 -1.4415 -0.1704  0.5711
   67RES    O4418656   5.025   6.894   0.301 -0.2906 -0.1592  0.3402
   67RES    C4518657   5.037   6.799   0.197 -0.3952  0.4750  0.4515
   67RES    C4618658   5.188   6.767   0.170 -0.0976  0.1896  0.0897
   67RES    C4718659   5.203   6.633   0.093  0.2727 -1.0502  0.1671
   67RES    O4818660   5.341   6.605   0.091  0.0539 -0.3296 -0.1739
   67RES    C4918661   5.374   6.478   0.043 -0.5792  0.1404 -0.1536
   67RES    H5018662   4.990   6.832   0.104  1.7380  1.8473 -0.1881
   67RES    H5118663   4.994   6.709   0.241  0.0414  0.3142  0.5570
   67RES    H5218664   5.248   6.766   0.261  0.9603 -0.4333 -0.5990
   67RES    H5318665   5.149   6.552   0.142 -0.5057 -0.2326  0.6750
   67RES    H5418666   5.163   6.659   7.812  1.0112 -0.9287 -0.1041
   67RES    H5518667   5.478   6.471   0.012 -0.9348  2.6028 -2.0822
   67RES    H5618668   5.322   6.471   7.765  0.6066 -0.3476 -0.7816
   67RES    H5718669   5.325   6.400   0.101  3.2664 -1.4991  1.0436
   67RES    O5818670   5.253   6.863   0.085  0.2377 -0.4471 -0.3262
   67RES    C5918671   5.261   6.997   0.137  0.4109  0.1485 -0.6461
   67RES    C6018672   5.362   7.085   0.060 -0.4975 -0.1348  0.1891
   67RES    C6118673   5.391   7.222   0.129 -0.0834 -0.0884  0.0683
   67RES    O6218674   5.263   7.277   0.168  0.2732 -0.2790  0.1487
   67RES    C6318675   5.284   7.415   0.200  0.1688 -0.2521  0.4456
   67RES    H6418676   5.298   6.996   0.239 -1.6089 -1.0940  0.1100
   67RES    H6518677   5.160   7.037   0.148  0.6575  0.1617  1.6427
   67RES    H6618678   5.461   7.038   0.054 -1.6312 -2.5858  0.1849
   67RES    H6718679   5.457   7.221   0.215 -1.0006 -2.6029  0.7672
   67RES    H6818680   5.437   7.289   0.055 -2.5133  1.0662 -0.4690
   67RES    H6918681   5.190   7.456   0.237  1.6264  1.7756  1.9517
   67RES    H7018682   5.328   7.467   0.115  0.6582  1.2252  1.5955
   67RES    H7118683   5.360   7.426   0.277  0.2641 -2.5993  0.7255
   67RES    O7218684   5.311   7.104   7.748 -0.3558  0.0991 -0.2005
   67RES    C7318685   5.363   7.028   7.640  0.0809  0.7543 -0.2259
   67RES    C7418686   5.288   7.061   7.515  0.4856 -0.7200 -0.2547
   67RES    C7518687   5.148   7.001   7.517 -0.7582  0.5943 -0.0491
   67RES    O7618688   5.066   7.077   7.427  0.3089  0.5332  1.0324
   67RES    C7718689   5.083   7.049   7.289 -0.0989 -0.9718 -0.1934
   67RES    H7818690   5.463   7.069   7.623 -0.0356  0.7940 -0.8205
   67RES    H7918691   5.362   6.923   7.670 -1.0698  1.0070  0.6638
   67RES    H8018692   5.281   7.169   7.508  2.3250 -0.5884 -0.1217
   67RES    H8118693   5.097   6.995   7.613 -1.7081 -3.7153 -0.7318
   67RES    H8218694   5.145   6.897   7.484  1.2602 -0.6855  3.6051
   67RES    H8318695   5.064   6.945   7.264 -0.5504 -1.0302  0.3982
   67RES    H8418696   5.185   7.081   7.268 -0.3353  1.1255  1.6670
   67RES    H8518697   5.011   7.105   7.230 -0.8114 -1.4233  0.2438
   67RES    O8618698   5.363   7.015   7.399  0.1101  0.0648 -0.5570
   67RES    C8718699   5.474   7.087   7.359  0.2787 -0.2731 -0.2766
   67RES    C8818700   5.513   7.052   7.218  0.1359  0.3459 -0.5933
   67RES    C8918701   5.501   6.905   7.187  0.3280  0.2116 -0.0871
   67RES    O9018702   5.555   6.877   7.061  0.4252 -0.1952  0.1264
   67RES    C9118703   5.566   6.744   7.025  0.0929  0.5546  0.2089
   67RES    H9218704   5.456   7.194   7.373  1.9651  0.1167 -1.0434
   67RES    H9318705   5.554   7.055   7.426  0.3764  1.5291  0.4997
   67RES    H9418706   5.620   7.072   7.222  0.3656 -1.2566  2.4732
   67RES    H9518707   5.555   6.847   7.261 -0.9804 -0.3551  0.4332
   67RES    H9618708   5.398   6.871   7.187 -0.0922  1.3729  2.1937
   67RES    H9718709   5.571   6.736   6.916 -1.0063 -0.1728  0.2104
   67RES    H9818710   5.636   6.682   7.082  0.9412  2.1457  0.9315
   67RES    H9918711   5.472   6.704   7.062 -1.8427  3.9186 -0.9682
   67RES   O10018712   5.430   7.112   7.120  0.8217  0.2918 -0.0968
   67RES   C10118713   5.454   7.248   7.095 -0.1457  0.0232  0.1571
   67RES   C10218714   5.350   7.302   6.997 -0.7119 -0.1639  0.0793
   67RES   C10318715   5.383   7.453   6.965  0.1708  0.3652  0.3964
   67RES   O10418716   5.322   7.499   6.851 -0.3805 -0.3702 -0.1191
   67RES   C10518717   5.376   7.625   6.803 -0.1567 -0.1864 -0.0155
   67RES   H10618718   5.557   7.255   7.061 -0.5726  0.1240 -1.1587
   67RES   H10718719   5.442   7.312   7.183 -2.1599  2.1936 -1.6125
   67RES   H10818720   5.344   7.240   6.908 -0.1037 -1.5685  1.0073
   67RES   H10918721   5.491   7.463   6.950  0.2128 -1.3598 -0.5515
   67RES   H11018722   5.350   7.511   7.051  0.5701 -0.8039  1.3604
   67RES   H11118723   5.299   7.686   6.756 -0.6631 -0.6464  0.2102
   67RES   H11218724   5.454   7.606   6.729 -0.0853 -0.4376  0.1265
   67RES   H11318725   5.423   7.694   6.873  3.0418  0.5689 -2.7865
   67RES   O11418726   5.233   7.293   7.064  0.0244  0.1906 -0.1727
   67RES   C11518727   5.111   7.321   6.998 -0.0871  0.0684  0.1417
   67RES   C11618728   5.048   7.460   7.043  0.3003 -0.8688 -0.1372
   67RES   C11718729   4.954   7.527   6.938  0.3226 -0.5030  0.3035
   67RES   O11818730   4.939   7.657   6.980 -0.1188 -0.0634 -0.5380
   67RES   C11918731   4.860   7.745   6.896  0.1582 -0.0990 -0.0386
   67RES   H12018732   5.133   7.334   6.892  0.2515 -0.2742  0.1708
   67RES   H12118733   5.038   7.241   7.002  2.5975 -2.5557 -1.6254
   67RES   H12218734   5.120   7.540   7.061  0.5782 -1.2793  0.5936
   67RES   H12318735   5.005   7.527   6.842 -1.7785 -0.6901 -0.8581
   67RES   H12418736   4.859   7.473   6.940 -0.5595  0.9438 -0.8839
   67RES   H12518737   4.899   7.757   6.795 -3.7516  1.7843 -1.4070
   67RES   H12618738   4.854   0.031   6.931  0.8547  0.2094 -0.8076
   67RES   H12718739   4.761   7.701   6.886 -0.3522  0.9870  0.1776
   67RES   O12818740   4.972   7.450   7.161  0.2427 -0.5952 -0.7997
   67RES   C12918741   5.021   7.409   7.287  0.0372  0.1432 -0.9625
   67RES   C13018742   5.120   7.517   7.335  0.2823 -0.3751 -0.8178
   67RES   C13118743   5.209   7.453   7.446  0.2479  0.1602 -0.9310
   67RES   O13218744   5.321   7.530   7.473 -0.1877  0.7677  0.0367
   67RES   C13318745   5.364   7.527   7.606  0.8815  0.4850 -0.4998
   67RES   H13418746   4.947   7.386   7.364 -0.5765  2.8685 -0.6916
   67RES   H13518747   5.074   7.317   7.264  1.4430 -0.0070  2.4571
   67RES   H13618748   5.194   7.552   7.263  1.8829 -0.6564  0.6579
   67RES   H13718749   5.256   7.364   7.405 -0.5234 -0.8491  0.3319
   67RES   H13818750   5.144   7.423   7.528 -0.2276  0.6781 -1.1166
   67RES   H13918751   5.443   7.600   7.624  0.9567  0.7646 -1.9402
   67RES   H14018752   5.275   7.529   7.670  1.6601 -1.2688  0.7017
   67RES   H14118753   5.405   7.427   7.616 -2.6220 -0.9507  0.3752
   67RES   O14218754   5.062   7.634   7.392  0.1733 -0.3574 -1.1212
   67RES   C14318755   5.026   7.726   7.287  0.4216 -0.3679 -0.3260
   67RES   C14418756   4.967   0.026   7.363 -0.0955 -0.0943 -0.3590
   67RES   C14518757   4.892   0.124   7.264  0.1816 -0.1194  0.2570
   67RES   O14618758   4.785   0.185   7.342 -0.2719  0.8085  0.1042
   67RES   C14718759   4.698   0.266   7.262  0.1288  0.0190  0.3078
   67RES   H14818760   5.106   7.772   7.229 -1.6474 -0.8694 -3.7577
   67RES   H14918761   4.942   7.698   7.223  0.2467  2.5379 -1.4642
   67RES   H15018762   4.890   7.809   7.432  1.1153  1.4846  1.8558
   67RES   H15118763   4.845   0.085   7.174  2.3597  2.3541 -2.0374
   67RES   H15218764   4.963   0.202   7.237  0.3274 -1.0609 -2.2480
   67RES   H15318765   4.636   0.325   7.329  2.5145 -0.2158  2.7987
   67RES   H15418766   4.629   0.202   7.207  0.9009 -0.4212 -0.1473
   67RES   H15518767   4.754   0.327   7.190 -0.6368  1.5114  0.9476
   67RES   O15618768   5.068   0.099   7.435 -0.4585  0.2210  0.0594
   67RES   C15718769   5.022   0.179   7.539  0.2248  0.0854  0.2192
   67RES   C15818770   5.133   0.257   7.601 -1.0689 -0.6223  0.4218
   67RES   C15918771   5.074   0.341   7.715  0.0510  0.3161 -0.2876
   67RES   O16018772   5.155   0.326   0.007  0.3632  0.0137 -0.0059
   67RES   C16118773   5.138   0.424   0.110  0.7011  0.2463 -0.0606
   67RES   H16218774   4.949   0.249   7.499  0.2909  0.3534  0.5673
   67RES   H16318775   4.958   0.117   7.602 -3.5701  0.4950 -3.0635
   67RES   H16418776   5.210   0.193   7.642 -2.1210 -2.9132 -1.1099
   67RES   H16518777   5.080   0.442   7.674  1.1762  0.3151 -0.1494
   67RES   H16618778   4.972   0.316   7.744  0.0827  3.2602  2.6858
   67RES   H16718779   5.205   0.419   0.196 -0.3288  1.1305  0.8103
   67RES   H16818780   5.034   0.423   0.142  0.0601  2.5145 -1.8962
   67RES   H16918781   5.138   0.527   0.073 -1.3731 -0.2942 -1.6502
   67RES   O17018782   5.196   0.336   7.505 -0.5369 -1.5841  0.5672
   67RES   C17118783   5.302   0.271   7.428 -0.2841  0.3229  0.7591
   67RES   C17218784   5.425   0.364   7.408 -0.3545 -0.0245  0.3091
   67RES   C17318785   5.530   0.306   7.313 -0.6021  0.5896 -0.5113
   67RES   O17418786   5.607   0.408   7.252 -0.5546 -0.0019 -0.1346
   67RES   C17518787   5.738   0.372   7.215  0.8476 -0.0330  0.7260
   67RES   H17618788   5.264   0.231   7.335  0.0320  0.4890  0.5589
   67RES   H17718789   5.344   0.179   7.467 -1.2810 -0.9287 -1.0724
   67RES   H17818790   5.379   0.456   7.373 -1.4368 -1.8501 -3.2084
   67RES   H17918791   5.596   0.231   7.357 -1.7007 -1.2399 -1.9085
   67RES   H18018792   5.476   0.259   7.231 -0.2321  0.7171 -0.8351
   67RES   H18118793   5.747   0.286   7.148 -1.0718  0.3608 -0.0732
   67RES   H18218794   5.792   0.351   7.307 -2.3671 -0.3821  2.6075
   67RES   H18318795   5.780   0.457   7.161 -1.1548  0.6995  0.2963
   67RES   O18418796   5.496   0.381   7.529 -0.4944 -0.0936 -0.2910
   67RES   C18518797   5.435   0.479   7.610 -0.2857  0.0130 -0.5230
   67RES   C18618798   5.522   0.513   7.727  0.0094 -0.2048  0.0566
   67RES   C18718799   5.439   0.540   0.034  0.0067 -0.1815 -0.7763
   67RES   O18818800   5.520   0.580   0.146  0.9161 -0.3711  0.0923
   67RES   C18918801   5.445   0.586   0.265 -0.1094 -0.2321 -0.1871
   67RES   H19018802   5.339   0.440   7.643 -0.7151  2.4369  1.2637
   67RES   H19118803   5.411   0.571   7.555 -2.0320  1.0584  1.8771
   67RES   H19218804   5.587   0.430   7.754  0.7184 -0.0815 -1.2199
   67RES   H19318805   5.385   0.449   0.059 -1.3477  1.0513  0.8896
   67RES   H19418806   5.358   0.608   0.010 -0.4588  0.2736  1.9256
   67RES   H19518807   5.500   0.620   0.353  0.1446 -0.2518 -0.3367
   67RES   H19618808   5.347   0.634   0.256  0.6351  1.0926 -1.5693
   67RES   H19718809   5.418   0.487   0.299 -1.1784  0.8049  2.0593
   67RES   O19818810   5.594   0.626   7.687  0.1768 -0.6104  0.2576
   67RES   C19918811   5.707   0.589   7.604 -0.1250 -0.0870  0.1340
   67RES   C20018812   5.801   0.708   7.597 -0.2569  0.1087  0.3603
   67RES   C20118813   5.897   0.694   7.475 -0.2749 -0.1139 -0.4014
   67RES   O20218814   5.989   0.801   7.486  0.1618 -0.1691 -0.2038
   67RES   C20318815   6.098   0.787   7.400 -0.3746  0.3814 -0.1657
   67RES   H20418816   5.669   0.543   7.513  1.2354  1.3061 -1.1590
   67RES   H20518817   5.756   0.506   7.655 -1.0117 -0.7018  0.0020
   67RES   H20618818   5.741   0.798   7.580  0.0453  0.4295  0.9689
   67RES   H20718819   5.956   0.603   7.481  0.0177  0.1095  0.0936
   67RES   H20818820   5.856   0.693   7.374  1.5690  0.5178 -1.1749
   67RES   H20918821   6.068   0.780   7.295  0.5792 -0.8776 -0.3541
   67RES   H21018822   6.164   0.705   7.426  2.3711  2.8632  0.9296
   67RES   H21118823   6.161   0.875   7.415 -0.7758  0.8480 -1.1823
   67RES   O21218824   5.881   0.711   7.711 -1.0532 -0.0605  0.3235
   67RES   C21318825   5.828   0.771   0.008 -0.9256 -0.1807  0.0433
   67RES   C21418826   5.937   0.851   0.087 -0.1938 -0.6117 -0.6207
   67RES   C21518827   5.882   0.879   0.222  0.3115 -0.9169 -0.3031
   67RES   O21618828   5.973   0.932   0.315 -0.1625 -0.3891 -0.3630
   67RES   C21718829   6.092   0.846   0.339  0.0086  0.2941  0.2319
   67RES   H21818830   5.777   0.691   0.062 -0.0315 -0.5462  0.3544
   67RES   H21918831   5.745   0.837   7.800 -0.0569  0.9005  0.0058
   67RES   H22018832   6.017   0.777   0.099 -0.8603 -1.3098 -0.4505
   67RES   H22118833   5.806   0.956   0.205  0.0954 -1.3145 -1.1308
   67RES   H22218834   5.825   0.793   0.257 -0.7175 -0.6715 -1.3435
   67RES   H22318835   6.172   0.867   0.268 -0.3271 -0.8198 -0.4821
   67RES   H22418836   6.060   0.743   0.326  1.0670  0.0617 -0.6145
   67RES   H22518837   6.134   0.858   0.439 -2.1004  3.7919  0.8117
   67RES   O22618838   5.979   0.972   0.021 -0.8362  0.1276 -0.1337
   67RES   C22718839   6.101   0.957   7.774  0.2699 -0.6399  1.1674
   67RES   C22818840   6.156   1.075   7.697 -0.4672 -0.4777 -0.6783
   67RES   C22918841   6.297   1.046   7.656 -0.5954  0.2663 -0.0603
   67RES   O23018842   6.378   1.156   7.625 -0.3502  0.1043 -1.0603
   67RES   C23118843   6.499   1.111   7.567  0.1204  0.1663 -0.4979
   67RES   H23218844   6.101   0.864   7.717 -2.4295 -1.5996  2.6335
   67RES   H23318845   6.175   0.943   0.036  0.9524 -0.1417  0.6292
   67RES   H23418846   6.168   1.161   7.763  0.3575 -0.4561 -0.8474
   67RES   H23518847   6.291   0.974   7.575  0.7519 -2.4333  2.1688
   67RES   H23618848   6.350   0.993   7.735  1.3609  0.5317 -1.1485
   67RES   H23718849   6.560   1.195   7.537 -1.4845  1.7732  0.5981
   67RES   H23818850   6.482   1.031   7.494  2.3792  0.5981 -1.5368
   67RES   H23918851   6.537   1.057   7.654 -1.6042 -1.4032 -0.6878
   67RES   O24018852   6.075   1.126   7.589 -0.0912  0.2352  0.4255
   67RES   C24118853   5.962   1.210   7.627  0.1780  0.4121  0.0999
   67RES   C24218854   5.838   1.168   7.549  0.2935 -0.0218  0.1124
   67RES   C24318855   5.712   1.221   7.622 -0.1900  1.1509  0.1110
   67RES   O24418856   5.595   1.160   7.575  0.1663 -0.0386 -0.0082
   67RES   C24518857   5.480   1.180   7.664  0.4644  0.0641 -0.2466
   67RES   H24618858   5.983   1.316   7.616  1.5131  0.1876  0.3673
   67RES   H24718859   5.943   1.198   7.734 -0.2086  0.3077  0.0174
   67RES   H24818860   5.833   1.059   7.545 -0.2629  0.0410 -1.2579
   67RES   H24918861   5.715   1.185   7.725  0.4755 -0.5107 -0.4587
   67RES   H25018862   5.709   1.329   7.611 -2.2119  1.1988  0.9711
   67RES   H25118863   5.391   1.142   7.613  1.5303 -0.9308 -1.4210
   67RES   H25218864   5.461   1.287   7.662  0.2124  0.0070 -1.0860
   67RES   H25318865   5.482   1.140   7.765  1.0261 -1.3319 -0.7894
   67RES   O25418866   5.856   1.229   7.424  0.3161  0.3150 -0.2997
   67RES   C25518867   5.778   1.183   7.322  0.1399  0.5959 -0.7321
   67RES   C25618868   5.820   1.264   7.198 -0.7429 -0.2193  0.0706
   67RES   C25718869   5.779   1.209   7.060  0.7176  0.1580  0.5396
   67RES   O25818870   5.822   1.276   6.943  0.4137  0.0382  0.3605
   67RES   C25918871   5.757   1.398   6.910 -0.1885  0.2130  0.1077
   67RES   H26018872   5.816   1.082   7.307 -2.1968 -0.5819  0.9593
   67RES   H26118873   5.676   1.183   7.360  1.3364 -1.7230  2.7953
   67RES   H26218874   5.928   1.281   7.200 -0.6368 -0.6628 -1.2924
   67RES   H26318875   5.831   1.113   7.058  0.5965  0.0800  1.1661
   67RES   H26418876   5.671   1.192   7.056  0.4577  2.0337 -0.9705
   67RES   H26518877   5.794   1.490   6.956 -0.9127  0.3771  0.3603
   67RES   H26618878   5.650   1.383   6.920 -0.5682  1.7830 -1.4354
   67RES   H26718879   5.790   1.412   6.807  1.3343 -0.4184  0.4880
   67RES   O26818880   5.753   1.393   7.198 -0.5499 -0.3113 -0.0275
   67RES   C26918881   5.836   1.491   7.255 -0.0875 -0.1609 -0.6087
   67RES   C27018882   5.757   1.625   7.250 -0.3787  0.0932 -0.1350
   67RES   C27118883   5.830   1.730   7.336 -0.1143  0.0846  0.0145
   67RES   O27218884   5.733   1.834   7.351 -0.5047 -0.0349 -0.1477
   67RES   C27318885   5.722   1.883   7.481 -0.4767 -0.2125  0.3752
   67RES   H27418886   5.932   1.490   7.204  0.8656 -0.0704  1.1398
   67RES   H27518887   5.860   1.479   7.361  0.6429 -1.6320 -0.9212
   67RES   H27618888   5.747   1.659   7.147 -2.6207 -1.8685 -0.6126
   67RES   H27718889   5.926   1.764   7.298  0.3089 -0.0980  0.9104
   67RES   H27818890   5.864   1.688   7.430 -1.6843  0.7758  0.9160
   67RES   H27918891   5.656   1.970   7.477 -1.6469 -1.1300 -0.8768
   67RES   H28018892   5.818   1.915   7.520 -0.7150 -1.3687  1.9467
   67RES   H28118893   5.695   1.815   7.562 -0.1653 -1.9321 -0.9310
   67RES   H28218894   5.656   1.619   7.291 -1.0205  1.9168 -1.3879
   68RES     O118895   0.905   1.904   0.178 -0.0320 -0.6860 -0.0458
   68RES     C218896   0.966   1.964   0.289  0.4201 -0.5040  0.0510
   68RES     C318897   0.867   2.079   0.335 -0.2657  0.3974 -0.0536
   68RES     C418898   0.894   2.115   0.491  0.3770  0.3473  0.6280
   68RES     O518899   0.780   2.181   0.541 -0.2839  0.1556  0.4035
   68RES     C618900   0.808   2.222   0.676 -0.0710  0.0664 -0.5198
   68RES     H718901   0.988   1.909   0.381 -0.3688  1.5031  1.4671
   68RES     H818902   1.060   2.001   0.248 -0.1774 -1.2320 -2.0171
   68RES     H918903   0.763   2.046   0.326  0.5414 -1.5809 -2.6436
   68RES    H1018904   0.969   2.193   0.502  2.4809 -1.9116  2.9957
   68RES    H1118905   0.925   2.030   0.552 -0.3424 -0.0665  0.4285
   68RES    H1218906   0.901   2.279   0.679 -1.1388  1.7874  0.7161
   68RES    H1318907   0.730   2.290   0.707 -2.3597 -1.1436 -3.3576
   68RES    H1418908   0.808   2.139   0.747  0.0350 -0.2687 -0.9062
   68RES    H1518909   0.867   1.966   0.117 -0.7896 -1.2681 -0.1713
   68RES    O1618910   0.895   2.187   0.246  0.1868  0.0959  0.3064
   68RES    C1718911   0.780   2.265   0.214  0.5158  0.0103 -0.0444
   68RES    C1818912   0.842   2.355   0.104  0.6147  0.9189 -0.4839
   68RES    C1918913   0.878   2.288   7.787 -0.1781 -0.7486  0.2772
   68RES    O2018914   0.965   2.372   7.718 -0.1429  0.0837  0.0831
   68RES    C2118915   0.970   2.359   7.576 -0.3614  0.2560 -0.3081
   68RES    H2218916   0.751   2.317   0.306  3.0764  1.0291  0.2311
   68RES    H2318917   0.698   2.204   0.178  0.8069 -0.9504  0.8967
   68RES    H2418918   0.923   2.416   0.143 -1.6081  2.7934  1.3673
   68RES    H2518919   0.931   2.196   7.813 -1.5221 -1.5945  0.0631
   68RES    H2618920   0.794   2.248   7.730 -0.3712 -0.3062  0.2493
   68RES    H2718921   1.025   2.275   7.532 -2.6239 -1.2365 -0.3571
   68RES    H2818922   1.018   2.449   7.539  2.6223 -0.3067  1.9507
   68RES    H2918923   0.868   2.346   7.541 -0.0679  0.4821 -1.2645
   68RES    O3018924   0.736   2.445   0.081  0.2118  0.0896  0.0815
   68RES    C3118925   0.753   2.550   7.806 -0.2764  0.1909  0.0658
   68RES    C3218926   0.643   2.654   7.811 -0.2552  0.5685  0.5207
   68RES    C3318927   0.653   2.746   7.690 -0.6284 -0.7270 -0.7889
   68RES    O3418928   0.541   2.830   7.690 -0.1744  0.1276  0.3030
   68RES    C3518929   0.558   2.946   7.618  0.3543 -0.1443 -0.0948
   68RES    H3618930   0.840   2.610   0.016 -0.5844  0.2921  0.8302
   68RES    H3718931   0.762   2.500   7.709  2.4481 -0.8538  0.8165
   68RES    H3818932   0.545   2.606   0.001  0.4180 -0.8992  0.1463
   68RES    H3918933   0.661   2.698   7.592  0.4456 -2.1410 -0.0255
   68RES    H4018934   0.749   2.797   7.700 -1.9509  1.1647  3.5465
   68RES    H4118935   0.550   2.940   7.509 -1.4367 -0.2231  0.0267
   68RES    H4218936   0.654   2.997   7.629 -1.8141  3.8664  1.1603
   68RES    H4318937   0.482   3.014   7.655  0.0975 -0.4061 -0.1348
   68RES    O4418938   0.670   2.743   0.109  0.2333  0.3595  0.0847
   68RES    C4518939   0.607   2.713   0.233 -0.4422  0.4489  0.7211
   68RES    C4618940   0.477   2.786   0.242  0.6180  0.5534 -0.1108
   68RES    C4718941   0.393   2.739   0.361  0.7146  0.1149  0.3392
   68RES    O4818942   0.352   2.604   0.333  0.3016  0.2209 -0.0228
   68RES    C4918943   0.239   2.594   0.251 -0.5631  0.4474  0.0369
   68RES    H5018944   0.671   2.750   0.313  0.2458 -0.6538  0.6894
   68RES    H5118945   0.594   2.606   0.250 -1.7040  0.8289  2.1808
   68RES    H5218946   0.413   2.777   0.154 -2.1136  1.1450  1.7197
   68RES    H5318947   0.461   2.735   0.446  1.4234 -0.6592 -0.2404
   68RES    H5418948   0.316   2.812   0.381 -0.5158 -0.7474 -1.1138
   68RES    H5518949   0.185   2.502   0.273 -0.4348 -0.2588 -2.4093
   68RES    H5618950   0.260   2.586   0.144  0.0716  0.5177  0.1530
   68RES    H5718951   0.170   2.678   0.258 -0.2397  0.8240 -1.1172
   68RES    O5818952   0.499   2.927   0.259  0.3418 -0.2573  0.0853
   68RES    C5918953   0.541   2.997   0.144 -0.6852 -0.5256 -0.0854
   68RES    C6018954   0.516   3.153   0.162 -0.0377 -0.1013  0.0730
   68RES    C6118955   0.363   3.190   0.152  0.1796 -0.0662  0.0725
   68RES    O6218956   0.329   3.274   0.257 -0.3769  0.1049  0.4429
   68RES    C6318957   0.194   3.314   0.265  0.2535 -0.3424  0.3691
   68RES    H6418958   0.492   2.955   0.056 -0.0189 -0.5419 -0.4499
   68RES    H6518959   0.647   2.993   0.121 -0.4834  1.2098  0.4657
   68RES    H6618960   0.565   3.181   0.255 -0.6773 -2.5941  1.2122
   68RES    H6718961   0.329   3.222   0.054  2.2445 -0.5164 -0.8139
   68RES    H6818962   0.314   3.093   0.162 -0.0868  0.0711  0.0942
   68RES    H6918963   0.137   3.227   0.296  0.0469 -0.9555 -1.6405
   68RES    H7018964   0.155   3.361   0.175  0.5757 -1.6737 -0.4890
   68RES    H7118965   0.179   3.378   0.352 -2.1735  0.1393 -0.3736
   68RES    O7218966   0.578   3.209   0.049 -0.3795  0.2938  0.8852
   68RES    C7318967   0.707   3.261   0.084 -0.1307 -0.1619  0.5114
   68RES    C7418968   0.768   3.313   7.764  0.4309  0.8240 -0.3489
   68RES    C7518969   0.900   3.371   7.812  0.4390  0.2044  0.0198
   68RES    O7618970   0.991   3.364   7.701 -0.5837  0.4318  0.3637
   68RES    C7718971   1.114   3.432   7.728  0.1329 -0.9055 -0.8091
   68RES    H7818972   0.705   3.336   0.163  0.1052  0.2660  0.1090
   68RES    H7918973   0.777   3.182   0.112  0.5723 -0.0602 -0.8901
   68RES    H8018974   0.782   3.234   7.690  0.0195  0.0889  0.3567
   68RES    H8118975   0.941   3.311   0.076 -0.0940  0.0570  0.1784
   68RES    H8218976   0.882   3.471   0.035 -0.4123 -0.0114  0.1708
   68RES    H8318977   1.177   3.367   7.789  2.7991  1.4230 -0.9782
   68RES    H8418978   1.098   3.532   7.768  2.8819 -1.6736  2.4646
   68RES    H8518979   1.169   3.459   7.637  0.6281 -0.8569 -0.4997
   68RES    O8618980   0.684   3.418   7.715  0.1048 -0.3553  0.3644
   68RES    C8718981   0.586   3.372   7.617 -0.8480 -0.0708 -0.0184
   68RES    C8818982   0.468   3.468   7.611 -0.1014  0.0458 -0.1233
   68RES    C8918983   0.386   3.467   7.479 -0.7199 -0.1247 -0.6394
   68RES    O9018984   0.337   3.600   7.454 -0.5579  0.2995  0.3394
   68RES    C9118985   0.262   3.591   7.330  0.4840  0.3579 -0.2818
   68RES    H9218986   0.635   3.361   7.520  1.4804 -0.5648  1.1900
   68RES    H9318987   0.550   3.270   7.632  2.4895 -1.4427 -0.8323
   68RES    H9418988   0.509   3.569   7.605  1.1161 -0.5954 -3.4632
   68RES    H9518989   0.456   3.446   7.398 -0.0458  0.7265 -0.2878
   68RES    H9618990   0.318   3.382   7.479  1.6853 -2.1439  1.3427
   68RES    H9718991   0.228   3.694   7.320  2.6697  1.1207 -0.1557
   68RES    H9818992   0.334   3.575   7.250  0.9992 -1.5746  0.5326
   68RES    H9918993   0.179   3.520   7.335 -0.8797  1.8327 -1.8213
   68RES   O10018994   0.371   3.452   7.711 -0.0248 -0.0971  0.4284
   68RES   C10118995   0.403   3.528   0.009 -0.0256  0.4997  0.4367
   68RES   C10218996   0.318   3.648   0.004 -0.2539 -0.2519  0.0662
   68RES   C10318997   0.386   3.776   0.054  0.7347  0.0628 -0.3671
   68RES   O10418998   0.354   3.881   7.774 -0.4752 -0.0772 -0.1747
   68RES   C10518999   0.437   3.886   7.659  0.2856 -0.7700 -0.4983
   68RES   H10619000   0.512   3.536   0.011  0.0682 -0.4560 -0.5755
   68RES   H10719001   0.386   3.464   0.096  0.4345 -0.4008 -0.1219
   68RES   H10819002   0.299   3.666   7.715 -0.2270 -0.1011  0.0879
   68RES   H10919003   0.494   3.775   0.063  0.7544  1.7105 -0.1096
   68RES   H11019004   0.359   3.806   0.156  1.8489  0.3321 -0.1410
   68RES   H11119005   0.378   3.922   7.575 -0.3948  1.7576  0.9876
   68RES   H11219006   0.481   3.793   7.624 -0.0474 -0.4655 -1.7510
   68RES   H11319007   0.520   3.952   7.683 -1.3284  0.4728  1.9090
   68RES   O11419008   0.200   3.623   0.076  0.0241 -0.1799 -0.7344
   68RES   C11519009   0.082   3.700   0.039  0.1157 -0.7966  0.6144
   68RES   C11619010   7.778   3.693   0.142 -0.4062 -0.3079  0.4564
   68RES   C11719011   7.803   3.783   0.270 -0.6965 -0.3785 -0.2781
   68RES   O11819012   7.817   3.917   0.241 -0.3151  0.4597 -0.3299
   68RES   C11919013   0.094   3.985   0.333  0.3194  0.5873 -0.1406
   68RES   H12019014   0.115   3.799   0.008 -0.8368 -1.0492 -1.2712
   68RES   H12119015   0.045   3.667   7.759  0.7470 -0.3116  0.2106
   68RES   H12219016   7.769   3.590   0.176 -2.2727  0.9938  4.1916
   68RES   H12319017   7.726   3.766   0.346  0.6191  1.7275  1.5892
   68RES   H12419018   0.075   3.749   0.322 -1.3575  0.8629  1.7732
   68RES   H12519019   0.194   3.949   0.308  0.8617  2.5388 -0.8911
   68RES   H12619020   0.076   3.979   0.440 -2.4449  0.9265 -0.5549
   68RES   H12719021   0.086   4.088   0.297 -0.8000  0.5294 -0.0692
   68RES   O12819022   7.654   3.724   0.073 -0.1545 -0.5994 -0.0525
   68RES   C12919023   7.546   3.684   0.154 -0.7791 -0.1828  0.5712
   68RES   C13019024   7.408   3.685   0.078 -0.1851 -0.8246  0.4317
   68RES   C13119025   7.290   3.695   0.175  0.1065  0.0398 -0.1899
   68RES   O13219026   7.290   3.577   0.256 -0.3801  0.1775 -0.0085
   68RES   C13319027   7.175   3.571   0.338  0.2615  0.1930  0.6142
   68RES   H13419028   7.562   3.590   0.207 -0.7469 -0.0381  0.8180
   68RES   H13519029   7.535   3.756   0.235 -1.7923  0.8970 -0.5008
   68RES   H13619030   7.412   3.773   0.014 -0.8890  0.4816  2.1267
   68RES   H13719031   7.196   3.699   0.120  0.8111 -0.4365 -1.4396
   68RES   H13819032   7.290   3.784   0.239  0.5396  1.8637 -2.6333
   68RES   H13919033   7.087   3.563   0.274  0.6170  1.2274 -0.0145
   68RES   H14019034   7.178   3.494   0.416 -1.0711  1.0918  1.5725
   68RES   H14119035   7.179   3.669   0.386  0.4596 -0.5399  2.1256
   68RES   O14219036   7.391   3.568   7.813 -0.5172  0.2936  0.4093
   68RES   C14319037   7.478   3.551   7.699  0.2124  0.8001 -0.3398
   68RES   C14419038   7.582   3.441   7.702  0.0208  0.4879  0.2498
   68RES   C14519039   7.654   3.433   7.565  0.0232 -0.0121  0.0716
   68RES   O14619040   7.760   3.335   7.563 -0.1454  0.0557  0.0251
   68RES   C14719041   0.059   3.374   7.638 -0.7680 -0.5027 -0.0248
   68RES   H14819042   7.413   3.530   7.614 -0.3714  2.6763 -0.3836
   68RES   H14919043   7.522   3.650   7.687  0.2793  0.5440 -2.3764
   68RES   H15019044   7.659   3.456   7.778 -1.0161  1.7916  1.0723
   68RES   H15119045   7.698   3.531   7.545  1.2890 -0.7946 -1.0723
   68RES   H15219046   7.578   3.413   7.490 -0.2514 -0.3269  0.4322
   68RES   H15319047   0.136   3.299   7.619  0.0394 -0.1687  1.7911
   68RES   H15419048   0.036   3.359   7.743  2.4120 -0.7717  0.6959
   68RES   H15519049   0.110   3.467   7.613 -0.5574  0.4073  3.5373
   68RES   O15619050   7.512   3.323   7.723  0.6790 -0.1295  0.6182
   68RES   C15719051   7.494   3.288   0.047  0.8602  0.3174  0.3046
   68RES   C15819052   7.505   3.137   0.064  0.0048  0.2230  0.3458
   68RES   C15919053   7.441   3.099   0.201 -0.5315  0.1519 -0.5936
   68RES   O16019054   7.513   3.158   0.315  0.6565  0.1889 -0.8302
   68RES   C16119055   7.454   3.130   0.442  0.1661 -0.1171 -0.2001
   68RES   H16219056   7.571   3.337   0.108  1.1822  2.1018 -1.4791
   68RES   H16319057   7.391   3.310   0.076  0.9382 -1.4953  2.0400
   68RES   H16419058   7.440   3.087   7.808  2.6913 -0.2994 -1.7570
   68RES   H16519059   7.335   3.125   0.205 -0.1699  1.6075 -0.3496
   68RES   H16619060   7.451   2.993   0.228 -2.1342  0.6383  2.1249
   68RES   H16719061   7.467   3.025   0.469  3.7451 -0.3954 -2.6548
   68RES   H16819062   7.355   3.170   0.460  0.2378  0.3851 -0.9180
   68RES   H16919063   7.511   3.184   0.518  0.2530 -0.7015  0.1569
   68RES   O17019064   7.637   3.094   0.063 -0.6143 -0.2713  0.3071
   68RES   C17119065   7.675   3.033   7.754  0.2668 -0.8620 -0.2637
   68RES   C17219066   7.797   2.938   7.758  0.3117  0.5930 -0.2356
   68RES   C17319067   0.018   2.901   7.618  0.2228 -0.3210 -0.2125
   68RES   O17419068   0.158   2.859   7.608  0.4407 -0.2919  0.4266
   68RES   C17519069   0.183   2.723   7.646 -0.3903 -0.1953 -0.4378
   68RES   H17619070   7.687   3.114   7.682  0.2908  0.9328  1.7151
   68RES   H17719071   7.591   2.972   7.723  0.2557  0.4540 -2.9624
   68RES   H17819072   0.054   2.984   0.007 -0.1125  0.3940  0.3876
   68RES   H17919073   7.777   2.816   7.584 -0.6605 -0.5816  1.8727
   68RES   H18019074   0.004   2.989   7.554 -0.7506 -1.1447 -1.1592
   68RES   H18119075   0.152   2.718   7.751 -0.7280 -2.8506 -0.6241
   68RES   H18219076   0.289   2.698   7.648  0.5626  3.4651 -1.3540
   68RES   H18319077   0.122   2.653   7.588  0.6244 -0.7866 -0.8040
   68RES   O18419078   7.743   2.824   0.003  0.3573  0.7435  0.5057
   68RES   C18519079   7.754   2.813   0.149  0.0293  0.1828 -1.0504
   68RES   C18619080   7.678   2.686   0.201 -0.4260 -0.3267  0.3321
   68RES   C18719081   7.691   2.693   0.353 -0.7723 -0.0421  0.3240
   68RES   O18819082   7.624   2.583   0.410 -0.1883 -0.1223  0.6617
   68RES   C18919083   7.589   2.611   0.545 -0.2161  0.2120 -0.1530
   68RES   H19019084   7.722   2.903   0.201 -3.1447 -1.2965 -0.3299
   68RES   H19119085   0.044   2.798   0.163 -0.3030 -2.1432 -0.7893
   68RES   H19219086   7.570   2.692   0.185 -0.4947 -0.8873  0.5418
   68RES   H19319087   7.653   2.790   0.386  1.0126  0.6501  0.4019
   68RES   H19419088   7.795   2.696   0.385 -0.0926  0.0280 -1.8576
   68RES   H19519089   7.553   2.518   0.589 -0.3822  0.0401 -0.6435
   68RES   H19619090   7.670   2.643   0.611 -1.7733  1.3343  1.2564
   68RES   H19719091   7.506   2.682   0.546 -0.7299 -0.3919  0.6420
   68RES   O19819092   7.736   2.564   0.163 -0.2334  0.2009  0.4277
   68RES   C19919093   7.663   2.513   0.054 -0.8394  0.0371 -0.2449
   68RES   C20019094   7.755   2.400   0.004  0.1349  0.7646  0.1556
   68RES   C20119095   7.710   2.377   7.674 -0.4128 -0.1914  0.2595
   68RES   O20219096   7.762   2.485   7.594  0.4848 -0.4572 -0.0622
   68RES   C20319097   7.784   2.446   7.459  0.0622  0.1528  0.1008
   68RES   H20419098   7.648   2.596   7.802  1.9037  1.5000  0.8516
   68RES   H20519099   7.566   2.486   0.095 -1.1999  0.6987 -0.6561
   68RES   H20619100   0.042   2.430   0.001  1.2858 -3.0325 -0.1757
   68RES   H20719101   7.745   2.277   7.646  0.5455  0.4008 -0.6616
   68RES   H20819102   7.603   2.370   7.658 -0.0694  0.6701 -2.6095
   68RES   H20919103   7.691   2.425   7.405  0.6552  1.0085 -1.2750
   68RES   H21019104   0.042   2.368   7.448 -1.7761 -1.8160  0.9312
   68RES   H21119105   7.816   2.536   7.406 -2.4338  1.2032  0.2784
   68RES   O21219106   7.726   2.284   0.072  0.2172  0.5567 -0.3831
   68RES   C21319107   7.780   2.272   0.206  0.3062 -0.4457  0.1763
   68RES   C21419108   7.740   2.134   0.279 -0.3659 -0.1432  0.1141
   68RES   C21519109   7.737   2.009   0.191  0.1097  0.6108  0.3916
   68RES   O21619110   0.032   1.930   0.204  0.3738  0.2589 -0.2064
   68RES   C21719111   0.010   1.802   0.159  0.1386  0.1202  0.1384
   68RES   H21819112   7.737   2.343   0.276 -0.6373  0.7261 -1.5629
   68RES   H21919113   0.069   2.297   0.213  0.1050  0.2962  0.6051
   68RES   H22019114   7.810   2.121   0.361  0.5679  0.7542 -0.5256
   68RES   H22119115   7.657   1.943   0.224  0.0630 -0.0860 -1.0930
   68RES   H22219116   7.715   2.039   0.089 -4.4132 -1.0463  0.7964
   68RES   H22319117   7.811   1.784   0.053 -2.3512  0.2354  0.4848
   68RES   H22419118   7.746   1.760   0.218  0.4363  1.5712  1.6100
   68RES   H22519119   0.101   1.745   0.180  1.6594  3.7468  4.1524
   68RES   O22619120   7.615   2.155   0.340  0.5486  0.1169  0.1802
   68RES   C22719121   7.501   2.194   0.264  0.1275 -0.5312  0.3996
   68RES   C22819122   7.370   2.169   0.350  0.0798  0.3341  1.0206
   68RES   C22919123   7.271   2.282   0.353  0.0200  0.0281  0.4240
   68RES   O23019124   7.168   2.256   0.450  0.2394 -0.1120 -0.0204
   68RES   C23119125   7.080   2.366   0.470 -0.0387  0.0655  0.3051
   68RES   H23219126   7.486   2.143   0.169  1.0602 -0.1863  0.0597
   68RES   H23319127   7.508   2.302   0.249 -1.6943 -0.4322  0.1844
   68RES   H23419128   7.394   2.142   0.453 -0.0285  0.3394  1.0468
   68RES   H23519129   7.226   2.282   0.254  1.2684  2.1941 -0.1712
   68RES   H23619130   7.311   2.383   0.361 -1.6100  0.8482 -1.3506
   68RES   H23719131   7.144   2.446   0.508  0.0128  0.8198 -1.3109
   68RES   H23819132   6.989   2.346   0.527  0.6218 -1.3255  0.8953
   68RES   H23919133   7.045   2.399   0.372  0.0467  1.3461  0.6967
   68RES   O24019134   7.309   2.056   0.289 -0.1634  0.5992 -0.0670
   68RES   C24119135   7.241   1.967   0.380  0.1447  0.7857 -0.0471
   68RES   C24219136   7.173   1.868   0.294 -0.0536  0.1232  0.1099
   68RES   C24319137   7.145   1.735   0.363  0.2652  0.2736  0.5596
   68RES   O24419138   7.075   1.756   0.485 -0.6289  0.3258  1.2293
   68RES   C24519139   7.064   1.635   0.555  0.2399  0.3855  0.2312
   68RES   H24619140   7.170   2.023   0.441  0.9744  3.1106 -1.1512
   68RES   H24719141   7.307   1.921   0.453 -2.4495 -2.9257  0.1107
   68RES   H24819142   7.240   1.842   0.212 -0.5671  1.5342 -0.7671
   68RES   H24919143   7.082   1.674   0.298 -1.2187 -0.8958  3.0387
   68RES   H25019144   7.239   1.684   0.387  0.7828  1.2739  0.6713
   68RES   H25119145   6.994   1.630   0.638  0.3525  0.1174  0.3111
   68RES   H25219146   7.164   1.601   0.583  1.0194  2.5934  0.2255
   68RES   H25319147   7.023   1.554   0.494 -1.2369  1.0140  0.3675
   68RES   O25419148   7.059   1.915   0.233  0.3768  0.2691 -0.0611
   68RES   C25519149   7.072   2.015   0.133 -0.3551  0.1886  0.1266
   68RES   C25619150   6.936   2.015   0.064 -0.0937  0.6405  0.1146
   68RES   C25719151   6.920   2.151   7.803 -0.6291  0.7156 -0.5174
   68RES   O25819152   6.786   2.181   7.770  0.1127 -0.3147  0.2260
   68RES   C25919153   6.773   2.297   7.684 -0.8518  0.1891 -0.7100
   68RES   H26019154   7.099   2.108   0.183 -0.6529  0.8565 -0.9470
   68RES   H26119155   7.161   1.987   0.075  0.5053 -1.7878  2.2965
   68RES   H26219156   6.849   2.017   0.130 -0.1429  0.7328  0.0469
   68RES   H26319157   6.971   2.229   0.042 -1.0178  0.3761  0.3363
   68RES   H26419158   6.970   2.125   7.710 -1.1150  0.5576 -0.7363
   68RES   H26519159   6.787   2.384   7.748  2.0273 -0.2055 -0.7191
   68RES   H26619160   6.675   2.314   7.641 -1.9002  0.6477  1.7856
   68RES   H26719161   6.840   2.291   7.598  0.4002 -0.4432  0.2859
   68RES   O26819162   6.927   1.910   7.779 -0.2729  0.2570 -0.4822
   68RES   C26919163   6.796   1.859   7.759 -0.2546 -0.2575 -0.3721
   68RES   C27019164   6.791   1.712   7.709  0.5356  0.4307 -0.1854
   68RES   C27119165   6.647   1.656   7.721 -1.1264  0.2085  0.2693
   68RES   O27219166   6.634   1.536   7.650 -0.0461  0.7465  0.5503
   68RES   C27319167   6.521   1.475   7.700  0.0927  0.6623  0.2410
   68RES   H27419168   6.739   1.925   7.694  2.3362  0.6436 -1.8231
   68RES   H27519169   6.737   1.852   0.033  1.8830  0.7560  1.1375
   68RES   H27619170   6.805   1.711   7.601  0.1027 -0.3018 -0.2367
   68RES   H27719171   6.575   1.732   7.692 -0.2457  1.2985  0.9017
   68RES   H27819172   6.631   1.640   0.011 -0.4791  0.2988  0.3818
   68RES   H27919173   6.432   1.539   7.703 -0.0860  0.3792  0.9993
   68RES   H28019174   6.540   1.445   7.803 -1.4117  1.5026  0.7787
   68RES   H28119175   6.501   1.373   7.668 -0.0102  0.3359  1.3359
   68RES   H28219176   6.858   1.652   7.770  1.9712  0.1017 -2.0459
   69RES     O119177   7.558   0.660   6.401 -0.2834 -0.2530 -0.1601
   69RES     C219178   7.465   0.558   6.422 -0.6436  0.0804  0.7930
   69RES     C319179   7.388   0.569   6.558 -0.2104 -0.5397  0.1489
   69RES     C419180   7.270   0.476   6.564 -0.4152 -0.2442 -0.4747
   69RES     O519181   7.184   0.516   6.677 -0.3186 -0.3570 -0.1928
   69RES     C619182   7.062   0.441   6.710  0.3919  0.8017 -0.2776
   69RES     H719183   7.396   0.576   6.339  2.1476  0.2906 -1.5457
   69RES     H819184   7.508   0.462   6.393  0.9470  0.9051  0.4044
   69RES     H919185   7.348   0.670   6.564 -1.3272 -0.7923 -2.2419
   69RES    H1019186   7.300   0.372   6.574  1.0927  0.2419  0.1760
   69RES    H1119187   7.213   0.480   6.471 -1.1273  0.8742 -0.0062
   69RES    H1219188   7.082   0.343   6.667 -1.6697  0.8172 -1.3395
   69RES    H1319189   7.046   0.437   6.818 -1.2720 -2.7451 -0.5772
   69RES    H1419190   6.975   0.483   6.659  0.3110  1.7011  0.5833
   69RES    H1519191   7.615   0.667   6.476  2.0071  3.2085 -2.0907
   69RES    O1619192   7.478   0.537   6.668  0.1554  0.2240 -0.0415
   69RES    C1719193   7.523   0.651   6.734  0.6946  0.1178  0.2535
   69RES    C1819194   7.648   0.621   6.824 -0.2452 -0.4737  0.3905
   69RES    C1919195   7.785   0.633   6.753 -0.4484  0.0897 -0.0763
   69RES    O2019196   7.805   0.755   6.685 -0.2455  0.0261  0.1549
   69RES    C2119197   0.078   0.741   6.580  0.2246  0.1162  0.2453
   69RES    H2219198   7.441   0.692   6.792  0.6665 -0.6090  0.7349
   69RES    H2319199   7.540   0.741   6.674  0.5474  1.9094  2.8272
   69RES    H2419200   7.625   0.516   6.841  1.4326 -1.2814 -2.1275
   69RES    H2519201   0.047   0.631   6.828  0.1029 -0.8276 -0.6720
   69RES    H2619202   7.797   0.544   6.690  0.5393  0.8397 -0.9595
   69RES    H2719203   0.132   0.834   6.565 -0.6361  0.2468 -2.3387
   69RES    H2819204   0.036   0.704   6.486 -0.2120  3.0082 -0.7616
   69RES    H2919205   0.160   0.679   6.615  0.0061  0.6145  1.6847
   69RES    O3019206   7.635   0.706   6.944 -0.3521 -0.6393  0.0946
   69RES    C3119207   7.546   0.659   7.039  0.6901 -0.1413 -0.2472
   69RES    C3219208   7.534   0.772   7.131  0.0416  0.4197  0.0395
   69RES    C3319209   7.437   0.748   7.246  0.0912  0.0646 -0.7407
   69RES    O3419210   7.442   0.850   7.353  0.3996  0.0131 -0.1454
   69RES    C3519211   7.355   0.828   7.460 -0.1207 -0.9824 -0.3050
   69RES    H3619212   7.450   0.629   6.997  1.9848 -1.3291 -2.5271
   69RES    H3719213   7.586   0.567   7.081 -0.6083 -0.4507  0.3385
   69RES    H3819214   7.635   0.783   7.171  0.0802 -0.9555  0.3307
   69RES    H3919215   7.456   0.650   7.291 -1.2941 -0.2941 -0.9327
   69RES    H4019216   7.337   0.745   7.204  1.4999 -0.6867 -4.2946
   69RES    H4119217   7.251   0.854   7.438 -0.6719 -1.4937  1.5549
   69RES    H4219218   7.390   0.878   7.550  0.5233  1.8907 -2.1087
   69RES    H4319219   7.364   0.726   7.499  0.6744 -0.4058  1.0358
   69RES    O4419220   7.478   0.888   7.074 -0.2074 -0.6975 -0.9385
   69RES    C4519221   7.576   0.995   7.061 -0.5256  0.0995  0.0541
   69RES    C4619222   7.517   1.120   6.990 -0.2154  0.1494 -0.1293
   69RES    C4719223   7.368   1.149   7.027  0.4859  0.0886 -0.6259
   69RES    O4819224   7.304   1.206   6.912  0.2730  0.4298 -0.4997
   69RES    C4919225   7.162   1.204   6.925 -0.0529 -0.8369  0.9668
   69RES    H5019226   7.671   0.969   7.015 -0.4982 -0.1349  0.2487
   69RES    H5119227   7.598   1.017   7.165 -4.3716 -1.2624  1.2386
   69RES    H5219228   7.518   1.100   6.882 -0.8704  0.3755 -0.1791
   69RES    H5319229   7.312   1.063   7.061 -0.0296  0.0277 -1.6159
   69RES    H5419230   7.357   1.231   7.098 -0.1015 -0.4995 -0.0369
   69RES    H5519231   7.132   1.256   7.015 -0.2630  1.9874 -0.6958
   69RES    H5619232   7.115   1.107   6.910 -1.6622  0.1112 -0.2100
   69RES    H5719233   7.125   1.266   6.844  1.5744 -1.2321 -0.1080
   69RES    O5819234   7.599   1.230   7.029  0.1178  0.4060  0.3081
   69RES    C5919235   7.576   1.345   6.943  0.3575 -0.6304 -0.3922
   69RES    C6019236   7.704   1.436   6.933 -1.0286 -0.6761 -1.1793
   69RES    C6119237   7.688   1.541   6.823  0.4003 -0.0928  0.2341
   69RES    O6219238   7.807   1.616   6.794 -0.0560  0.7166  0.4168
   69RES    C6319239   7.770   1.745   6.746 -0.3366  0.2945  0.3135
   69RES    H6419240   7.495   1.404   6.984  2.0289  1.0593  0.5799
   69RES    H6519241   7.556   1.309   6.843  1.4878  0.8203 -1.1647
   69RES    H6619242   7.727   1.495   7.022 -1.7932  0.0438 -1.4434
   69RES    H6719243   7.655   1.497   6.729  1.0792 -1.2451  0.5306
   69RES    H6819244   7.613   1.615   6.850  0.0789 -0.7484  1.1298
   69RES    H6919245   7.704   1.806   6.808 -0.6129 -2.0640  2.4114
   69RES    H7019246   7.722   1.736   6.648  1.9489 -0.9740 -0.7404
   69RES    H7119247   0.040   1.810   6.735  0.1530 -0.4567 -0.2689
   69RES    O7219248   0.003   1.356   6.914  0.2418  0.2854  0.0890
   69RES    C7319249   0.072   1.315   7.030 -0.0464  0.1941 -0.8283
   69RES    C7419250   0.196   1.241   6.990 -0.0973 -1.0939 -0.4269
   69RES    C7519251   0.281   1.331   6.903 -0.6830  0.2872  0.3581
   69RES    O7619252   0.414   1.282   6.901  0.0120  0.7248 -0.2732
   69RES    C7719253   0.498   1.347   6.806 -0.3137  0.4048 -0.6169
   69RES    H7819254   0.104   1.403   7.086 -2.1526 -0.5497  1.6278
   69RES    H7919255   0.007   1.256   7.094 -2.3310  1.3446 -2.0327
   69RES    H8019256   0.247   1.211   7.082  2.3810 -0.9300 -1.7176
   69RES    H8119257   0.276   1.438   6.925 -1.5065  0.4709 -0.6885
   69RES    H8219258   0.253   1.324   6.798 -3.9648  1.1146  1.1296
   69RES    H8319259   0.449   1.350   6.709 -0.2015  1.4059 -0.6586
   69RES    H8419260   0.598   1.304   6.795 -1.3339 -2.6347  1.4041
   69RES    H8519261   0.518   1.447   6.846  0.2313  0.2481 -0.4959
   69RES    O8619262   0.149   1.122   6.925 -0.4391 -0.1628  0.1102
   69RES    C8719263   0.245   1.023   6.906 -0.6916  0.2313 -0.1220
   69RES    C8819264   0.198   0.891   6.975 -0.6895 -0.3046  0.1086
   69RES    C8919265   0.291   0.776   6.932 -0.5682 -0.0501  0.7408
   69RES    O9019266   0.237   0.660   6.989  0.1179 -0.3564 -0.0050
   69RES    C9119267   0.321   0.543   6.959  0.3490  0.1929 -0.3855
   69RES    H9219268   0.251   1.010   6.798  1.1373  0.1692 -0.0252
   69RES    H9319269   0.345   1.047   6.941  0.0977 -0.7071 -1.6561
   69RES    H9419270   0.099   0.864   6.939  1.1098 -3.7191 -2.6760
   69RES    H9519271   0.305   0.759   6.825 -1.3354  0.7048  0.5198
   69RES    H9619272   0.389   0.801   6.973 -0.1001 -1.2775  0.4047
   69RES    H9719273   0.304   0.464   7.032  1.0597  1.4591  1.1830
   69RES    H9819274   0.292   0.496   6.866 -0.9251 -2.6430  1.3749
   69RES    H9919275   0.426   0.573   6.971  0.0331  1.7176 -1.2268
   69RES   O10019276   0.211   0.903   7.112 -0.1258 -0.0071 -0.0725
   69RES   C10119277   0.088   0.941   7.170 -0.3199  0.2094 -0.0764
   69RES   C10219278   0.102   0.949   7.326 -0.4418 -0.0552 -0.1363
   69RES   C10319279   7.796   1.023   7.381 -0.3144  0.4894  0.7834
   69RES   O10419280   7.786   0.998   7.521  0.3129  0.1138  0.6034
   69RES   C10519281   7.653   1.006   7.570  0.8954  0.2666  0.1326
   69RES   H10619282   0.010   0.871   7.142 -0.1262 -1.0510  2.3799
   69RES   H10719283   0.072   1.042   7.132 -0.1553 -0.8787 -3.1524
   69RES   H10819284   0.123   0.853   7.372 -1.5813 -0.4700 -0.4784
   69RES   H10919285   7.711   0.967   7.342 -0.1565  1.4398 -1.0091
   69RES   H11019286   7.801   1.128   7.352 -0.3965  0.4172  0.5033
   69RES   H11119287   7.629   0.902   7.592  1.4736  0.1337  0.1285
   69RES   H11219288   7.586   1.054   7.499  0.3436  2.1503  1.8810
   69RES   H11319289   7.644   1.072   7.656 -1.3350  1.2957 -0.8484
   69RES   O11419290   0.214   1.037   7.345 -0.3992 -0.1490  0.3616
   69RES   C11519291   0.311   0.989   7.429 -0.5160  0.0227 -0.1303
   69RES   C11619292   0.417   1.102   7.449  0.3359 -0.2423  0.4455
   69RES   C11719293   0.472   1.092   7.593 -0.2896  0.1581  0.2518
   69RES   O11819294   0.495   1.224   7.647 -0.1585 -0.1961 -0.1648
   69RES   C11919295   0.552   1.224   7.779  0.0535 -0.2449 -0.2871
   69RES   H12019296   0.271   0.955   7.524 -0.6975 -1.8313 -0.8286
   69RES   H12119297   0.357   0.897   7.391 -0.4836 -0.1303  0.2839
   69RES   H12219298   0.386   1.203   7.426 -2.5451 -1.6328 -2.0327
   69RES   H12319299   0.406   1.041   7.664 -0.1835 -0.2650  0.0475
   69RES   H12419300   0.564   1.034   7.593 -0.3894 -0.0034 -0.1179
   69RES   H12519301   0.656   1.192   7.777 -0.7065 -2.8499  0.2139
   69RES   H12619302   0.494   1.157   0.025 -0.9114 -2.8517 -3.7961
   69RES   H12719303   0.550   1.324   0.005 -0.3758 -1.2635  2.1473
   69RES   O12819304   0.530   1.073   7.369 -0.0956  0.1369 -0.3654
   69RES   C12919305   0.524   1.133   7.245 -0.2206 -0.1103  0.2122
   69RES   C13019306   0.665   1.137   7.185 -0.6081 -0.2733 -0.3493
   69RES   C13119307   0.691   1.259   7.096  0.0720 -0.3752 -0.5634
   69RES   O13219308   0.832   1.284   7.093  0.2324  0.2985  0.3777
   69RES   C13319309   0.876   1.393   7.010 -0.3884  0.0953  0.3138
   69RES   H13419310   0.447   1.098   7.177  0.5480 -0.5840 -0.4217
   69RES   H13519311   0.500   1.239   7.253  0.0188 -0.0587  0.2487
   69RES   H13619312   0.728   1.142   7.274 -2.6958  0.2647  1.1446
   69RES   H13719313   0.645   1.348   7.140 -0.4790  0.7340 -3.2697
   69RES   H13819314   0.669   1.237   6.991  3.1617 -2.0968 -0.9096
   69RES   H13919315   0.969   1.441   7.040  0.2249 -1.1384  0.3937
   69RES   H14019316   0.897   1.363   6.907 -0.0611 -1.2478  0.7772
   69RES   H14119317   0.797   1.469   7.006 -0.0235  0.4532 -0.2674
   69RES   O14219318   0.688   1.013   7.126 -0.0770 -0.1698  0.0213
   69RES   C14319319   0.824   0.967   7.107  0.3906 -0.1649 -0.0545
   69RES   C14419320   0.817   0.841   7.016 -0.4493 -0.1738  0.0047
   69RES   C14519321   0.943   0.754   7.036 -0.2766 -0.3114  0.0101
   69RES   O14619322   0.915   0.624   6.987  0.3832 -0.2956 -0.7482
   69RES   C14719323   0.994   0.537   7.061  0.4642  0.5101 -0.0848
   69RES   H14819324   0.888   1.048   7.072  0.7409 -0.0855  0.7660
   69RES   H14919325   0.860   0.935   7.205 -1.1010  2.4259  1.3758
   69RES   H15019326   0.730   0.781   7.039  0.9529 -1.9915  0.6885
   69RES   H15119327   0.964   0.753   7.143  3.0654  1.3206 -0.5940
   69RES   H15219328   1.027   0.797   6.982  0.6741 -3.4475 -1.1634
   69RES   H15319329   0.959   0.439   7.028 -2.4266  0.8579  1.7754
   69RES   H15419330   0.971   0.535   7.168 -0.1003 -4.2834 -0.2050
   69RES   H15519331   1.100   0.549   7.038  0.1479 -0.5739 -2.2493
   69RES   O15619332   0.808   0.868   6.881  0.0051 -0.3023 -0.0088
   69RES   C15719333   0.703   0.955   6.839 -0.0819 -0.0409 -0.3794
   69RES   C15819334   0.658   0.917   6.698  0.4751 -0.0509 -0.4663
   69RES   C15919335   0.561   1.026   6.642 -0.0746  0.0086  0.0677
   69RES   O16019336   0.534   1.021   6.506  0.7129 -0.3752 -0.0804
   69RES   C16119337   0.451   1.133   6.463  0.2553 -0.0812  0.5937
   69RES   H16219338   0.617   0.939   6.905  0.6755 -4.7247 -0.3727
   69RES   H16319339   0.748   1.054   6.844  0.3879 -0.2460 -0.5600
   69RES   H16419340   0.746   0.922   6.634  0.9693  0.7474  0.2631
   69RES   H16519341   0.472   1.023   6.705  1.4148 -1.9063  2.1530
   69RES   H16619342   0.611   1.121   6.662 -1.5037  1.1316 -1.5393
   69RES   H16719343   0.501   1.228   6.480  0.2967  0.2163 -1.1200
   69RES   H16819344   0.361   1.133   6.525 -0.3231  1.1465 -0.2127
   69RES   H16919345   0.422   1.112   6.360 -3.5372  2.3595  1.0633
   69RES   O17019346   0.585   0.799   6.712 -0.2980  0.4433 -0.1148
   69RES   C17119347   0.667   0.689   6.737 -0.2631 -0.3367  0.6699
   69RES   C17219348   0.596   0.565   6.700 -0.1452 -0.3667 -0.7449
   69RES   C17319349   0.661   0.439   6.753 -0.4761 -0.4076  0.3558
   69RES   O17419350   0.781   0.424   6.680 -0.3041 -0.6365  0.6575
   69RES   C17519351   0.863   0.315   6.719  0.2374 -0.1663 -0.0522
   69RES   H17619352   0.686   0.682   6.844 -0.0162 -0.2603  0.6326
   69RES   H17719353   0.763   0.689   6.685 -1.1924  1.0520 -1.0972
   69RES   H17819354   0.498   0.566   6.747 -0.2197 -0.7786 -0.8905
   69RES   H17919355   0.671   0.444   6.861 -0.3144 -1.6732  0.4068
   69RES   H18019356   0.598   0.353   6.728 -1.1131 -0.0005  0.5618
   69RES   H18119357   0.792   0.234   6.731 -1.9342  1.3969 -1.7372
   69RES   H18219358   0.904   0.342   6.816  0.4519  3.6487 -1.0926
   69RES   H18319359   0.939   0.301   6.643  1.3009 -1.5052  1.2527
   69RES   O18419360   0.559   0.553   6.560 -0.5208  0.5217 -0.0813
   69RES   C18519361   0.470   0.662   6.517  0.4534 -0.4213 -1.1580
   69RES   C18619362   0.401   0.631   6.391  0.7553 -0.6635  0.2989
   69RES   C18719363   0.351   0.758   6.322  0.2651  0.5860 -1.6169
   69RES   O18819364   0.281   0.740   6.203  0.1230 -0.1981  0.4132
   69RES   C18919365   0.357   0.681   6.103  0.1438  0.9064 -0.5683
   69RES   H19019366   0.532   0.749   6.493  0.4354 -0.9301 -3.1199
   69RES   H19119367   0.394   0.690   6.590 -0.3338  2.7305 -3.1048
   69RES   H19219368   0.469   0.578   6.324 -0.6583  0.0651 -1.7969
   69RES   H19319369   0.442   0.813   6.296 -0.7982  3.1137 -0.1822
   69RES   H19419370   0.299   0.817   6.398 -1.2136  2.6742 -4.1637
   69RES   H19519371   0.325   0.690   5.999  3.6229 -0.7587 -1.8932
   69RES   H19619372   0.452   0.736   6.104  0.5076  0.2791 -0.2966
   69RES   H19719373   0.379   0.576   6.123 -0.4397  0.4218 -2.3439
   69RES   O19819374   0.280   0.556   6.416 -0.2616  0.1059  0.0381
   69RES   C19919375   0.310   0.420   6.416 -0.7839 -0.2259  0.1568
   69RES   C20019376   0.195   0.342   6.456  0.2369 -0.3305 -0.2333
   69RES   C20119377   0.229   0.198   6.498  0.6989  0.8643 -0.3734
   69RES   O20219378   0.299   0.194   6.618 -0.1914 -0.0093  0.1134
   69RES   C20319379   0.328   0.062   6.668 -0.5105  0.1051  0.0663
   69RES   H20419380   0.399   0.394   6.473 -1.9989  0.5907  2.4918
   69RES   H20519381   0.332   0.391   6.313 -0.2405 -0.3597  0.3086
   69RES   H20619382   0.140   0.394   6.535  1.0250 -0.2309  0.2497
   69RES   H20719383   0.142   0.133   6.508  0.3479  1.0237 -2.1821
   69RES   H20819384   0.293   0.152   6.422  0.0661 -1.1009  0.2422
   69RES   H20919385   0.245   7.812   6.686 -0.0197 -0.2664  1.0182
   69RES   H21019386   0.356   0.082   6.772  1.9519 -0.0883 -0.5280
   69RES   H21119387   0.412   0.006   6.626 -1.6830 -0.8859 -0.9685
   69RES   O21219388   0.113   0.330   6.341 -0.2796  0.0046 -0.6922
   69RES   C21319389   0.054   0.436   6.284 -1.0086  0.1093 -0.2083
   69RES   C21419390   7.791   0.386   6.162 -0.6380  0.3644 -0.4435
   69RES   C21519391   7.769   0.503   6.062  0.0331  0.0979  0.4042
   69RES   O21619392   7.721   0.463   5.925 -0.1830 -0.0224  0.2362
   69RES   C21719393   7.689   0.565   5.839  0.4034 -0.2559  0.7794
   69RES   H21819394   0.127   0.498   6.231 -2.1611 -1.3334 -3.6467
   69RES   H21919395   7.815   0.495   6.357  0.2824  1.4966 -0.3080
   69RES   H22019396   0.032   0.313   6.107  0.9137  0.9579  0.3997
   69RES   H22119397   7.695   0.565   6.112 -0.3215  0.2489 -0.3028
   69RES   H22219398   0.040   0.564   6.043  0.1948 -0.5469 -1.0359
   69RES   H22319399   7.787   0.611   5.822  0.9455 -1.9367 -0.7108
   69RES   H22419400   7.615   0.636   5.877 -0.8945 -0.7406 -0.7937
   69RES   H22519401   7.650   0.520   5.748 -1.1669  0.8602  0.8715
   69RES   O22619402   7.670   0.336   6.221  0.4861 -0.7368 -0.7653
   69RES   C22719403   7.623   0.227   6.144  0.1641 -0.4977  0.4735
   69RES   C22819404   7.506   0.162   6.232  0.1086  0.6411  0.4585
   69RES   C22919405   7.439   0.043   6.160  0.8903  0.8249  0.4360
   69RES   O23019406   7.310   0.016   6.212 -0.4117  0.1723  0.3467
   69RES   C23119407   7.229   7.747   6.126 -0.1381 -0.1487 -0.2711
   69RES   H23219408   7.691   0.144   6.125 -0.3575 -0.7259 -0.4148
   69RES   H23319409   7.594   0.273   6.050  1.6232 -2.4219 -0.9451
   69RES   H23419410   7.429   0.238   6.248 -2.3562 -2.2019  2.6977
   69RES   H23519411   7.495   7.768   6.151  0.6495  0.8948 -2.2609
   69RES   H23619412   7.417   0.071   6.057 -0.5099  2.1888  1.0819
   69RES   H23719413   7.126   7.734   6.161  0.3074 -0.3641  0.9900
   69RES   H23819414   7.278   7.651   6.113  0.6370 -0.0314  1.5611
   69RES   H23919415   7.210   7.783   6.025 -0.3538 -1.7840 -0.8152
   69RES   O24019416   7.554   0.119   6.360  0.6240 -0.0656 -0.4032
   69RES   C24119417   7.573   0.208   6.468 -0.1543  0.1550  0.5797
   69RES   C24219418   7.597   0.140   6.599 -0.5464  0.1598 -0.2093
   69RES   C24319419   7.694   0.229   6.684  0.3818  0.1401  0.0594
   69RES   O24419420   7.740   0.168   6.808  0.2366  0.3759 -0.0395
   69RES   C24519421   0.037   0.249   6.867  0.6859 -0.4343  0.0236
   69RES   H24619422   7.481   0.266   6.471  0.4018  1.0841 -0.1747
   69RES   H24719423   7.639   0.291   6.446 -1.4445  1.7227  2.5118
   69RES   H24819424   7.646   0.045   6.578  0.5555  0.7667 -0.4267
   69RES   H24919425   7.781   0.261   6.626  0.8033 -1.0940 -0.0022
   69RES   H25019426   7.641   0.320   6.711  1.4827  0.7881  0.0542
   69RES   H25119427   0.038   0.221   6.973 -2.0329  2.5363  0.9309
   69RES   H25219428   0.006   0.354   6.871 -0.2365 -0.6989 -0.1742
   69RES   H25319429   0.132   0.231   6.818 -0.3031 -3.6769 -0.7973
   69RES   O25419430   7.476   0.142   6.673  0.5348  0.1029 -0.5888
   69RES   C25519431   7.462   0.023   6.748  0.0295  0.9213  0.6208
   69RES   C25619432   7.337   0.027   6.843  0.1262  0.6508  0.6750
   69RES   C25719433   7.285   7.693   6.879 -0.5330  0.0407 -0.3501
   69RES   O25819434   7.146   7.713   6.918  1.2815  0.5738  0.0692
   69RES   C25919435   7.105   7.631   7.029 -0.0587  0.8107  0.5451
   69RES   H26019436   7.456   7.751   6.685  0.6737  1.7598 -0.6459
   69RES   H26119437   7.549   0.015   6.814  1.2300  0.8712 -0.9450
   69RES   H26219438   7.249   0.072   6.797 -0.7948  0.5810  2.3172
   69RES   H26319439   7.284   7.611   6.807  1.6249  0.1054 -0.4918
   69RES   H26419440   7.351   7.658   6.959 -1.7773  0.5620  0.9355
   69RES   H26519441   7.125   7.686   7.121  1.2163  0.0581  0.7257
   69RES   H26619442   7.162   7.539   7.041 -1.6965 -0.2587  0.3108
   69RES   H26719443   7.002   7.596   7.022  0.5522 -0.6309 -2.1201
   69RES   O26819444   7.359   0.093   6.970  0.0794 -0.0141 -0.7360
   69RES   C26919445   7.379   0.227   6.965 -0.2702  0.3447  0.3351
   69RES   C27019446   7.309   0.295   7.086  0.0516 -0.3969 -0.3652
   69RES   C27119447   7.383   0.289   7.218  0.2761 -0.6651  0.1623
   69RES   O27219448   7.321   0.382   7.305  0.5137 -0.2466 -0.4881
   69RES   C27319449   7.371   0.377   7.441 -0.0118  0.7028 -0.0272
   69RES   H27419450   7.342   0.269   6.872  0.7475  0.8406  0.1517
   69RES   H27519451   7.482   0.263   6.966 -0.3947  0.7525 -0.8635
   69RES   H27619452   7.302   0.400   7.056  1.8414 -0.3145 -0.5971
   69RES   H27719453   7.486   0.309   7.191  0.4802 -0.8480  0.7895
   69RES   H27819454   7.366   0.185   7.249 -0.3300 -0.8279 -0.7140
   69RES   H27919455   7.322   0.446   7.510  2.4550 -0.4184  2.9757
   69RES   H28019456   7.477   0.402   7.440  0.7082 -2.1964 -0.6215
   69RES   H28119457   7.356   0.284   7.495  0.0157  0.4595 -0.4329
   69RES   H28219458   7.212   0.248   7.099  0.8645 -1.6312  1.5203
   70RES     O119459   2.461   7.769   4.184  0.0180  0.0445  0.2947
   70RES     C219460   2.419   7.629   4.191 -0.3122 -0.0300 -0.7909
   70RES     C319461   2.323   7.605   4.071 -0.0900 -1.0114  0.3709
   70RES     C419462   2.331   7.457   4.039 -0.3140 -0.5936 -0.2451
   70RES     O519463   2.273   7.433   3.914 -0.1491 -0.0418 -0.0872
   70RES     C619464   2.278   7.296   3.878 -0.1332 -0.0020 -0.0893
   70RES     H719465   2.517   7.583   4.185  0.1808  0.5012  2.3867
   70RES     H819466   2.367   7.618   4.286 -1.8159 -0.0486 -1.6003
   70RES     H919467   2.363   7.671   3.994 -4.0887  1.3743  0.2376
   70RES    H1019468   2.279   7.401   4.117  0.2770  0.9350  1.2715
   70RES    H1119469   2.436   7.434   4.054 -0.3170 -0.6577 -0.3243
   70RES    H1219470   2.199   7.249   3.937  0.5780 -0.9513  0.1379
   70RES    H1319471   2.245   7.281   3.776  0.3982 -1.9479 -0.0111
   70RES    H1419472   2.374   7.245   3.894  0.4498  0.6169 -1.5668
   70RES    H1519473   2.500   7.779   4.098 -1.2637 -1.3425 -0.4800
   70RES    O1619474   2.194   7.627   4.114 -0.3631  0.1188 -0.0243
   70RES    C1719475   2.102   7.678   4.009  0.2447 -0.0322  0.2212
   70RES    C1819476   1.978   7.746   4.064 -0.0121  0.8966  0.3327
   70RES    C1919477   1.870   7.760   3.952  0.2652  0.2718 -0.6018
   70RES    O2019478   1.927   0.025   3.856  0.0242  0.0988 -0.2275
   70RES    C2119479   1.827   0.102   3.778 -0.0716  0.1570 -0.2108
   70RES    H2219480   2.071   7.592   3.949 -3.0475  0.1560  1.5782
   70RES    H2319481   2.146   7.741   3.932 -0.1370  0.4222  0.3714
   70RES    H2419482   1.999   0.024   4.114  0.0376  0.0850  1.8648
   70RES    H2519483   1.843   7.659   3.921  0.3124  0.3190 -0.8005
   70RES    H2619484   1.776   7.803   3.988  1.6063  3.2363 -0.4758
   70RES    H2719485   1.755   0.150   3.843  0.3779 -1.4690  1.5377
   70RES    H2819486   1.757   0.048   3.714  1.5568  0.6774 -2.5130
   70RES    H2919487   1.879   0.177   3.719 -1.0947  1.9958  1.1683
   70RES    O3019488   1.930   7.666   4.168  0.0135 -0.7141 -0.1865
   70RES    C3119489   1.822   7.709   4.237 -0.2749 -0.5612 -0.0632
   70RES    C3219490   1.834   7.657   4.382 -0.4897 -0.3429 -0.1905
   70RES    C3319491   1.700   7.631   4.457  0.9794 -0.2317  0.0548
   70RES    O3419492   1.605   7.555   4.390  0.3333  0.3241 -0.1652
   70RES    C3519493   1.489   7.522   4.472  0.6855  0.2525  0.0007
   70RES    H3619494   1.804   7.816   4.229  0.3446 -0.5658 -1.6645
   70RES    H3719495   1.746   7.667   4.171  0.9230 -0.7616 -1.3515
   70RES    H3819496   1.886   7.561   4.386 -0.1980 -0.2127 -0.8289
   70RES    H3919497   1.664   7.729   4.485  2.4211 -0.0004  1.2051
   70RES    H4019498   1.730   7.581   4.550  1.6503 -0.3859 -0.2355
   70RES    H4119499   1.518   7.465   4.560  0.1467 -1.5897 -0.9936
   70RES    H4219500   1.418   7.462   4.417 -0.6502 -0.7470  2.7170
   70RES    H4319501   1.434   7.610   4.506  1.5008 -0.0916  2.2861
   70RES    O4419502   1.911   7.740   4.461  0.2073  0.0733 -1.0696
   70RES    C4519503   2.052   7.741   4.433 -0.1864 -0.1219 -0.8642
   70RES    C4619504   2.132   7.811   4.550  0.1531 -0.5299 -0.1576
   70RES    C4719505   2.278   7.778   4.531  0.6769  0.0690 -0.4477
   70RES    O4819506   2.356   0.004   4.645 -0.0377 -0.0029  0.4919
   70RES    C4919507   2.492   7.776   4.611 -0.1835  0.1123  0.1461
   70RES    H5019508   2.068   7.790   4.337  1.5012  1.2039  0.0615
   70RES    H5119509   2.084   7.637   4.426 -0.3694 -0.2844  0.4851
   70RES    H5219510   2.080   7.775   4.638  0.7101 -0.7059  0.1007
   70RES    H5319511   2.288   7.671   4.512 -0.7209 -0.4190  1.4118
   70RES    H5419512   2.304   0.000   4.432 -0.0324  0.4912 -0.4704
   70RES    H5519513   2.523   7.800   4.510  0.2315  1.0888  0.5037
   70RES    H5619514   2.502   7.670   4.637  1.1874  0.1006 -0.4074
   70RES    H5719515   2.555   0.005   4.687 -1.9045 -1.2842  2.4945
   70RES    O5819516   2.098   0.128   4.515  1.1156 -0.3774 -0.1637
   70RES    C5919517   2.130   0.222   4.620  0.8769 -1.3205  0.1164
   70RES    C6019518   2.067   0.358   4.582 -1.1246  0.0862 -0.3947
   70RES    C6119519   2.139   0.471   4.661  0.2526 -1.3362 -0.1108
   70RES    O6219520   2.078   0.593   4.620  0.1119 -0.3651 -0.7515
   70RES    C6319521   2.083   0.692   4.726 -0.5147  0.9739 -0.5025
   70RES    H6419522   2.238   0.238   4.628  0.7932  0.1931 -1.3897
   70RES    H6519523   2.103   0.183   4.718 -0.3080 -0.5886  0.0877
   70RES    H6619524   2.082   0.370   4.475  0.6656  1.1548 -0.0524
   70RES    H6719525   2.126   0.463   4.769  0.2406  0.7645  0.0670
   70RES    H6819526   2.245   0.484   4.639  0.2239 -0.4311  0.2591
   70RES    H6919527   2.032   0.659   4.817 -2.4046  2.6224 -0.9265
   70RES    H7019528   2.043   0.792   4.706 -0.6741  1.1379  0.6250
   70RES    H7119529   2.187   0.711   4.753 -0.5061  0.9596 -0.5261
   70RES    O7219530   1.932   0.373   4.628 -0.4129  0.0775  0.5443
   70RES    C7319531   1.841   0.294   4.556  0.1072  0.0871 -1.2085
   70RES    C7419532   1.704   0.317   4.622 -0.3200  0.2802  0.1977
   70RES    C7519533   1.659   0.461   4.574 -0.3226  0.1698 -0.5080
   70RES    O7619534   1.525   0.453   4.609 -0.2456  0.7494  0.2188
   70RES    C7719535   1.450   0.564   4.584  0.0019  0.0039  0.2591
   70RES    H7819536   1.838   0.311   4.448  0.9038  1.2165 -1.0546
   70RES    H7919537   1.872   0.189   4.563  2.1596  0.7123 -0.7675
   70RES    H8019538   1.634   0.251   4.570 -0.4319  0.1955  0.4552
   70RES    H8119539   1.672   0.477   4.467 -3.0016  2.7636 -0.5267
   70RES    H8219540   1.703   0.546   4.626 -2.1019  1.0468 -0.3889
   70RES    H8319541   1.493   0.659   4.616  0.0308 -0.0504  0.3809
   70RES    H8419542   1.354   0.549   4.634 -0.2824 -2.5222 -0.9671
   70RES    H8519543   1.433   0.582   4.478  0.5363  3.8604  0.7654
   70RES    O8619544   1.701   0.311   4.759  0.2171  0.0282 -0.4700
   70RES    C8719545   1.744   0.187   4.817  0.0405  0.1357  0.2592
   70RES    C8819546   1.656   0.064   4.786  0.2957 -0.4777 -0.2332
   70RES    C8919547   1.700   7.754   4.851 -0.3383  0.2683 -0.0291
   70RES    O9019548   1.626   7.643   4.801 -0.0240 -0.4397  0.6396
   70RES    C9119549   1.543   7.587   4.906  0.0850 -0.6685  0.3440
   70RES    H9219550   1.850   0.165   4.811 -0.2961 -1.2194 -0.9380
   70RES    H9319551   1.730   0.203   4.924 -1.2280 -0.1130  0.1431
   70RES    H9419552   1.654   0.039   4.680  1.0451  1.1309 -0.6476
   70RES    H9519553   1.804   7.733   4.827 -0.1213  1.0713  0.1728
   70RES    H9619554   1.700   7.767   4.959  0.8614 -0.7612  0.1107
   70RES    H9719555   1.612   7.522   4.961  3.4556  1.4327 -1.2666
   70RES    H9819556   1.482   7.655   4.966  0.7978 -1.0244  1.5070
   70RES    H9919557   1.480   7.516   4.853  1.3708 -1.4499 -0.1673
   70RES   O10019558   1.521   0.084   4.837  0.4870  0.3643  0.1291
   70RES   C10119559   1.414   0.102   4.743  0.1917 -0.2526  0.3950
   70RES   C10219560   1.276   0.120   4.801 -0.2680 -0.6910  0.3126
   70RES   C10319561   1.205   7.802   4.838 -0.2569  0.1029  0.1470
   70RES   O10419562   1.214   7.711   4.731  0.0037 -0.4515 -0.0296
   70RES   C10519563   1.182   7.575   4.768 -0.0134  0.2799  0.3927
   70RES   H10619564   1.419   0.013   4.680 -0.2975  1.1442 -1.6654
   70RES   H10719565   1.442   0.193   4.690 -0.7794 -0.2365 -0.0952
   70RES   H10819566   1.294   0.170   4.896 -1.9230  2.5354 -0.9769
   70RES   H10919567   1.100   7.812   4.865 -0.0775  2.1438  0.2274
   70RES   H11019568   1.249   7.754   4.926  1.0603  3.6599  1.5603
   70RES   H11119569   1.238   7.532   4.851 -0.5240 -0.9224  0.1199
   70RES   H11219570   1.212   7.512   4.684 -0.6220  1.3414 -0.6363
   70RES   H11319571   1.077   7.563   4.793 -0.2258  0.6240 -0.3323
   70RES   O11419572   1.195   0.208   4.712  0.0327  0.3225 -0.8504
   70RES   C11519573   1.117   0.299   4.791  0.0590 -0.3321 -0.3446
   70RES   C11619574   0.987   0.338   4.719 -0.2472 -0.3876  0.5777
   70RES   C11719575   0.898   0.430   4.805 -0.4991  0.0880  0.1861
   70RES   O11819576   0.766   0.411   4.765 -0.1832  0.5253 -0.2463
   70RES   C11919577   0.665   0.479   4.840  0.0692 -0.3945 -0.5034
   70RES   H12019578   1.095   0.253   4.887  0.2936 -0.9676 -0.5903
   70RES   H12119579   1.188   0.381   4.801 -0.2177  0.0347 -1.3354
   70RES   H12219580   0.936   0.249   4.682 -0.1567 -0.2026 -0.0040
   70RES   H12319581   0.896   0.397   4.909  1.5267  0.9024  0.5086
   70RES   H12419582   0.926   0.536   4.805 -0.6546  0.1300 -0.5893
   70RES   H12519583   0.650   0.476   4.948  0.3077  0.4336 -0.4475
   70RES   H12619584   0.571   0.432   4.810 -0.6559  0.2905  0.6304
   70RES   H12719585   0.656   0.583   4.808 -0.2660 -0.1346  0.4118
   70RES   O12819586   1.031   0.419   4.610  0.6246 -0.2470 -0.5542
   70RES   C12919587   0.935   0.419   4.503 -0.1535  0.4352  0.8561
   70RES   C13019588   1.000   0.494   4.384  0.3133 -0.2954  0.4364
   70RES   C13119589   0.879   0.530   4.291 -0.0117  0.5624 -0.2936
   70RES   O13219590   0.921   0.605   4.185 -0.3180 -0.1631 -0.3413
   70RES   C13319591   0.810   0.650   4.108  0.2937  0.4818  0.2103
   70RES   H13419592   0.906   0.318   4.474  1.2037  0.2260  0.2110
   70RES   H13519593   0.844   0.470   4.533  0.1067  1.4034 -0.0020
   70RES   H13619594   1.044   0.586   4.423  0.7681 -0.8048  1.1209
   70RES   H13719595   0.791   0.569   4.342 -1.1088 -3.5738  1.1708
   70RES   H13819596   0.845   0.434   4.251  0.1871 -0.8156  2.7158
   70RES   H13919597   0.734   0.574   4.089  1.4716  0.0742 -3.2705
   70RES   H14019598   0.764   0.729   4.168  0.6903  1.4760 -0.7766
   70RES   H14119599   0.836   0.689   4.010  0.4455  1.3711  0.5923
   70RES   O14219600   1.086   0.404   4.313 -0.8887  0.0503  0.5632
   70RES   C14319601   1.197   0.360   4.385  0.0754 -0.5211 -0.8064
   70RES   C14419602   1.299   0.289   4.287 -0.3359 -0.2437 -0.4935
   70RES   C14519603   1.401   0.202   4.363 -0.0849 -0.3484 -0.1281
   70RES   O14619604   1.403   0.075   4.310  0.4325 -0.2200 -0.4109
   70RES   C14719605   1.507   0.053   4.217  0.2935 -0.4067 -0.2312
   70RES   H14819606   1.253   0.440   4.434  1.8289 -1.3545 -1.4117
   70RES   H14919607   1.168   0.291   4.465  1.7519 -1.7314 -1.2234
   70RES   H15019608   1.250   0.229   4.210 -0.0953 -2.4917  1.0372
   70RES   H15119609   1.372   0.204   4.468 -0.0628  2.4374 -0.1300
   70RES   H15219610   1.500   0.248   4.364  0.0473 -0.6149  1.6090
   70RES   H15319611   1.499   0.124   4.135 -0.8868  1.3160  1.3252
   70RES   H15419612   1.500   7.772   4.170 -1.7705 -1.2318  1.6914
   70RES   H15519613   1.605   0.055   4.263  0.6970 -2.7438 -0.9211
   70RES   O15619614   1.369   0.399   4.229 -0.4948  0.0018 -0.3005
   70RES   C15719615   1.324   0.440   4.099 -0.2452 -0.7903 -0.7869
   70RES   C15819616   1.356   0.594   4.085  0.3346 -0.5333  0.1825
   70RES   C15919617   1.255   0.661   4.167 -0.9595  0.1687 -0.3061
   70RES   O16019618   1.301   0.791   4.206 -0.2565 -0.6554  0.0177
   70RES   C16119619   1.193   0.859   4.262  1.0691  0.0166 -0.4798
   70RES   H16219620   1.378   0.378   4.028  0.2875 -0.1635 -0.9362
   70RES   H16319621   1.220   0.411   4.085  0.1112 -1.6187 -1.7677
   70RES   H16419622   1.452   0.610   4.133  1.8270 -1.1327 -2.5061
   70RES   H16519623   1.164   0.663   4.107  1.1145 -2.6449 -3.7857
   70RES   H16619624   1.224   0.605   4.256  1.8205  0.8392  1.1266
   70RES   H16719625   1.235   0.952   4.300  2.7623 -0.8030 -0.3139
   70RES   H16819626   1.171   0.802   4.353  3.3890  0.3213  0.3094
   70RES   H16919627   1.105   0.878   4.200  0.6737  0.4257  0.2052
   70RES   O17019628   1.368   0.631   3.948  0.1618 -0.4744  0.0297
   70RES   C17119629   1.436   0.752   3.912  0.2691  0.3567 -0.1708
   70RES   C17219630   1.434   0.766   3.761 -0.3699  0.0655  0.1439
   70RES   C17319631   1.530   0.879   3.716  1.1836 -0.9435  0.1117
   70RES   O17419632   1.658   0.842   3.658  0.2495  0.3929  0.2476
   70RES   C17519633   1.745   0.949   3.648 -0.1491  0.5688  0.0119
   70RES   H17619634   1.537   0.750   3.955 -0.1198 -2.1239  0.7224
   70RES   H17719635   1.383   0.835   3.958 -1.0785 -0.0998 -0.8698
   70RES   H17819636   1.462   0.679   3.700  1.9075  0.2265  0.8938
   70RES   H17919637   1.472   0.917   3.632  2.2981 -2.1149 -1.2132
   70RES   H18019638   1.539   0.967   3.781 -1.6632  0.3843 -1.2132
   70RES   H18119639   1.718   1.036   3.590  0.6642  2.0244  1.7622
   70RES   H18219640   1.842   0.920   3.608  0.0247 -0.7327  1.3212
   70RES   H18319641   1.763   0.995   3.746 -0.5604  1.5764 -0.3825
   70RES   O18419642   1.305   0.795   3.712 -0.3343 -0.3255 -0.0029
   70RES   C18519643   1.199   0.698   3.721  0.3088  0.0609 -0.9141
   70RES   C18619644   1.085   0.762   3.655 -0.6352 -0.3635  0.6149
   70RES   C18719645   0.984   0.819   3.756 -0.0346  0.1713 -0.0398
   70RES   O18819646   0.905   0.917   3.707  0.3438 -0.0635 -0.1278
   70RES   C18919647   0.814   0.976   3.804  0.5944  0.6677  0.1278
   70RES   H19019648   1.170   0.649   3.813  0.7337 -2.5100 -2.0938
   70RES   H19119649   1.244   0.617   3.663  2.9309  1.4544 -0.9009
   70RES   H19219650   1.119   0.836   3.583  0.9931 -1.1948  0.5334
   70RES   H19319651   1.041   0.862   3.837 -0.2046  3.1672 -1.4541
   70RES   H19419652   0.926   0.733   3.791  0.6540 -0.3952 -0.2885
   70RES   H19519653   0.774   1.061   3.749  0.5557 -1.0356 -2.5779
   70RES   H19619654   0.729   0.915   3.836 -1.0877  2.5949 -0.5822
   70RES   H19719655   0.867   1.007   3.894  1.1728 -1.4643  0.5645
   70RES   O19819656   1.024   0.667   3.570 -0.0529  0.6072 -0.8461
   70RES   C19919657   0.906   0.708   3.508 -0.6998  0.1682 -0.5252
   70RES   C20019658   0.852   0.606   3.409 -0.1161 -0.2175 -0.0039
   70RES   C20119659   0.760   0.664   3.294 -0.3075 -0.6470  0.3296
   70RES   O20219660   0.742   0.569   3.196 -0.0431  0.2177  0.3915
   70RES   C20319661   0.649   0.610   3.098  0.0583  0.2614  0.7412
   70RES   H20419662   0.930   0.800   3.456  1.9038 -0.2820 -0.1679
   70RES   H20519663   0.817   0.745   3.559 -1.1435 -0.7425 -0.6212
   70RES   H20619664   0.929   0.554   3.352  0.1584 -1.4697  1.4802
   70RES   H20719665   0.665   0.694   3.338  0.7740  1.5337  1.2169
   70RES   H20819666   0.807   0.757   3.264 -0.2913 -0.0326  2.2330
   70RES   H20919667   0.697   0.684   3.033 -0.1471  1.3021  1.7618
   70RES   H21019668   0.555   0.651   3.134  1.1048  2.8297  0.7082
   70RES   H21119669   0.617   0.521   3.045  2.5901  0.0406 -0.5207
   70RES   O21219670   0.786   0.509   3.487  0.3050 -0.5437 -0.2288
   70RES   C21319671   0.770   0.376   3.438 -0.7186 -0.4970 -1.1784
   70RES   C21419672   0.713   0.292   3.555  0.5757 -0.5911 -0.2799
   70RES   C21519673   0.769   0.151   3.552 -0.3637  0.4597 -0.6112
   70RES   O21619674   0.778   0.096   3.423  0.4091 -0.0282 -0.0016
   70RES   C21719675   0.772   7.773   3.429 -0.0781  0.7041 -0.7280
   70RES   H21819676   0.860   0.330   3.397  1.0258  0.1572  1.7310
   70RES   H21919677   0.711   0.378   3.347 -0.5015  0.6320 -1.3114
   70RES   H22019678   0.763   0.326   3.646  0.1002  1.4199 -0.7352
   70RES   H22119679   0.870   0.151   3.595  0.3565 -0.8747 -2.2686
   70RES   H22219680   0.703   0.097   3.621  1.0015  0.5628  0.8049
   70RES   H22319681   0.794   7.727   3.333 -2.0930 -0.5580 -0.6187
   70RES   H22419682   0.673   7.740   3.461 -0.2906  0.4354 -1.6621
   70RES   H22519683   0.852   7.729   3.487 -0.7137 -1.0914 -1.1946
   70RES   O22619684   0.573   0.300   3.571 -0.5485  0.2998 -0.3186
   70RES   C22719685   0.504   0.421   3.602  0.0210 -0.5713 -0.0251
   70RES   C22819686   0.546   0.475   3.746  0.4190  0.7403 -0.7080
   70RES   C22919687   0.498   0.618   3.767  0.2373  0.0588 -0.6122
   70RES   O23019688   0.533   0.672   3.896  0.3280  0.3118 -0.2354
   70RES   C23119689   0.478   0.801   3.909  0.0217 -0.3834  0.1595
   70RES   H23219690   0.396   0.405   3.592 -0.0068 -1.9775  2.0557
   70RES   H23319691   0.542   0.481   3.520 -1.9987 -0.2661 -0.7678
   70RES   H23419692   0.654   0.468   3.761  0.1858 -0.1365  0.6820
   70RES   H23519693   0.389   0.629   3.763  0.1924 -0.4071 -0.6935
   70RES   H23619694   0.530   0.685   3.687  0.2919 -0.4750 -1.0477
   70RES   H23719695   0.373   0.811   3.879  0.3291 -0.4942 -0.9526
   70RES   H23819696   0.524   0.883   3.855  0.2457 -0.1716  0.6642
   70RES   H23919697   0.484   0.829   4.015  0.5305  0.5106 -0.1009
   70RES   O24019698   0.490   0.398   3.848  0.1664 -0.0268 -0.3625
   70RES   C24119699   0.546   0.273   3.876  0.4691  0.4703  0.3867
   70RES   C24219700   0.464   0.206   3.986 -0.6669  0.6286 -0.4063
   70RES   C24319701   0.485   0.052   3.990 -0.4315 -0.0165  0.1717
   70RES   O24419702   0.386   7.812   4.067 -0.7248  0.9213  0.9340
   70RES   C24519703   0.388   7.668   4.054  0.2647 -0.0188  0.4424
   70RES   H24619704   0.653   0.275   3.897  0.7455 -0.8728 -0.8034
   70RES   H24719705   0.532   0.206   3.791 -1.0996  0.1196  0.9159
   70RES   H24819706   0.362   0.243   3.980 -1.3729 -1.0915  0.4649
   70RES   H24919707   0.467   0.012   3.890 -0.5688  0.6542 -0.0726
   70RES   H25019708   0.584   0.022   4.023 -0.6880 -1.1708 -0.0609
   70RES   H25119709   0.393   7.634   3.951  0.4525 -1.4410  0.9150
   70RES   H25219710   0.312   7.615   4.113 -0.1669 -0.4414 -0.4910
   70RES   H25319711   0.483   7.633   4.094  0.4001  0.0661  0.1929
   70RES   O25419712   0.519   0.262   4.105  0.6564 -0.7448 -0.5726
   70RES   C25519713   0.431   0.315   4.199  0.2849  0.4831 -0.0104
   70RES   C25619714   0.521   0.347   4.319  0.5289  0.0254  0.4912
   70RES   C25719715   0.468   0.467   4.398  1.0405  0.2916  0.2955
   70RES   O25819716   0.568   0.519   4.487 -0.4099  0.4442  0.1729
   70RES   C25919717   0.543   0.642   4.547  0.1067 -0.2712 -0.0587
   70RES   H26019718   0.376   0.404   4.167 -1.0065  0.0916  1.0630
   70RES   H26119719   0.353   0.246   4.234  0.5452 -0.4528 -1.2442
   70RES   H26219720   0.617   0.381   4.279  0.3986  2.8475  2.4243
   70RES   H26319721   0.452   0.555   4.335  0.6605 -0.2646 -0.3867
   70RES   H26419722   0.377   0.440   4.452  1.4007  0.6315  1.0719
   70RES   H26519723   0.630   0.702   4.573 -0.2460  0.2522 -0.0768
   70RES   H26619724   0.481   0.627   4.635  0.0013 -2.5961 -0.4980
   70RES   H26719725   0.498   0.709   4.474  0.0966 -1.0588 -0.7782
   70RES   O26819726   0.524   0.236   4.413 -0.4082 -0.0335  0.2984
   70RES   C26919727   0.598   0.247   4.529 -0.0565  0.1310 -0.9074
   70RES   C27019728   0.588   0.110   4.594 -0.5249 -0.0124  0.1810
   70RES   C27119729   0.702   0.077   4.692  0.2215  0.5328 -0.2244
   70RES   O27219730   0.675   7.777   4.767 -0.2290  0.4837  0.1178
   70RES   C27319731   0.755   7.762   4.888 -0.0253 -0.0856 -0.2943
   70RES   H27419732   0.575   0.325   4.601  1.2306 -0.2187 -0.1002
   70RES   H27519733   0.700   0.283   4.515  0.8418 -0.8613  2.5923
   70RES   H27619734   0.490   0.104   4.642 -0.0395  0.2661  1.2302
   70RES   H27719735   0.682   0.160   4.760  0.4432  1.5012 -1.3165
   70RES   H27819736   0.799   0.081   4.642  0.8112  1.0976  0.9269
   70RES   H27919737   0.844   7.711   4.853 -1.4552 -2.1087 -1.0855
   70RES   H28019738   0.705   7.692   4.954  0.4760  0.2615  0.4557
   70RES   H28119739   0.796   0.030   4.942  2.3705 -0.7557 -1.0295
   70RES   H28219740   0.584   0.027   4.523 -1.4147  0.3498 -0.1938
   71RES     O119741   1.529   6.937   1.492 -0.3864  0.5217  0.2610
   71RES     C219742   1.459   6.890   1.606 -0.2744  0.1602  0.0554
   71RES     C319743   1.356   6.997   1.645  0.3952  0.0067 -0.2564
   71RES     C419744   1.210   6.967   1.624  0.2193 -0.1700 -0.1967
   71RES     O519745   1.154   7.097   1.602 -0.0098 -0.5068  0.1553
   71RES     C619746   1.015   7.091   1.597 -0.3741 -0.5754 -0.0168
   71RES     H719747   1.418   6.790   1.592  1.6183 -0.2731 -2.6612
   71RES     H819748   1.534   6.885   1.684 -1.8548 -1.5972  1.4942
   71RES     H919749   1.385   7.092   1.600 -2.2542 -0.6800 -3.5966
   71RES    H1019750   1.157   6.906   1.698  1.4576 -0.3639  0.5321
   71RES    H1119751   1.208   6.920   1.526 -0.6852  1.0310 -0.7614
   71RES    H1219752   0.968   7.022   1.667  0.1619 -0.7526  0.1735
   71RES    H1319753   0.965   7.184   1.624 -0.9895 -0.2815 -2.0275
   71RES    H1419754   0.991   7.060   1.495  0.1527 -1.5406  0.1484
   71RES    H1519755   1.596   6.995   1.525  2.5828 -2.4910 -0.0958
   71RES    O1619756   1.381   7.008   1.781  0.2507  0.8092  0.4280
   71RES    C1719757   1.367   7.146   1.822 -0.4071 -0.5962 -0.3638
   71RES    C1819758   1.392   7.148   1.975 -0.1397 -0.3998 -0.5012
   71RES    C1919759   1.468   7.275   2.024 -0.0793  0.0857 -0.0636
   71RES    O2019760   1.483   7.281   2.167 -0.2317 -0.1492  0.5644
   71RES    C2119761   1.583   7.200   2.223  0.3964  0.0669  0.2688
   71RES    H2219762   1.271   7.189   1.794 -1.2794 -2.7505 -0.8107
   71RES    H2319763   1.439   7.210   1.772 -0.0008 -1.1375 -0.4680
   71RES    H2419764   1.461   7.073   2.014 -0.2612 -0.6307 -0.7255
   71RES    H2519765   1.556   7.296   1.963  0.3351  0.4771  0.6702
   71RES    H2619766   1.405   7.361   2.003  0.8301  0.5761 -0.8010
   71RES    H2719767   1.616   7.122   2.154 -0.4601  1.2086 -1.4740
   71RES    H2819768   1.543   7.159   2.315  1.4532 -0.3496  0.5503
   71RES    H2919769   1.670   7.262   2.241 -0.2053  0.4980  1.7186
   71RES    O3019770   1.277   7.140   2.052  0.4445 -0.3634  0.1460
   71RES    C3119771   1.215   7.017   2.042  0.6587  0.5028  0.2000
   71RES    C3219772   1.120   7.004   2.159 -0.5092 -0.4018  0.2948
   71RES    C3319773   1.175   6.917   2.275  0.7807 -0.4248  0.0273
   71RES    O3419774   1.246   6.813   2.218 -0.9655  0.1019  0.0105
   71RES    C3519775   1.323   6.735   2.310 -0.7461  1.0701  0.2286
   71RES    H3619776   1.172   7.006   1.942  0.8354 -3.6014  0.5054
   71RES    H3719777   1.290   6.939   2.048 -0.7625 -0.8697  0.3942
   71RES    H3819778   1.109   7.099   2.211 -1.4636 -1.2609  1.7138
   71RES    H3919779   1.088   6.891   2.335  0.1747 -0.6097 -0.9112
   71RES    H4019780   1.240   6.972   2.342 -0.7406 -1.9686  2.8415
   71RES    H4119781   1.274   6.715   2.405 -1.2297  2.6335  0.3073
   71RES    H4219782   1.418   6.781   2.334  0.4502 -1.7334  1.1503
   71RES    H4319783   1.350   6.635   2.274  0.0631  1.1204  0.6950
   71RES    O4419784   0.993   6.942   2.121 -0.0243 -0.2281 -0.3728
   71RES    C4519785   0.892   7.037   2.149 -0.8664 -0.0237 -0.0763
   71RES    C4619786   0.765   6.952   2.123 -0.0972  0.0268  0.0111
   71RES    C4719787   0.643   7.032   2.151 -0.4215 -0.4605 -0.6697
   71RES    O4819788   0.534   6.950   2.176  0.1935 -0.4826  0.6092
   71RES    C4919789   0.415   7.031   2.192  0.3674 -0.3437  0.4861
   71RES    H5019790   0.892   7.126   2.087  2.6631  0.6610  0.7979
   71RES    H5119791   0.898   7.062   2.255  2.4118  2.1914 -0.7238
   71RES    H5219792   0.764   6.864   2.187 -0.4413  0.7174  0.9635
   71RES    H5319793   0.667   7.089   2.240 -0.0946  1.1026 -1.7478
   71RES    H5419794   0.628   7.107   2.074 -0.7804  0.4276  0.2668
   71RES    H5519795   0.318   6.982   2.200  0.3301 -0.3482  0.0421
   71RES    H5619796   0.408   7.075   2.093  1.5476  1.5561  1.2304
   71RES    H5719797   0.424   7.117   2.258  0.6727 -0.6199  0.8046
   71RES    O5819798   0.760   6.924   1.988 -0.0788  0.1734 -0.0518
   71RES    C5919799   0.683   6.807   1.957  0.4299  0.0901  0.4185
   71RES    C6019800   0.735   6.750   1.825  1.0377 -0.6020  0.0927
   71RES    C6119801   0.619   6.682   1.763 -0.6258  0.8097  0.3664
   71RES    O6219802   0.663   6.614   1.645  0.0368  0.1236  0.1659
   71RES    C6319803   0.572   6.522   1.585  0.4449  0.2825 -0.6817
   71RES    H6419804   0.578   6.832   1.942  0.8615  1.4648 -0.3594
   71RES    H6519805   0.695   6.732   2.036  1.5867 -1.4088 -1.1174
   71RES    H6619806   0.766   6.826   1.753 -0.0847  0.2840  0.5427
   71RES    H6719807   0.570   6.604   1.821 -0.7336 -0.4458 -1.3599
   71RES    H6819808   0.550   6.764   1.744  1.0649  2.4361  1.0804
   71RES    H6919809   0.555   6.436   1.650  1.7916 -0.7255 -1.6190
   71RES    H7019810   0.624   6.478   1.499  0.6497 -0.1708 -0.3296
   71RES    H7119811   0.488   6.587   1.562  0.4426  0.3262 -0.5501
   71RES    O7219812   0.840   6.656   1.840  0.2128 -0.0248 -0.1097
   71RES    C7319813   0.958   6.719   1.877 -0.1278  0.0671 -0.3285
   71RES    C7419814   1.076   6.630   1.835 -0.1345  0.1642 -0.0727
   71RES    C7519815   1.196   6.673   1.919 -0.8526 -0.4111  0.0528
   71RES    O7619816   1.310   6.600   1.878 -0.0292 -0.2214 -0.2216
   71RES    C7719817   1.426   6.669   1.909 -0.6777 -0.1764 -0.2951
   71RES    H7819818   0.980   6.816   1.834 -0.1980  0.4203  0.4350
   71RES    H7919819   0.951   6.723   1.986  0.2684  1.3256 -0.3410
   71RES    H8019820   1.061   6.524   1.858 -0.6737  0.0641 -0.8633
   71RES    H8119821   1.183   6.655   2.026 -0.8754 -1.9250 -0.1862
   71RES    H8219822   1.211   6.779   1.902 -1.3560 -0.3670 -0.1025
   71RES    H8319823   1.449   6.650   2.014  1.8134 -0.1496 -0.7994
   71RES    H8419824   1.425   6.777   1.890  2.0489 -0.0532 -0.0098
   71RES    H8519825   1.509   6.626   1.853  1.3608  0.9753  1.7618
   71RES    O8619826   1.105   6.653   1.700 -0.0515 -0.1041 -0.5456
   71RES    C8719827   1.097   6.541   1.610 -0.3370 -0.6904  0.0996
   71RES    C8819828   1.101   6.576   1.461  0.2316  0.6033  0.2211
   71RES    C8919829   0.997   6.693   1.439 -0.3403 -0.0418 -0.8135
   71RES    O9019830   0.969   6.696   1.300 -0.8076  0.1757  0.6236
   71RES    C9119831   0.881   6.803   1.273  0.0222  0.1292 -0.2493
   71RES    H9219832   1.179   6.470   1.625  1.1412  1.1836  1.0675
   71RES    H9319833   1.003   6.495   1.638  0.3275 -0.8930  2.0837
   71RES    H9419834   1.071   6.487   1.406  0.1470  0.8109 -0.0765
   71RES    H9519835   0.906   6.678   1.497 -1.2473 -1.8065 -2.6277
   71RES    H9619836   1.051   6.783   1.469 -1.1020  0.3240 -0.5524
   71RES    H9719837   0.878   6.835   1.169 -0.5550  1.6974  0.2392
   71RES    H9819838   0.778   6.772   1.289  0.5611 -1.0789  0.9906
   71RES    H9919839   0.902   6.894   1.330 -0.0804 -0.3388  0.5459
   71RES   O10019840   1.236   6.621   1.436  0.1840  0.2767  0.3087
   71RES   C10119841   1.265   6.627   1.298  0.0573 -0.0601  0.6052
   71RES   C10219842   1.420   6.638   1.278  0.3042 -0.9535 -0.1229
   71RES   C10319843   1.465   6.647   1.129  0.0043  0.1503 -1.0677
   71RES   O10419844   1.413   6.530   1.058  0.3178 -0.3067  0.3839
   71RES   C10519845   1.450   6.519   0.918 -0.2206  0.5229 -0.1212
   71RES   H10619846   1.217   6.712   1.251  1.1067 -0.9971 -2.2832
   71RES   H10719847   1.236   6.542   1.236 -0.3379  0.8661 -0.4948
   71RES   H10819848   1.444   6.726   1.338  0.0687 -2.1863  1.8430
   71RES   H10919849   1.573   6.642   1.126  0.2107  3.1870 -0.0705
   71RES   H11019850   1.434   6.734   1.072  0.1224  0.5354 -0.5487
   71RES   H11119851   1.394   6.592   0.860  0.3670  1.1788  0.1245
   71RES   H11219852   1.432   6.423   0.870  2.6941 -0.3698  0.4682
   71RES   H11319853   1.555   6.548   0.905 -0.1328  0.5359  0.5796
   71RES   O11419854   1.477   6.522   1.341 -0.0589  0.3037 -0.0180
   71RES   C11519855   1.600   6.538   1.411  0.0409  0.5232  0.0483
   71RES   C11619856   1.635   6.397   1.456  0.4228  0.5617 -0.1999
   71RES   C11719857   1.783   6.379   1.505 -0.0639  0.1693  0.0098
   71RES   O11819858   1.830   6.243   1.494 -0.2981 -0.7334  0.4362
   71RES   C11919859   1.967   6.222   1.534  0.2122 -0.6926  0.3851
   71RES   H12019860   1.659   6.591   1.336  1.1099  0.7831  1.0549
   71RES   H12119861   1.564   6.596   1.496 -1.7060  0.2829 -0.5174
   71RES   H12219862   1.642   6.339   1.364  2.3141  1.4346 -0.6234
   71RES   H12319863   1.843   6.433   1.432  1.0565 -0.3485  0.5395
   71RES   H12419864   1.809   6.426   1.600  3.3498  0.7281 -1.1275
   71RES   H12519865   1.981   6.248   1.638 -1.2119  0.6679  0.2659
   71RES   H12619866   2.024   6.285   1.464 -2.6327  0.4079 -1.0467
   71RES   H12719867   1.993   6.119   1.511  0.6533 -0.6215  0.5733
   71RES   O12819868   1.553   6.333   1.551 -0.5508  0.2180  0.1977
   71RES   C12919869   1.431   6.284   1.495  0.4732 -0.3461 -0.4130
   71RES   C13019870   1.383   6.139   1.534  0.0517  0.1357 -0.2940
   71RES   C13119871   1.267   6.089   1.444 -0.4777  0.0914 -0.0806
   71RES   O13219872   1.327   6.024   1.329  0.0312  0.6448 -0.2703
   71RES   C13319873   1.254   6.011   1.207  0.1665  0.2647  0.9201
   71RES   H13419874   1.349   6.354   1.511 -1.2180 -3.1002  3.5006
   71RES   H13519875   1.432   6.279   1.386  0.4634 -0.6849 -0.3968
   71RES   H13619876   1.472   6.078   1.526 -0.3730 -0.4811 -0.3176
   71RES   H13719877   1.209   6.178   1.423  0.4515  0.8686  0.6094
   71RES   H13819878   1.202   6.025   1.505 -0.2195 -1.1961 -1.1217
   71RES   H13919879   1.300   5.934   1.145 -0.5967  2.9714 -3.1829
   71RES   H14019880   1.152   5.985   1.232  0.2283 -1.3319 -0.4254
   71RES   H14119881   1.252   6.107   1.157  1.5159  0.1661  0.6445
   71RES   O14219882   1.320   6.137   1.664 -0.0459  0.4078 -0.3736
   71RES   C14319883   1.410   6.166   1.762  0.0425 -0.0656 -0.5930
   71RES   C14419884   1.341   6.132   1.895  0.2037  0.1467 -0.6607
   71RES   C14519885   1.348   6.254   1.987  0.0874 -0.3377 -0.4613
   71RES   O14619886   1.286   6.231   2.117  0.2455  0.0495  0.4097
   71RES   C14719887   1.283   6.351   2.194  0.0798 -0.5411 -0.8038
   71RES   H14819888   1.499   6.105   1.750 -0.6523 -0.6397 -2.9422
   71RES   H14919889   1.448   6.269   1.762  2.7274 -0.9803  1.7781
   71RES   H15019890   1.236   6.106   1.878 -0.3167  0.2671  2.1171
   71RES   H15119891   1.283   6.326   1.938 -1.5080 -0.4440  1.4280
   71RES   H15219892   1.451   6.291   1.993 -0.0338  0.0636 -0.9049
   71RES   H15319893   1.258   6.328   2.297 -1.0342 -4.0185 -1.7927
   71RES   H15419894   1.206   6.424   2.172 -0.4521 -0.9167 -0.1951
   71RES   H15519895   1.374   6.410   2.183 -0.7418  1.1591  1.3485
   71RES   O15619896   1.405   6.027   1.959 -0.3398  0.0606  0.3360
   71RES   C15719897   1.378   5.898   1.902  0.0295  0.0251  0.1893
   71RES   C15819898   1.468   5.792   1.971  0.6034  0.2717  0.0831
   71RES   C15919899   1.485   5.670   1.878 -0.2291 -0.0056  0.4298
   71RES   O16019900   1.589   5.584   1.930 -0.3446 -0.1973  0.3464
   71RES   C16119901   1.537   5.454   1.967  0.0106 -0.4145  0.4413
   71RES   H16219902   1.272   5.880   1.921  0.0299  2.0763  2.4187
   71RES   H16319903   1.367   5.894   1.794  0.2508 -0.3046  0.1796
   71RES   H16419904   1.564   5.842   1.979  0.3429  1.0156 -1.2782
   71RES   H16519905   1.391   5.616   1.866  1.1087 -2.7117  1.8276
   71RES   H16619906   1.520   5.710   1.783 -1.4227  1.5553  0.6274
   71RES   H16719907   1.613   5.387   2.007  0.3204 -0.0316  0.4944
   71RES   H16819908   1.509   5.392   1.881 -1.5806 -2.4858  2.3786
   71RES   H16919909   1.449   5.445   2.030 -2.0297 -0.8581 -2.3640
   71RES   O17019910   1.397   5.752   2.090 -0.4853 -0.4143  0.2665
   71RES   C17119911   1.399   5.847   2.196 -0.8041 -0.1559  0.2888
   71RES   C17219912   1.358   5.805   2.337  0.4694 -0.7790 -0.0399
   71RES   C17319913   1.341   5.933   2.432 -0.0152 -0.0293  0.4593
   71RES   O17419914   1.263   5.895   2.550 -0.0275 -0.3797 -0.2068
   71RES   C17519915   1.122   5.899   2.536  0.3361  0.4777  0.4478
   71RES   H17619916   1.326   5.924   2.171 -0.2380 -0.5473 -2.7505
   71RES   H17719917   1.501   5.886   2.189 -0.9092  0.0088 -0.3293
   71RES   H17819918   1.269   5.741   2.337  0.1570 -0.3497  0.5241
   71RES   H17919919   1.436   5.981   2.455 -0.0784  0.5243 -0.3987
   71RES   H18019920   1.294   6.014   2.377 -1.2083 -0.7394  0.4274
   71RES   H18119921   1.078   5.860   2.628  2.1012 -0.5830  0.8464
   71RES   H18219922   1.092   5.831   2.456  1.6966  0.2546  0.1210
   71RES   H18319923   1.079   5.996   2.508 -0.5467  0.0260  0.2036
   71RES   O18419924   1.468   5.741   2.402  0.0320  0.1710 -0.0066
   71RES   C18519925   1.525   5.625   2.342  0.9798 -0.1012 -0.6272
   71RES   C18619926   1.585   5.521   2.436 -0.0702  0.5470  0.3100
   71RES   C18719927   1.666   5.413   2.363  0.1317  0.7495  0.2823
   71RES   O18819928   1.800   5.448   2.351  0.4766  0.3006 -0.0284
   71RES   C18919929   1.860   5.341   2.278  1.0572  0.3686  0.4224
   71RES   H19019930   1.602   5.657   2.272  0.4103  1.1010 -0.7201
   71RES   H19119931   1.450   5.575   2.280 -2.4848  2.2329  1.4628
   71RES   H19219932   1.650   5.570   2.508  1.4326  1.3933 -1.5803
   71RES   H19319933   1.611   5.378   2.276  0.4444 -0.9585  0.7540
   71RES   H19419934   1.670   5.322   2.424  1.3186  1.1001  0.7481
   71RES   H19519935   1.804   5.321   2.186  0.5534  2.0744  0.3387
   71RES   H19619936   1.952   5.386   2.241 -0.0236  2.8198  0.6172
   71RES   H19719937   1.869   5.247   2.332 -0.8972 -1.0391 -1.5870
   71RES   O19819938   1.485   5.464   2.505  0.4986 -0.1764  0.5576
   71RES   C19919939   1.441   5.531   2.621 -0.2494 -0.2930 -0.3716
   71RES   C20019940   1.316   5.458   2.677  0.1642 -0.4064  0.9035
   71RES   C20119941   1.218   5.550   2.747 -0.6901 -0.2708  0.0060
   71RES   O20219942   1.106   5.467   2.789 -0.0295 -0.5008 -0.1499
   71RES   C20319943   0.999   5.543   2.831 -0.4890  0.0415  0.0700
   71RES   H20419944   1.420   5.636   2.602 -0.8580 -0.5190 -0.9740
   71RES   H20519945   1.521   5.536   2.695 -0.3317  0.0755 -0.3097
   71RES   H20619946   1.259   5.408   2.598  1.4276  2.1785 -1.7402
   71RES   H20719947   1.255   5.599   2.837  0.3894 -1.9862  0.5190
   71RES   H20819948   1.190   5.617   2.666 -1.1239 -0.7539 -0.2472
   71RES   H20919949   0.957   5.609   2.755 -2.1277 -0.2500  0.6993
   71RES   H21019950   1.025   5.607   2.915  3.2387 -0.4192 -0.6459
   71RES   H21119951   0.918   5.480   2.869 -0.7405 -1.1383 -2.2921
   71RES   O21219952   1.356   5.356   2.770  0.7641  0.1003 -0.2296
   71RES   C21319953   1.405   5.237   2.703 -0.0600  0.3282  0.4346
   71RES   C21419954   1.475   5.135   2.796  0.0614  0.2206  0.0420
   71RES   C21519955   1.568   5.040   2.723  0.5118 -0.2611  0.1289
   71RES   O21619956   1.497   5.000   2.609 -0.8602 -0.5057 -0.9083
   71RES   C21719957   1.404   4.889   2.622 -0.2229 -0.3248  0.3334
   71RES   H21819958   1.477   5.270   2.629 -0.2391  1.1586  0.6262
   71RES   H21919959   1.321   5.197   2.646 -0.6643  0.6136  1.1153
   71RES   H22019960   1.542   5.194   2.859  0.2948  0.2457 -0.2305
   71RES   H22119961   1.662   5.080   2.684 -0.9487  0.8205 -2.4438
   71RES   H22219962   1.596   4.954   2.784 -1.9828 -1.0822  0.1711
   71RES   H22319963   1.376   4.838   2.530 -2.2139 -0.0235  0.7359
   71RES   H22419964   1.307   4.924   2.659  0.7535  2.8061  0.0533
   71RES   H22519965   1.447   4.815   2.689  1.0010  0.3866  0.3401
   71RES   O22619966   1.371   5.065   2.863 -0.2699  0.3488  0.2529
   71RES   C22719967   1.404   5.011   2.993  0.0604 -0.4036  0.8218
   71RES   C22819968   1.277   4.965   3.070 -0.1890  0.5329  0.6803
   71RES   C22919969   1.187   5.078   3.117 -0.7385 -0.0741 -0.0302
   71RES   O23019970   1.100   5.041   3.221 -0.3904  0.2278  0.4695
   71RES   C23119971   0.984   5.126   3.243 -0.0334  0.8018 -0.9561
   71RES   H23219972   1.463   5.086   3.044  2.5368 -1.4449 -0.4332
   71RES   H23319973   1.468   4.922   2.988  0.7115  0.0478  1.1042
   71RES   H23419974   1.323   4.931   3.163  0.1135 -1.1916 -0.0897
   71RES   H23519975   1.124   5.122   3.039  0.0374 -1.0553 -1.2314
   71RES   H23619976   1.239   5.157   3.171  1.2911 -2.5486  1.7438
   71RES   H23719977   1.012   5.230   3.227 -1.7488  1.1180 -2.0215
   71RES   H23819978   0.949   5.109   3.345  1.4136  2.0878 -0.2290
   71RES   H23919979   0.913   5.101   3.164  1.4663  2.1266 -2.7576
   71RES   O24019980   1.205   4.861   2.995  0.2273 -0.4724 -0.0338
   71RES   C24119981   1.100   4.801   3.065 -1.1201  0.0832 -0.4884
   71RES   C24219982   1.065   4.657   3.018  0.5572 -0.2150 -0.3542
   71RES   C24319983   1.014   4.663   2.873 -0.2213  0.3000 -0.0780
   71RES   O24419984   0.943   4.543   2.850  1.0320  0.3002 -0.3380
   71RES   C24519985   0.873   4.549   2.722  0.3455  0.4505 -0.0136
   71RES   H24619986   1.007   4.859   3.061 -0.7913  0.6943  0.3707
   71RES   H24719987   1.120   4.792   3.172 -1.0937  0.1885 -0.4842
   71RES   H24819988   0.987   4.614   3.081 -0.5081  0.3216 -1.2855
   71RES   H24919989   0.954   4.753   2.868 -0.3950  0.5239  4.4011
   71RES   H25019990   1.086   4.666   2.791 -0.8360  0.4994 -0.6119
   71RES   H25119991   0.937   4.526   2.637 -0.3098  0.7911 -0.6052
   71RES   H25219992   0.841   4.651   2.703  1.7516  1.2323  1.6575
   71RES   H25319993   0.780   4.491   2.724  2.3425 -2.8712  1.7204
   71RES   O25419994   1.171   4.568   3.024  0.1055  0.1160  0.2836
   71RES   C25519995   1.228   4.534   3.153  0.6555  0.1594 -0.2749
   71RES   C25619996   1.351   4.454   3.115 -0.4829  0.0384 -0.2242
   71RES   C25719997   1.474   4.545   3.087 -0.8586  0.1333  0.0874
   71RES   O25819998   1.577   4.471   3.025 -0.0416 -0.3770  0.6710
   71RES   C25919999   1.700   4.536   3.036  0.0957 -0.2645 -0.1106
   71RES   H26020000   1.258   4.620   3.214 -0.6989  0.6450 -0.2912
   71RES   H26120001   1.153   4.481   3.211  0.8824 -0.7392 -0.8034
   71RES   H26220002   1.331   4.397   3.025 -0.3768 -0.4496  0.0578
   71RES   H26320003   1.447   4.615   3.008 -2.6866 -1.5950 -0.8755
   71RES   H26420004   1.508   4.603   3.173  0.7172  0.2914 -0.6354
   71RES   H26520005   1.706   4.639   3.001  2.8791 -0.2012  0.4624
   71RES   H26620006   1.767   4.477   2.973  0.4928 -0.9306  0.9309
   71RES   H26720007   1.742   4.534   3.136  0.5478 -1.4284 -0.3157
   71RES   O26820008   1.378   4.365   3.223 -0.0841  1.0745  0.5258
   71RES   C26920009   1.478   4.266   3.207  0.0093 -0.5421  0.1283
   71RES   C27020010   1.435   4.156   3.108 -0.0294 -0.1214 -0.7719
   71RES   C27120011   1.526   4.034   3.111  0.7360 -0.8132  0.8753
   71RES   O27220012   1.493   3.934   3.016 -0.1027  0.3233 -0.1110
   71RES   C27320013   1.612   3.891   2.953 -0.2584 -0.8654  0.1029
   71RES   H27420014   1.495   4.219   3.303  0.6163 -2.3884 -0.8689
   71RES   H27520015   1.578   4.305   3.188  0.2161  0.1307  2.5080
   71RES   H27620016   1.333   4.117   3.120  0.5637 -1.1501  1.1178
   71RES   H27720017   1.531   3.980   3.205 -0.4516 -0.3981  1.1742
   71RES   H27820018   1.626   4.076   3.101  0.7616 -1.2004 -0.6786
   71RES   H27920019   1.680   3.967   2.916 -1.8781  0.4231 -0.2588
   71RES   H28020020   1.580   3.832   2.867 -3.3721  2.0379 -0.8472
   71RES   H28120021   1.662   3.835   3.032 -0.3905 -0.5472  0.4165
   71RES   H28220022   1.426   4.203   3.010  3.3647 -0.3055 -1.2034
   72RES     O120023   0.027   7.040   3.102  0.5854 -0.2360  0.3732
   72RES     C220024   0.052   6.942   3.195 -0.0989 -0.1214 -0.1118
   72RES     C320025   0.060   6.809   3.126  0.0077 -0.1113  0.6148
   72RES     C420026   0.102   6.701   3.225 -0.0066  0.2170 -0.2926
   72RES     O520027   0.110   6.576   3.175 -0.0276  0.3847  0.2832
   72RES     C620028   0.159   6.484   3.272 -0.2448  0.3285 -0.2327
   72RES     H720029   0.147   6.958   3.246 -0.4278  0.1040  0.4274
   72RES     H820030   7.786   6.947   3.265 -0.8487 -0.7964 -0.9315
   72RES     H920031   0.136   6.813   3.048 -0.5902  0.9682  0.0861
   72RES    H1020032   0.041   6.704   3.316 -0.7159 -1.6235 -0.7033
   72RES    H1120033   0.201   6.742   3.247 -0.2021  0.2526  0.5445
   72RES    H1220034   0.089   6.482   3.356  1.4238  0.8135  1.2283
   72RES    H1320035   0.172   6.386   3.227  0.0427  0.5342 -0.5945
   72RES    H1420036   0.259   6.514   3.305 -0.3331  0.3415  0.0292
   72RES    H1520037   7.784   6.998   3.042 -0.3001  0.1837  0.9737
   72RES    O1620038   7.741   6.774   3.086 -0.2036  0.0358  0.4033
   72RES    C1720039   7.724   6.776   2.943 -0.3433 -0.0619 -0.3069
   72RES    C1820040   7.579   6.716   2.910  0.0860  0.7864  0.0202
   72RES    C1920041   7.533   6.753   2.774 -0.4671 -0.4730 -1.0225
   72RES    O2020042   7.391   6.752   2.763 -0.1315 -0.3262 -0.2172
   72RES    C2120043   7.341   6.792   2.636  0.0130  0.0259 -0.6342
   72RES    H2220044   7.791   6.712   2.885 -0.8352 -1.2660  0.4130
   72RES    H2320045   7.734   6.875   2.899 -0.2339 -0.1611 -0.5033
   72RES    H2420046   7.502   6.743   2.982 -0.1747  1.5175 -0.5347
   72RES    H2520047   7.567   6.853   2.745  0.4251 -0.7288 -0.8540
   72RES    H2620048   7.585   6.691   2.700  2.7856 -1.8774  2.2880
   72RES    H2720049   7.367   6.721   2.557  0.0744 -0.3510 -0.2794
   72RES    H2820050   7.369   6.894   2.609 -0.4912  0.5622  0.8400
   72RES    H2920051   7.233   6.791   2.627 -0.1554  0.5043  1.2352
   72RES    O3020052   7.600   6.572   2.911 -0.2156 -0.3472  0.2403
   72RES    C3120053   7.481   6.493   2.902 -0.5510 -0.1907  0.1382
   72RES    C3220054   7.505   6.367   2.988  0.3022  0.2484  0.5559
   72RES    C3320055   7.450   6.238   2.920 -0.2095 -0.4102  0.0720
   72RES    O3420056   7.516   6.133   2.978 -0.8438 -0.6694  0.3774
   72RES    C3520057   7.459   6.012   2.955 -0.2731  0.0997 -0.1244
   72RES    H3620058   7.388   6.538   2.936 -0.2810 -0.4072  1.1599
   72RES    H3720059   7.467   6.470   2.796 -1.0247  0.3057  0.0907
   72RES    H3820060   7.613   6.352   2.975 -0.0203 -0.2611 -1.6900
   72RES    H3920061   7.457   6.233   2.812 -1.7106  1.5159 -0.1487
   72RES    H4020062   7.342   6.244   2.937 -0.2951  0.1199 -0.6230
   72RES    H4120063   7.521   5.923   2.963  1.2148  1.1874  0.5500
   72RES    H4220064   7.421   6.007   2.853  0.0130 -2.6877 -0.1504
   72RES    H4320065   7.379   5.990   3.026  1.6391 -2.4297  1.3224
   72RES    O4420066   7.472   6.385   3.126  0.1331  0.2481  0.0636
   72RES    C4520067   7.564   6.463   3.199  0.1740  0.1007  0.7250
   72RES    C4620068   7.511   6.497   3.342 -0.6084  0.2227 -0.0407
   72RES    C4720069   7.632   6.514   3.445 -0.5333 -0.7320  0.4041
   72RES    O4820070   7.583   6.540   3.575  0.1917 -0.2057 -0.3832
   72RES    C4920071   7.687   6.554   3.660 -0.4261  0.5286 -0.1090
   72RES    H5020072   7.574   6.561   3.153 -1.8908  0.6971  1.4795
   72RES    H5120073   7.661   6.420   3.222 -0.1394  0.0610  2.0209
   72RES    H5220074   7.441   6.419   3.372  0.8193 -0.7959  0.6744
   72RES    H5320075   7.700   6.429   3.445  0.8503  0.3277 -1.3091
   72RES    H5420076   7.671   6.612   3.416  1.5354 -1.6711 -0.0887
   72RES    H5520077   7.740   6.459   3.671  0.7780  0.7036 -3.5966
   72RES    H5620078   7.645   6.593   3.753 -1.4364 -0.1063 -0.2906
   72RES    H5720079   7.761   6.630   3.637  0.2340  0.5919  2.1837
   72RES    O5820080   7.440   6.629   3.340  0.3342 -0.0465 -0.0767
   72RES    C5920081   7.305   6.605   3.304  0.0862 -0.5218  0.4731
   72RES    C6020082   7.247   6.750   3.293 -0.7822  0.3080 -0.4293
   72RES    C6120083   7.246   6.826   3.424  0.2354 -0.4951 -0.4388
   72RES    O6220084   7.222   6.968   3.403  0.3538  1.1910 -0.1065
   72RES    C6320085   7.220   7.047   3.517  0.5766  0.5801 -0.7807
   72RES    H6420086   7.256   6.550   3.384  2.5836 -3.0899  0.3252
   72RES    H6520087   7.297   6.553   3.208 -0.8268  0.0285  0.2441
   72RES    H6620088   7.308   6.802   3.219 -0.4443 -2.3408 -2.1029
   72RES    H6720089   7.172   6.785   3.492  1.0340  0.6403  1.1381
   72RES    H6820090   7.335   6.817   3.487 -1.5608 -3.5981  1.7709
   72RES    H6920091   7.122   7.035   3.563  1.1894  1.0203  0.6590
   72RES    H7020092   7.219   7.152   3.487 -1.9700  0.7084 -0.3360
   72RES    H7120093   7.307   7.032   3.581  0.8704 -1.5079 -1.6234
   72RES    O7220094   7.115   6.732   3.247 -0.2690  0.5734  0.3647
   72RES    C7320095   7.091   6.822   3.139 -0.4647  0.6826 -0.5688
   72RES    C7420096   6.935   6.842   3.107  0.6150 -0.1029  0.0346
   72RES    C7520097   6.906   6.926   2.984 -0.1240 -0.1333  0.3774
   72RES    O7620098   6.773   6.910   2.942 -0.2959  0.5124  0.3351
   72RES    C7720099   6.708   7.011   2.863 -0.1312  0.0640  0.0148
   72RES    H7820100   7.127   6.924   3.138  0.2558  0.4604  0.6970
   72RES    H7920101   7.139   6.769   3.057  0.3818  1.0178 -0.3027
   72RES    H8020102   6.889   6.748   3.075 -1.2799  0.3669  1.3006
   72RES    H8120103   6.969   6.889   2.903 -0.1593 -0.5711  0.5476
   72RES    H8220104   6.929   7.031   3.000  0.9075 -0.2767 -0.0719
   72RES    H8320105   6.714   7.105   2.918 -1.8386 -0.2222  0.7124
   72RES    H8420106   6.604   6.982   2.847 -0.0614 -0.4305  0.4756
   72RES    H8520107   6.757   7.022   2.766  0.0921  0.1476  0.1365
   72RES    O8620108   6.871   6.906   3.219 -0.3887 -0.0858 -0.0068
   72RES    C8720109   6.739   6.850   3.249  0.2963 -0.8017  0.8212
   72RES    C8820110   6.678   6.940   3.355 -0.6264  0.5896 -0.0257
   72RES    C8920111   6.529   6.961   3.337  0.5492  0.6889  0.1044
   72RES    O9020112   6.465   6.845   3.369 -0.2670  0.7190 -0.2317
   72RES    C9120113   6.328   6.851   3.363 -0.5980  0.0076  0.0460
   72RES    H9220114   6.675   6.849   3.160  1.5380  3.5116 -0.2648
   72RES    H9320115   6.752   6.747   3.281  2.6619 -1.1411 -1.0380
   72RES    H9420116   6.725   7.038   3.346  2.5234 -0.7613  0.9356
   72RES    H9520117   6.496   7.039   3.406 -2.6420  1.1782 -1.8903
   72RES    H9620118   6.496   7.002   3.242  0.2562 -1.1558 -0.6105
   72RES    H9720119   6.310   6.743   3.364 -0.3057 -0.0816 -1.7187
   72RES    H9820120   6.290   6.903   3.451 -0.4104  1.4126 -0.6929
   72RES    H9920121   6.288   6.889   3.269  1.8912  2.8805  0.0997
   72RES   O10020122   6.710   6.900   3.486  0.3519 -0.4351  0.1215
   72RES   C10120123   6.847   6.917   3.529  0.0180 -0.2956  0.6128
   72RES   C10220124   6.859   6.928   3.681 -0.5809  0.5141  0.0005
   72RES   C10320125   6.854   7.071   3.725 -0.0110 -0.4739  0.6784
   72RES   O10420126   6.804   7.084   3.859 -0.3544  1.2836 -0.2894
   72RES   C10520127   6.793   7.219   3.910  0.1789 -0.1047 -0.4720
   72RES   H10620128   6.896   6.992   3.467 -1.3628  0.9491  0.9969
   72RES   H10720129   6.889   6.823   3.492 -1.0191 -0.2201 -0.8084
   72RES   H10820130   6.776   6.864   3.709  0.9422 -1.7672 -0.5960
   72RES   H10920131   6.788   7.136   3.667  0.0032  0.7353  1.9759
   72RES   H11020132   6.953   7.115   3.714 -0.1387  0.3155  2.4554
   72RES   H11120133   6.751   7.292   3.841 -1.1107  0.0264  0.4397
   72RES   H11220134   6.892   7.258   3.930  0.1034 -0.2689  0.2303
   72RES   H11320135   6.738   7.217   4.004 -0.3445  0.6986 -0.7525
   72RES   O11420136   6.985   6.866   3.715  0.6935  0.0260  0.4267
   72RES   C11520137   6.992   6.832   3.852 -0.5484 -0.2781 -0.0223
   72RES   C11620138   7.117   6.752   3.879 -0.1995  0.2946  0.2644
   72RES   C11720139   7.152   6.759   4.027 -0.3431 -0.2234 -0.1033
   72RES   O11820140   7.290   6.752   4.030 -0.6364 -0.2749  0.6196
   72RES   C11920141   7.328   6.695   4.152  0.1992  0.1488 -0.6934
   72RES   H12020142   6.983   6.920   3.916 -2.5016  0.0737 -0.7364
   72RES   H12120143   6.907   6.767   3.876 -1.8812  1.1690 -0.6993
   72RES   H12220144   7.183   6.807   3.812  1.8062 -0.5992  1.4641
   72RES   H12320145   7.126   6.853   4.077  0.8195 -0.1746  0.4238
   72RES   H12420146   7.100   6.677   4.076 -1.1785  0.3210 -0.0716
   72RES   H12520147   7.432   6.665   4.147  0.0314 -0.3152 -1.4185
   72RES   H12620148   7.277   6.600   4.165 -3.8442  1.6804 -4.1769
   72RES   H12720149   7.313   6.758   4.240 -1.0642 -1.2237  0.0851
   72RES   O12820150   7.103   6.620   3.843  0.4398 -0.6248  0.6974
   72RES   C12920151   7.220   6.577   3.775 -0.0538  0.0618 -0.0721
   72RES   C13020152   7.195   6.432   3.727 -0.1130 -0.1386  0.0323
   72RES   C13120153   7.325   6.366   3.685  0.5569  0.1864 -0.4452
   72RES   O13220154   7.313   6.229   3.688  0.0022 -0.0346  0.6922
   72RES   C13320155   7.421   6.163   3.614  0.5694 -0.5779 -0.2959
   72RES   H13420156   7.247   6.640   3.690  1.0041 -0.0314  0.1831
   72RES   H13520157   7.299   6.580   3.850  0.8295  0.8957 -1.0203
   72RES   H13620158   7.155   6.379   3.813  0.9945 -1.1625 -0.0782
   72RES   H13720159   7.396   6.370   3.767 -0.3913 -3.4037  0.6301
   72RES   H13820160   7.373   6.406   3.596  1.3351  1.9534  0.7475
   72RES   H13920161   7.399   6.058   3.597  1.5638 -1.1622  1.9277
   72RES   H14020162   7.461   6.215   3.527  1.3932  2.6782  1.9318
   72RES   H14120163   7.513   6.176   3.672  2.0750 -0.2067 -2.6667
   72RES   O14220164   7.126   6.428   3.607  0.1460  0.0482 -0.0901
   72RES   C14320165   6.987   6.443   3.613  0.6852  0.6479  0.1810
   72RES   C14420166   6.927   6.431   3.476  0.1112 -0.2180  0.7782
   72RES   C14520167   6.777   6.476   3.481 -0.0158 -0.1969  0.0896
   72RES   O14620168   6.735   6.477   3.339  0.0756  0.3151  0.4947
   72RES   C14720169   6.596   6.500   3.334  0.3690  0.0152 -0.2126
   72RES   H14820170   6.945   6.367   3.679  2.3851  0.5540  1.1713
   72RES   H14920171   6.974   6.539   3.662  0.1502  1.0325 -0.6985
   72RES   H15020172   6.988   6.489   3.408 -0.5732 -0.0500  0.2974
   72RES   H15120173   6.766   6.580   3.510 -0.5365 -0.1163 -0.3852
   72RES   H15220174   6.716   6.410   3.542 -1.6467  0.5458 -0.7157
   72RES   H15320175   6.565   6.473   3.233  0.1229  2.0257 -0.6930
   72RES   H15420176   6.569   6.598   3.371  2.4097  0.3233  0.5187
   72RES   H15520177   6.557   6.421   3.398  2.1823  0.3232  1.2976
   72RES   O15620178   6.912   6.290   3.442 -0.2135 -0.8230 -0.5308
   72RES   C15720179   7.033   6.238   3.392  0.3332  0.3765  0.2953
   72RES   C15820180   7.014   6.087   3.344  0.2886 -0.8950  0.0358
   72RES   C15920181   7.156   6.021   3.331  0.2721 -0.1227  0.1512
   72RES   O16020182   7.132   5.890   3.283  0.2669 -0.4853  0.3752
   72RES   C16120183   7.237   5.814   3.238 -0.5334 -0.5238  0.4870
   72RES   H16220184   7.079   6.294   3.311 -1.2437 -0.2282 -1.0602
   72RES   H16320185   7.108   6.235   3.470  0.9919  0.1085 -0.3394
   72RES   H16420186   6.957   6.016   3.403  0.5097  0.1646  1.5759
   72RES   H16520187   7.217   6.088   3.270  1.1626 -0.2019  0.9493
   72RES   H16620188   7.206   6.020   3.427  0.9625 -0.2658 -0.2036
   72RES   H16720189   7.213   5.711   3.211 -1.7146 -0.3461  0.8336
   72RES   H16820190   7.321   5.808   3.308  2.0309 -0.6651 -2.4794
   72RES   H16920191   7.295   5.872   3.165 -3.3342  1.0869 -0.5169
   72RES   O17020192   6.955   6.097   3.218  0.3070  0.6442  0.2467
   72RES   C17120193   6.817   6.128   3.198 -0.2540  0.5122  0.9892
   72RES   C17220194   6.762   6.071   3.069  0.6116  0.4384  0.0963
   72RES   C17320195   6.627   6.135   3.022 -0.5106  0.3693  0.4525
   72RES   O17420196   6.642   6.278   3.002 -0.8765 -0.2686 -0.2453
   72RES   C17520197   6.511   6.330   2.977 -0.2238 -0.2749  0.1165
   72RES   H17620198   6.798   6.234   3.214  0.8482  0.9752 -0.6861
   72RES   H17720199   6.753   6.088   3.277 -1.0591  0.5879  0.3791
   72RES   H17820200   6.836   6.089   2.991  2.0924 -2.1167  0.8360
   72RES   H17920201   6.608   6.088   2.926 -1.9836 -1.6669  1.7072
   72RES   H18020202   6.545   6.110   3.088 -0.7668 -0.7441 -0.2659
   72RES   H18120203   6.520   6.438   2.985 -3.1382  0.1142 -0.8932
   72RES   H18220204   6.447   6.317   3.065 -0.7985  2.4542  0.1302
   72RES   H18320205   6.473   6.292   2.882 -1.2834 -0.1274  0.4695
   72RES   O18420206   6.725   5.933   3.090 -0.2189 -0.1829  0.2317
   72RES   C18520207   6.833   5.840   3.087  0.1186 -0.0890 -0.2026
   72RES   C18620208   6.809   5.706   3.155 -1.0462 -0.6565  0.2095
   72RES   C18720209   6.853   5.723   3.299  0.5395 -0.0847 -0.1909
   72RES   O18820210   6.767   5.655   3.395  0.4134  0.1556  0.2634
   72RES   C18920211   6.805   5.682   3.528  0.1016  0.7253  0.3630
   72RES   H19020212   6.924   5.888   3.123 -0.6510  1.0684  0.2235
   72RES   H19120213   6.839   5.809   2.983 -0.0543  0.5444 -0.4048
   72RES   H19220214   6.703   5.681   3.151 -0.6896 -2.2478  0.3795
   72RES   H19320215   6.844   5.827   3.329 -0.3156 -0.8285  2.2823
   72RES   H19420216   6.958   5.692   3.303  0.3663 -0.5320  0.9744
   72RES   H19520217   6.783   5.785   3.556  1.4606  1.1783 -0.2029
   72RES   H19620218   6.746   5.613   3.588 -0.9599  0.0151 -1.4637
   72RES   H19720219   6.912   5.668   3.543 -0.1839  0.5949  2.4953
   72RES   O19820220   6.881   5.599   3.093 -1.0510 -0.6203 -0.2005
   72RES   C19920221   6.856   5.463   3.127 -0.1845  0.1440 -0.1101
   72RES   C20020222   6.733   5.404   3.060  0.1693 -0.2061 -0.4961
   72RES   C20120223   6.747   5.416   2.908 -0.1743 -0.5209 -0.8873
   72RES   O20220224   6.693   5.300   2.840 -0.5567 -0.4616 -0.1953
   72RES   C20320225   6.703   5.313   2.699 -0.2777 -0.0759 -0.1689
   72RES   H20420226   6.855   5.443   3.234  0.0922 -1.2442 -0.3565
   72RES   H20520227   6.943   5.410   3.089  2.2356  2.9902  1.2206
   72RES   H20620228   6.735   5.299   3.087 -1.8753  0.1585  1.2708
   72RES   H20720229   6.689   5.501   2.871 -0.2541 -1.0882 -2.1142
   72RES   H20820230   6.848   5.436   2.871  1.5554 -2.1806  2.7019
   72RES   H20920231   6.807   5.325   2.672 -0.0683  0.0308  0.6736
   72RES   H21020232   6.636   5.391   2.663 -0.3061  0.0969  0.2602
   72RES   H21120233   6.656   5.223   2.657  0.4021  0.0209 -1.1477
   72RES   O21220234   6.612   5.472   3.096 -0.4285  0.3495  0.4087
   72RES   C21320235   6.567   5.433   3.216 -0.1645 -0.1200  1.0220
   72RES   C21420236   6.416   5.402   3.222 -0.1527 -0.0102  0.0986
   72RES   C21520237   6.359   5.422   3.357 -0.3076  0.1331  0.3633
   72RES   O21620238   6.220   5.437   3.351 -0.1034 -0.2855 -0.3642
   72RES   C21720239   6.161   5.414   3.476  0.2255 -0.6662  0.2632
   72RES   H21820240   6.592   5.520   3.278 -0.3652 -0.2808  1.3296
   72RES   H21920241   6.611   5.347   3.266  0.3655  0.3056  1.3024
   72RES   H22020242   6.378   5.464   3.141 -1.7687 -1.1885 -0.0630
   72RES   H22120243   6.389   5.342   3.424  0.9328 -0.6286 -1.0991
   72RES   H22220244   6.381   5.521   3.397  0.9677  0.7373 -1.7296
   72RES   H22320245   6.063   5.463   3.485 -0.6388 -2.2454 -0.2700
   72RES   H22420246   6.228   5.457   3.550  3.1459 -1.0572 -2.0909
   72RES   H22520247   6.145   5.309   3.497 -0.3095 -0.5484  0.4596
   72RES   O22620248   6.384   5.270   3.189  0.1929 -0.4902 -0.4737
   72RES   C22720249   6.386   5.237   3.047 -0.0581  0.9825  0.7230
   72RES   C22820250   6.250   5.287   2.998  0.1838  0.5697  0.8379
   72RES   C22920251   6.281   5.392   2.884  0.0991 -1.2244 -0.2114
   72RES   O23020252   6.165   5.477   2.853  0.4816 -0.2436  0.5936
   72RES   C23120253   6.170   5.535   2.727  0.3478  0.0764 -0.0879
   72RES   H23220254   6.401   5.130   3.035 -1.4494  0.9995 -1.5894
   72RES   H23320255   6.461   5.293   2.991 -0.4907  0.7446 -0.1065
   72RES   H23420256   6.192   5.334   3.078 -1.6769  0.5226 -0.4650
   72RES   H23520257   6.331   5.355   2.794 -0.0118 -0.3888 -0.6155
   72RES   H23620258   6.354   5.460   2.929 -2.3822 -0.6488  3.1649
   72RES   H23720259   6.277   5.544   2.708  0.1890  1.9344 -0.2318
   72RES   H23820260   6.134   5.638   2.724 -0.0244 -0.0661 -0.8091
   72RES   H23920261   6.122   5.481   2.645  3.1100 -2.2810 -0.2061
   72RES   O24020262   6.172   5.183   2.937 -0.5883  0.3076  0.0530
   72RES   C24120263   6.033   5.216   2.927 -0.5224 -0.4756 -0.4027
   72RES   C24220264   5.954   5.097   2.879 -0.0096 -0.3527 -0.3250
   72RES   C24320265   6.028   5.019   2.775  0.1163 -0.5703 -0.3850
   72RES   O24420266   5.942   4.942   2.693  0.5265 -0.4214  0.6039
   72RES   C24520267   5.968   4.812   2.701  0.3774  0.5046  0.2192
   72RES   H24620268   6.004   5.291   2.854 -1.0804  0.5969  0.8877
   72RES   H24720269   5.994   5.255   3.022  0.2537 -1.8901  0.5183
   72RES   H24820270   5.864   5.128   2.825  1.5268  0.4678 -2.4659
   72RES   H24920271   6.097   5.083   2.720 -0.2468 -0.0489 -0.2313
   72RES   H25020272   6.099   4.953   2.825  3.0374  1.1403 -2.1451
   72RES   H25120273   5.895   4.759   2.640 -0.3246 -0.7220  2.0690
   72RES   H25220274   5.963   4.769   2.801  0.7423  0.5506  0.2611
   72RES   H25320275   6.070   4.789   2.668  0.7900  0.6017  1.4092
   72RES   O25420276   5.914   5.004   2.977 -0.8555  0.2889 -0.6978
   72RES   C25520277   5.812   5.034   3.068 -0.4404  0.1005 -0.4644
   72RES   C25620278   5.829   4.919   3.184  0.8880  0.0776  0.5522
   72RES   C25720279   5.829   4.982   3.326  0.1526  0.8141  0.4567
   72RES   O25820280   5.962   5.020   3.358  0.4326  0.2865 -0.2436
   72RES   C25920281   6.020   5.127   3.289  0.5035 -0.2650 -0.2720
   72RES   H26020282   5.810   5.137   3.106 -0.2844  0.0944 -0.4419
   72RES   H26120283   5.720   5.019   3.012 -0.8891 -0.7040  0.4599
   72RES   H26220284   5.922   4.867   3.160  1.4017  0.6656  1.2415
   72RES   H26320285   5.776   5.077   3.335 -0.3520  0.5984 -0.2666
   72RES   H26420286   5.805   4.902   3.396  3.1369  1.5001  2.3799
   72RES   H26520287   6.042   5.118   3.183 -0.1691 -0.8253 -0.3637
   72RES   H26620288   6.120   5.151   3.324 -0.6657  2.2516  1.6135
   72RES   H26720289   5.955   5.214   3.301  0.8124  0.2030 -1.8652
   72RES   O26820290   5.721   4.822   3.172  0.2099  0.0924 -0.0115
   72RES   C26920291   5.724   4.752   3.047  0.2898  0.1451  0.1416
   72RES   C27020292   5.602   4.657   3.041 -0.1199  0.7872 -0.4757
   72RES   C27120293   5.582   4.606   2.903  0.2664 -0.5091 -0.0056
   72RES   O27220294   5.500   4.699   2.830 -1.0942  0.0828 -0.3177
   72RES   C27320295   5.527   4.697   2.692 -0.1941 -0.9052  0.1146
   72RES   H27420296   5.813   4.689   3.038  1.5072  2.0849 -1.7981
   72RES   H27520297   5.716   4.816   2.959 -0.9077 -1.7980 -1.2053
   72RES   H27620298   5.614   4.571   3.107 -0.2572  0.6010 -0.6934
   72RES   H27720299   5.536   4.509   2.885 -0.3111 -0.1064 -0.7273
   72RES   H27820300   5.677   4.595   2.850 -0.7031 -2.7677 -1.3696
   72RES   H27920301   5.466   4.769   2.637 -0.5247 -0.0284  1.5965
   72RES   H28020302   5.512   4.604   2.638  0.4615  0.8346 -3.2630
   72RES   H28120303   5.626   4.734   2.666 -0.8294  0.4258 -0.4776
   72RES   H28220304   5.505   4.705   3.058 -0.6264  0.2030 -1.6464
   73RES     O120305   5.503   5.097   3.130 -0.3594 -0.1966  0.2916
   73RES     C220306   5.460   5.068   3.000 -0.0540  0.2598 -0.0203
   73RES     C320307   5.309   5.044   3.007 -0.0888  0.7703  0.4311
   73RES     C420308   5.257   4.996   2.863  0.7377 -0.0751 -1.0458
   73RES     O520309   5.125   5.029   2.842  0.3712 -0.1707 -0.2521
   73RES     C620310   5.108   5.140   2.755 -0.7127 -0.3782  0.3444
   73RES     H720311   5.479   5.160   2.946  0.3285  0.6025  0.6772
   73RES     H820312   5.508   4.975   2.968 -0.0073 -0.3098  1.6031
   73RES     H920313   5.236   5.121   3.032 -2.0995 -0.7276 -0.5583
   73RES    H1020314   5.262   4.888   2.848  0.1112 -0.1855 -0.4625
   73RES    H1120315   5.321   5.027   2.780  1.7024  1.6592  0.3132
   73RES    H1220316   5.138   5.120   2.653 -0.8496  0.9113  0.0439
   73RES    H1320317   5.006   5.175   2.739 -1.0943 -1.5623  0.0981
   73RES    H1420318   5.172   5.227   2.768 -1.8479  0.5755 -0.3598
   73RES    H1520319   5.476   5.021   3.178  1.1654 -0.7195  0.3372
   73RES    O1620320   5.287   4.936   3.094  0.0586 -0.2351 -0.2422
   73RES    C1720321   5.208   4.967   3.209 -0.3392  0.2923  0.3884
   73RES    C1820322   5.183   4.835   3.302 -0.2060  0.1347  0.4936
   73RES    C1920323   5.116   4.868   3.438  0.8869  0.0836  0.1039
   73RES    O2020324   5.201   4.955   3.514  0.0581  0.1216 -0.3130
   73RES    C2120325   5.137   4.991   3.634 -1.0552 -0.6725  0.4344
   73RES    H2220326   5.120   5.011   3.163 -0.4409 -0.0670  0.2467
   73RES    H2320327   5.244   5.053   3.266 -1.3471  1.4153 -0.6235
   73RES    H2420328   5.281   4.793   3.324  0.0452  1.3954  1.8472
   73RES    H2520329   5.014   4.905   3.429  0.4262 -1.2181 -0.1465
   73RES    H2620330   5.099   4.773   3.489 -1.5198 -1.2096 -2.9814
   73RES    H2720331   5.035   5.025   3.618 -1.1728  0.4566  3.2832
   73RES    H2820332   5.198   5.065   3.686 -0.3895 -0.6852 -0.3053
   73RES    H2920333   5.127   4.912   3.709 -1.3277 -0.6108  0.4601
   73RES    O3020334   5.102   4.751   3.219  0.2779 -0.5229  0.6220
   73RES    C3120335   5.082   4.617   3.264 -0.8558  0.3741  0.7743
   73RES    C3220336   5.035   4.532   3.145  0.2490  0.5895 -0.2357
   73RES    C3320337   4.963   4.403   3.185 -0.7869 -0.7779  0.2141
   73RES    O3420338   4.885   4.364   3.075 -0.0467 -0.3663 -0.0940
   73RES    C3520339   4.757   4.414   3.089  1.1759 -0.4241 -0.1573
   73RES    H3620340   5.172   4.571   3.307 -0.0492  0.9389 -0.2918
   73RES    H3720341   5.007   4.623   3.343 -0.0533  0.6958  1.5299
   73RES    H3820342   4.972   4.589   3.077 -0.8935 -0.3534  0.0326
   73RES    H3920343   4.904   4.412   3.276 -0.9630 -0.6534  0.0887
   73RES    H4020344   5.041   4.329   3.203  0.2734  0.3486  0.2590
   73RES    H4120345   4.700   4.351   3.157  0.3189  1.7034  1.1446
   73RES    H4220346   4.727   4.423   2.985 -0.1873 -1.5476  0.1324
   73RES    H4320347   4.762   4.515   3.130  1.0899 -1.1873  1.8340
   73RES    O4420348   5.156   4.496   3.074 -0.4301  0.1594  0.0274
   73RES    C4520349   5.192   4.575   2.966  0.1283  0.3608 -0.2626
   73RES    C4620350   5.110   4.525   2.846  0.8043 -0.2697  0.2019
   73RES    C4720351   5.114   4.629   2.732  0.1015  0.1662  0.0406
   73RES    O4820352   5.070   4.577   2.605 -0.1556 -0.0378 -0.2713
   73RES    C4920353   5.142   4.597   2.483 -0.5455 -0.2593 -0.7583
   73RES    H5020354   5.291   4.539   2.937 -0.3555 -0.5268 -0.8496
   73RES    H5120355   5.196   4.683   2.977 -0.9908  0.3021  0.7414
   73RES    H5220356   5.013   4.485   2.875  0.8036 -0.5119 -0.1323
   73RES    H5320357   5.051   4.714   2.757 -0.7322 -0.6843  0.9203
   73RES    H5420358   5.212   4.672   2.717  0.6518 -0.9464  0.3658
   73RES    H5520359   5.090   4.549   2.401 -2.8349  3.2930 -1.4819
   73RES    H5620360   5.244   4.560   2.492 -0.4417 -0.7710 -3.6043
   73RES    H5720361   5.144   4.706   2.470 -0.2382 -0.1906 -0.1780
   73RES    O5820362   5.174   4.413   2.779  0.4770  0.3965  0.4209
   73RES    C5920363   5.174   4.287   2.855 -0.7592 -0.7023  0.5938
   73RES    C6020364   5.187   4.170   2.752 -0.0034  0.2335 -0.5032
   73RES    C6120365   5.102   4.050   2.790 -0.4075 -0.1492  0.3284
   73RES    O6220366   5.091   3.948   2.686  0.5753 -0.6178  0.2947
   73RES    C6320367   5.019   3.835   2.726 -0.4109 -0.8427  0.5329
   73RES    H6420368   5.075   4.277   2.900 -1.3487 -1.8146 -0.9375
   73RES    H6520369   5.246   4.272   2.936  0.9916 -0.8931 -0.9633
   73RES    H6620370   5.138   4.199   2.659 -0.2739  0.8067 -0.1831
   73RES    H6720371   5.140   4.021   2.889  1.5503  2.3756  0.3772
   73RES    H6820372   4.998   4.077   2.805 -0.2654 -0.4772  2.0309
   73RES    H6920373   5.005   3.768   2.640  0.2007 -0.0280 -0.2022
   73RES    H7020374   4.922   3.850   2.774 -0.7894 -0.4519 -0.3303
   73RES    H7120375   5.093   3.780   2.784  0.2701  0.4120  0.8716
   73RES    O7220376   5.315   4.121   2.711  0.4456  0.3712 -0.0404
   73RES    C7320377   5.397   4.229   2.668  0.1391 -0.1160  0.0558
   73RES    C7420378   5.525   4.181   2.600 -0.0824 -0.5222 -0.6061
   73RES    C7520379   5.642   4.276   2.629  0.7127 -0.1010  0.1197
   73RES    O7620380   5.770   4.222   2.575 -0.3140 -0.4674  0.1162
   73RES    C7720381   5.877   4.319   2.559  0.4271 -0.3915 -0.5758
   73RES    H7820382   5.345   4.304   2.607 -0.2823 -2.0365 -2.0019
   73RES    H7920383   5.439   4.286   2.751  1.4579  1.0300 -1.3629
   73RES    H8020384   5.548   4.083   2.643  0.8694 -0.7342 -1.5838
   73RES    H8120385   5.653   4.296   2.735  0.1891  0.7720  0.0079
   73RES    H8220386   5.616   4.369   2.579  1.1270 -0.9014 -1.6281
   73RES    H8320387   5.936   4.328   2.651 -1.0587  2.5812  0.1452
   73RES    H8420388   5.833   4.415   2.533  2.0829  0.7060  0.4605
   73RES    H8520389   5.939   4.298   2.472 -0.4297  0.2820 -1.3550
   73RES    O8620390   5.505   4.179   2.459 -0.1476  0.2642 -0.0265
   73RES    C8720391   5.415   4.084   2.408  0.3652 -0.1142 -0.4038
   73RES    C8820392   5.485   3.949   2.383 -0.2042 -0.6534 -0.2729
   73RES    C8920393   5.384   3.834   2.363 -0.4516 -0.5389  0.8603
   73RES    O9020394   5.452   3.706   2.400 -0.3313 -0.2033  0.3593
   73RES    C9120395   5.350   3.605   2.403 -0.4828  0.1078  0.6633
   73RES    H9220396   5.335   4.078   2.482  2.3247  0.0893  1.8118
   73RES    H9320397   5.386   4.108   2.306 -1.4098  0.6086  0.2609
   73RES    H9420398   5.544   3.934   2.473 -0.1872 -0.6777 -0.2877
   73RES    H9520399   5.293   3.851   2.422  0.8253  2.8913  1.9546
   73RES    H9620400   5.358   3.855   2.259 -0.5569 -1.8375  0.6140
   73RES    H9720401   5.286   3.621   2.489  0.0732  2.1302  0.7351
   73RES    H9820402   5.300   3.616   2.306 -0.5921  0.6182  0.7773
   73RES    H9920403   5.380   3.500   2.407 -0.7601  0.0304  0.7384
   73RES   O10020404   5.553   3.956   2.261 -0.2971  0.0201 -0.4654
   73RES   C10120405   5.690   3.991   2.281 -0.2864 -0.2005 -0.1961
   73RES   C10220406   5.776   3.946   2.157  0.2475  0.0213  0.5356
   73RES   C10320407   5.922   3.964   2.188  0.3671 -1.0962 -0.3717
   73RES   O10420408   5.948   4.094   2.245 -0.3215  0.4080 -0.7869
   73RES   C10520409   5.984   4.199   2.166  0.2936  0.0070  0.1782
   73RES   H10620410   5.733   3.951   2.373 -1.7218  0.6343  0.8580
   73RES   H10720411   5.703   4.099   2.275  0.1364 -0.1555  1.1880
   73RES   H10820412   5.755   3.842   2.133 -0.8668  0.4686 -0.5055
   73RES   H10920413   5.988   3.954   2.102  1.0577 -0.1192  0.0368
   73RES   H11020414   5.958   3.895   2.264  1.5721  0.4165  0.4581
   73RES   H11120415   5.899   4.227   2.102 -0.7288  0.0837  1.5496
   73RES   H11220416   6.062   4.169   2.096  1.4972  0.5685  1.2768
   73RES   H11320417   6.018   4.287   2.220  1.6203  0.2089 -0.9681
   73RES   O11420418   5.747   4.033   2.041  0.4080 -0.0559 -0.0537
   73RES   C11520419   5.792   3.979   1.919  0.1087  0.3170  0.1281
   73RES   C11620420   5.833   4.083   1.815 -0.0469 -0.2386  0.0923
   73RES   C11720421   5.905   4.024   1.702 -1.0889 -0.0743 -0.2556
   73RES   O11820422   6.002   4.119   1.653  0.1432  0.0389  0.0863
   73RES   C11920423   6.081   4.072   1.545  0.0844 -0.2955  0.4086
   73RES   H12020424   5.876   3.910   1.931  0.7650  1.0578 -0.1901
   73RES   H12120425   5.712   3.918   1.878 -1.8629  0.9343  2.9564
   73RES   H12220426   5.904   4.147   1.869  3.2695 -1.7759 -2.2579
   73RES   H12320427   5.952   3.931   1.733  2.2873  1.5781 -0.2667
   73RES   H12420428   5.831   3.995   1.627 -0.9982  0.6011 -0.6193
   73RES   H12520429   6.160   4.003   1.574  1.2954  0.1214 -1.8241
   73RES   H12620430   6.130   4.155   1.495 -1.1977 -0.6279 -1.4532
   73RES   H12720431   6.016   4.030   1.468 -0.3966  0.1292  0.5835
   73RES   O12820432   5.706   4.151   1.776 -0.5460 -0.3539  0.2787
   73RES   C12920433   5.725   4.289   1.736 -0.1137 -0.4908 -0.0965
   73RES   C13020434   5.584   4.351   1.722 -0.8548 -1.0847  0.6745
   73RES   C13120435   5.591   4.495   1.662  0.0336  0.2701  0.1060
   73RES   O13220436   5.691   4.584   1.721  0.3885 -0.3437 -0.0892
   73RES   C13320437   5.668   4.622   1.855 -0.2186  0.0272 -0.2243
   73RES   H13420438   5.775   4.339   1.819  0.8645  1.5387 -1.8443
   73RES   H13520439   5.784   4.290   1.644  0.5595  0.1509  0.3334
   73RES   H13620440   5.523   4.294   1.651 -1.0916 -1.1371  0.9242
   73RES   H13720441   5.497   4.550   1.659 -0.5494 -0.7065  0.4361
   73RES   H13820442   5.621   4.485   1.557 -1.6696 -0.5055 -0.3187
   73RES   H13920443   5.735   4.707   1.871 -1.1030  0.9486 -1.2784
   73RES   H14020444   5.565   4.645   1.882 -0.5362 -2.0817  0.4430
   73RES   H14120445   5.698   4.549   1.930  3.1662  0.7622 -0.7598
   73RES   O14220446   5.535   4.359   1.850  0.6923 -0.2529 -0.1688
   73RES   C14320447   5.391   4.341   1.867  0.1999 -0.3241 -0.1390
   73RES   C14420448   5.374   4.334   2.018 -0.2774  0.3421  0.6471
   73RES   C14520449   5.228   4.310   2.064 -0.5052 -0.3464  0.0940
   73RES   O14620450   5.213   4.280   2.201 -0.2009 -0.3964  0.2325
   73RES   C14720451   5.091   4.222   2.238 -0.7694  0.0141  0.5747
   73RES   H14820452   5.332   4.427   1.836 -0.5770 -0.2955  1.3678
   73RES   H14920453   5.354   4.255   1.812 -2.3647  0.3256  0.5143
   73RES   H15020454   5.435   4.252   2.055 -0.2937  0.2228  0.4042
   73RES   H15120455   5.200   4.220   2.010  0.3626  0.5734 -1.9229
   73RES   H15220456   5.161   4.387   2.025 -0.4703  0.9486  2.4477
   73RES   H15320457   5.100   4.115   2.220  0.9238  0.1482  0.5852
   73RES   H15420458   5.005   4.266   2.187 -0.6780  0.0653  0.4654
   73RES   H15520459   5.080   4.237   2.346  0.4602 -2.6847  1.1134
   73RES   O15620460   5.411   4.462   2.078  0.6418 -0.1119 -0.0142
   73RES   C15720461   5.487   4.450   2.195  0.0367  0.1418 -0.6848
   73RES   C15820462   5.560   4.580   2.227  0.3727 -0.4652  0.2563
   73RES   C15920463   5.650   4.558   2.351  0.2427 -0.0507  0.4625
   73RES   O16020464   5.781   4.630   2.359 -0.0231 -0.3383 -1.1427
   73RES   C16120465   5.874   4.571   2.281 -0.2089 -0.3525 -0.6675
   73RES   H16220466   5.422   4.421   2.277  0.0400  1.1290 -0.3196
   73RES   H16320467   5.554   4.365   2.182 -0.2137 -0.0474 -0.7480
   73RES   H16420468   5.627   4.589   2.142 -0.1855  0.6800 -0.0807
   73RES   H16520469   5.596   4.594   2.439 -0.7364  1.0060 -0.5531
   73RES   H16620470   5.663   4.451   2.363 -2.2469 -0.7317 -2.3204
   73RES   H16720471   5.878   4.464   2.304 -1.3811  0.0032  1.2551
   73RES   H16820472   5.972   4.609   2.310 -0.4466 -1.1798  1.2989
   73RES   H16920473   5.855   4.572   2.174  1.0078  1.0966 -0.8912
   73RES   O17020474   5.470   4.686   2.249 -0.4035  0.0334  0.4685
   73RES   C17120475   5.525   4.818   2.246  0.1260 -0.0450 -0.9290
   73RES   C17220476   5.402   4.918   2.229  0.4384  0.8476  0.4587
   73RES   C17320477   5.284   4.880   2.322  0.0846 -0.0582 -0.2311
   73RES   O17420478   5.212   4.994   2.364 -0.0366 -0.4483  0.0418
   73RES   C17520479   5.133   5.060   2.265  0.0600 -0.1653  0.8862
   73RES   H17620480   5.600   4.830   2.168 -2.1040  1.8801 -2.8528
   73RES   H17720481   5.570   4.836   2.343 -0.5777 -0.7560 -0.4610
   73RES   H17820482   5.438   5.016   2.261  1.1253  0.0119  2.3212
   73RES   H17920483   5.233   4.794   2.280 -0.8682  0.4212 -0.0664
   73RES   H18020484   5.331   4.843   2.412 -0.0010 -1.1834 -0.6433
   73RES   H18120485   5.093   4.993   2.188  0.8614 -0.5716  0.8117
   73RES   H18220486   5.197   5.121   2.200 -1.2958 -0.7559 -1.0530
   73RES   H18320487   5.052   5.120   2.306 -1.3890 -1.2372 -0.3476
   73RES   O18420488   5.378   4.944   2.092 -0.2936  0.7685 -0.0268
   73RES   C18520489   5.316   4.849   2.004 -0.2757 -0.4106  0.1731
   73RES   C18620490   5.319   4.903   1.859  0.0344 -0.0567  0.0924
   73RES   C18720491   5.291   4.794   1.754 -0.1311 -0.1790  0.1742
   73RES   O18820492   5.238   4.850   1.636  0.0582  0.1728 -0.4738
   73RES   C18920493   5.189   4.760   1.536  0.5208  0.3051  0.5172
   73RES   H19020494   5.209   4.840   2.022  0.2269 -3.1375  2.0999
   73RES   H19120495   5.361   4.750   2.005 -1.6435 -1.0386 -0.0410
   73RES   H19220496   5.250   4.987   1.851  2.2104  1.5638 -2.5968
   73RES   H19320497   5.219   4.716   1.782 -1.1281  0.2672 -1.1113
   73RES   H19420498   5.386   4.742   1.742 -0.1270  0.0013 -0.6113
   73RES   H19520499   5.108   4.704   1.583 -2.1465  3.0913 -0.6305
   73RES   H19620500   5.154   4.825   1.456 -1.9523 -2.1701 -0.5146
   73RES   H19720501   5.274   4.699   1.506 -0.1164  0.0547 -0.8121
   73RES   O19820502   5.451   4.941   1.843 -0.1751 -0.0254 -0.2703
   73RES   C19920503   5.467   5.078   1.822 -0.0469 -0.0168 -0.5625
   73RES   C20020504   5.613   5.106   1.769 -0.2470 -0.3402 -0.4580
   73RES   C20120505   5.651   5.255   1.780  0.4575  0.9144  0.0767
   73RES   O20220506   5.788   5.260   1.756  0.4345  0.4253  0.1918
   73RES   C20320507   5.823   5.387   1.710  0.6435 -0.7272 -0.3929
   73RES   H20420508   5.458   5.129   1.918 -0.6503 -1.7211  0.3056
   73RES   H20520509   5.399   5.117   1.747  0.4983  1.6419 -0.2288
   73RES   H20620510   5.683   5.042   1.822  1.7188  3.2576  1.4941
   73RES   H20720511   5.593   5.310   1.707 -2.2971 -1.1530  0.6294
   73RES   H20820512   5.620   5.289   1.879 -0.9532  1.3774 -0.5107
   73RES   H20920513   5.932   5.387   1.710  0.6541 -1.0388  1.2073
   73RES   H21020514   5.795   5.463   1.783  0.9529 -0.2583 -0.7571
   73RES   H21120515   5.794   5.399   1.606  0.6161  0.2620 -0.2821
   73RES   O21220516   5.619   5.079   1.627  0.4327 -0.1302 -0.4063
   73RES   C21320517   5.593   4.951   1.583  0.2627  0.1735 -0.3080
   73RES   C21420518   5.652   4.925   1.440  0.1828  0.4652 -0.4257
   73RES   C21520519   5.624   4.783   1.386  0.1529 -0.9367 -0.2478
   73RES   O21620520   5.633   4.775   1.241 -0.3160  0.6157 -0.2976
   73RES   C21720521   5.660   4.640   1.208 -0.1592 -1.0245  0.3778
   73RES   H21820522   5.488   4.923   1.580  0.5201 -1.2335  2.1740
   73RES   H21920523   5.646   4.885   1.653 -1.2299  0.8292  1.4769
   73RES   H22020524   5.611   4.996   1.368 -3.0416  1.6907  2.4599
   73RES   H22120525   5.700   4.721   1.435  1.4595  1.0886  0.3594
   73RES   H22220526   5.526   4.758   1.425 -0.7570  1.7922 -0.7287
   73RES   H22320527   5.668   4.645   1.099  1.6780 -0.4629  0.5317
   73RES   H22420528   5.573   4.579   1.233 -0.1658 -1.3767 -0.4920
   73RES   H22520529   5.747   4.595   1.255  0.1565  0.1937  0.9860
   73RES   O22620530   5.792   4.920   1.444 -0.1129 -0.8097  0.1972
   73RES   C22720531   5.860   5.037   1.496 -0.0905 -0.4330  0.3862
   73RES   C22820532   6.015   5.040   1.462 -0.4231 -0.2725 -0.0372
   73RES   C22920533   6.080   5.182   1.468  0.1808  0.0638 -0.3406
   73RES   O23020534   6.175   5.182   1.360 -0.0532 -0.4096 -0.0195
   73RES   C23120535   6.136   5.258   1.254 -0.5306 -0.2309 -0.4619
   73RES   H23220536   5.839   5.064   1.600 -0.9008 -1.0591  0.3892
   73RES   H23320537   5.822   5.118   1.433 -0.8842 -0.8610  0.3084
   73RES   H23420538   6.025   4.995   1.363 -0.4022 -2.2494  0.8451
   73RES   H23520539   6.142   5.200   1.556 -0.9011  0.5982  0.3256
   73RES   H23620540   6.016   5.270   1.462  1.1276  0.7423 -0.6129
   73RES   H23720541   6.106   5.356   1.290 -2.6061 -1.6851  1.8837
   73RES   H23820542   6.052   5.208   1.206 -4.4822  3.4699  2.2367
   73RES   H23920543   6.211   5.272   1.176  1.2756 -3.4893  0.6149
   73RES   O24020544   6.092   4.952   1.553 -0.4004 -0.1398  0.4179
   73RES   C24120545   6.042   4.816   1.560 -0.5462 -0.4848  0.0446
   73RES   C24220546   6.149   4.712   1.608  0.5933  0.0907 -0.0717
   73RES   C24320547   6.091   4.597   1.701 -0.1970  0.1995 -0.7476
   73RES   O24420548   6.169   4.568   1.815 -0.3626  0.3305 -0.5080
   73RES   C24520549   6.121   4.459   1.889  0.1133  0.4922  0.7440
   73RES   H24620550   5.996   4.782   1.467  0.7647  0.4549 -0.9749
   73RES   H24720551   5.964   4.821   1.635 -2.1121 -1.1448 -1.5225
   73RES   H24820552   6.224   4.766   1.666  1.0896  0.2429 -0.8583
   73RES   H24920553   5.990   4.623   1.734  0.3169 -1.0798  2.0429
   73RES   H25020554   6.073   4.505   1.646 -2.5617 -0.6358  1.2936
   73RES   H25120555   6.103   4.376   1.821  4.3302 -0.2621  0.3927
   73RES   H25220556   6.030   4.484   1.944 -0.1994 -1.8126  1.3051
   73RES   H25320557   6.193   4.414   1.958 -0.7310  3.1310  3.4727
   73RES   O25420558   6.197   4.646   1.497  0.5380  0.2780 -0.3456
   73RES   C25520559   6.326   4.685   1.462  0.1117 -0.1406  0.1360
   73RES   C25620560   6.335   4.657   1.312 -0.6636  1.1473 -0.0287
   73RES   C25720561   6.451   4.732   1.246  0.0069  0.8293  0.2694
   73RES   O25820562   6.481   4.688   1.120  0.0724 -0.0009  0.2931
   73RES   C25920563   6.599   4.742   1.066 -0.1316  0.3245 -0.5402
   73RES   H26020564   6.344   4.791   1.482  1.6318 -0.6693  1.7121
   73RES   H26120565   6.392   4.628   1.527 -3.1199 -2.1385  1.8310
   73RES   H26220566   6.241   4.681   1.263 -0.7276  1.9240  0.4785
   73RES   H26320567   6.423   4.836   1.231 -1.3782  0.3397 -0.6388
   73RES   H26420568   6.538   4.744   1.310  0.2494 -1.4999  0.4145
   73RES   H26520569   6.594   4.851   1.061  1.0157  0.4001 -0.1568
   73RES   H26620570   6.619   4.701   0.967 -1.4823  1.1953 -1.1952
   73RES   H26720571   6.683   4.737   1.135 -0.0026 -1.6658 -0.8012
   73RES   O26820572   6.372   4.514   1.284 -0.2133  0.3979  0.5684
   73RES   C26920573   6.312   4.411   1.357  0.4656 -0.2482  0.8594
   73RES   C27020574   6.379   4.276   1.307  0.1544  0.2699 -0.4812
   73RES   C27120575   6.534   4.275   1.329  0.5233  0.0497 -0.0357
   73RES   O27220576   6.589   4.141   1.341  0.2235  0.1185 -0.0082
   73RES   C27320577   6.732   4.139   1.351 -0.8916  0.0784 -0.0969
   73RES   H27420578   6.203   4.411   1.344  0.3128 -0.4480  2.0681
   73RES   H27520579   6.341   4.419   1.462  2.3313  2.3490  0.1980
   73RES   H27620580   6.346   4.187   1.361  1.6296  0.3095  0.5062
   73RES   H27720581   6.537   4.322   1.427 -2.4522  1.1462 -0.4344
   73RES   H27820582   6.588   4.346   1.266 -1.9345  0.6639 -1.5007
   73RES   H27920583   6.755   4.159   1.456  2.8215  0.6561 -0.9326
   73RES   H28020584   6.785   4.209   1.286 -0.3612  0.7991  1.0788
   73RES   H28120585   6.761   4.037   1.327 -0.0747  0.3295 -0.1887
   73RES   H28220586   6.354   4.256   1.203 -1.7116 -0.4185  0.0819
   74RES     O120587   4.473   3.430   3.333  0.1051  0.2055  0.4718
   74RES     C220588   4.364   3.398   3.243 -0.1728 -0.1344 -0.2077
   74RES     C320589   4.392   3.451   3.106 -0.6069  0.2216 -0.0387
   74RES     C420590   4.283   3.406   3.012  1.5859  1.0380 -0.3293
   74RES     O520591   4.313   3.405   2.871 -0.3786 -0.1616  0.5386
   74RES     C620592   4.191   3.443   2.807 -0.7667 -0.2243  0.1707
   74RES     H720593   4.364   3.290   3.237 -0.0725 -0.1478  0.0105
   74RES     H820594   4.270   3.436   3.285  0.6694  0.2922  1.3375
   74RES     H920595   4.491   3.412   3.082 -0.6019 -0.3799  0.9459
   74RES    H1020596   4.189   3.458   3.029  2.8135  4.0537 -2.3050
   74RES    H1120597   4.252   3.307   3.044 -1.3438  1.7133 -0.9887
   74RES    H1220598   4.210   3.440   2.700 -0.1093  0.4763  0.2636
   74RES    H1320599   4.105   3.383   2.836 -1.2014  0.7172  0.8755
   74RES    H1420600   4.182   3.548   2.837 -0.1037 -0.5410  1.5103
   74RES    H1520601   4.508   3.511   3.300  3.1576 -0.5634  1.6699
   74RES    O1620602   4.395   3.591   3.114  0.2071 -0.3246 -0.4403
   74RES    C1720603   4.455   3.655   3.010  0.3784  0.4623  0.5843
   74RES    C1820604   4.495   3.799   3.052 -0.2863  0.1235 -0.1296
   74RES    C1920605   4.576   3.865   2.946 -0.1744  0.2422  0.5697
   74RES    O2020606   4.630   3.989   2.984 -0.3222 -0.1138  0.0783
   74RES    C2120607   4.700   4.051   2.883  0.0238 -0.7243  0.3578
   74RES    H2220608   4.391   3.665   2.923  2.0053 -1.5431 -0.8858
   74RES    H2320609   4.550   3.606   2.988 -0.4159 -1.8031  2.1259
   74RES    H2420610   4.560   3.798   3.140  1.3501  0.6180 -1.2933
   74RES    H2520611   4.658   3.808   2.902 -0.6321  1.8703 -2.5151
   74RES    H2620612   4.510   3.882   2.861  0.8501 -1.2119 -0.5376
   74RES    H2720613   4.807   4.042   2.900 -0.2719 -1.7898  1.7103
   74RES    H2820614   4.668   4.156   2.887  0.7530 -0.4727 -0.2135
   74RES    H2920615   4.673   4.015   2.783 -0.0789  0.2735  0.0173
   74RES    O3020616   4.376   3.881   3.066 -0.7683  0.1626 -0.2097
   74RES    C3120617   4.304   3.885   3.190 -0.3257  0.6426  0.1804
   74RES    C3220618   4.163   3.945   3.158 -0.3512 -0.2047 -0.0664
   74RES    C3320619   4.089   3.991   3.281 -0.2635  0.5050 -0.0440
   74RES    O3420620   3.968   4.060   3.256 -0.0625  0.3404 -0.1621
   74RES    C3520621   3.860   3.999   3.327  0.4551 -0.2478  0.4191
   74RES    H3620622   4.275   3.783   3.218  0.0568 -0.0181 -1.7246
   74RES    H3720623   4.357   3.930   3.274 -2.6515  0.1150  1.9916
   74RES    H3820624   4.186   4.034   3.099 -1.2868 -0.0162 -0.1513
   74RES    H3920625   4.156   4.053   3.340  1.0616  1.6104 -2.6030
   74RES    H4020626   4.085   3.901   3.342 -1.8136  2.4615  2.8339
   74RES    H4120627   3.872   4.006   3.436  3.4455  0.4406  0.1001
   74RES    H4220628   3.843   3.895   3.299 -1.0012  0.1691 -0.2681
   74RES    H4320629   3.765   4.046   3.305  0.2321 -0.5954  0.6212
   74RES    O4420630   4.087   3.857   3.083  0.3163  0.7041 -0.1697
   74RES    C4520631   4.111   3.857   2.943 -0.3025  0.2321 -0.2221
   74RES    C4620632   4.007   3.775   2.865  0.2177  0.0350  0.2754
   74RES    C4720633   3.867   3.843   2.874 -0.1092 -0.0975 -0.3691
   74RES    O4820634   3.777   3.744   2.840  0.3569  0.1956  0.2346
   74RES    C4920635   3.650   3.791   2.812  0.3093  0.4980 -0.2230
   74RES    H5020636   4.212   3.831   2.910 -0.1873 -1.0370  1.0837
   74RES    H5120637   4.104   3.963   2.921  3.0619  0.6703  0.4979
   74RES    H5220638   4.000   3.672   2.900 -4.9146  0.2787  0.3031
   74RES    H5320639   3.836   3.861   2.977 -2.1690 -1.9541 -0.6319
   74RES    H5420640   3.856   3.934   2.815 -0.4236 -0.3321 -0.6722
   74RES    H5520641   3.638   3.817   2.707 -0.6819  2.7587  0.4222
   74RES    H5620642   3.612   3.876   2.868 -1.6516 -0.2701 -0.3589
   74RES    H5720643   3.583   3.707   2.832  0.4231  0.2619 -0.8187
   74RES    O5820644   4.046   3.769   2.728  0.1498  0.1475 -0.0087
   74RES    C5920645   3.961   3.710   2.635 -0.0629  0.3648  0.1122
   74RES    C6020646   4.013   3.709   2.496  0.0604 -0.7185  0.7077
   74RES    C6120647   3.893   3.697   2.390 -0.9862 -0.1498 -0.1292
   74RES    O6220648   3.805   3.598   2.431  0.4873  0.8776 -0.1865
   74RES    C6320649   3.682   3.604   2.371  0.4177 -0.3460  0.0524
   74RES    H6420650   3.872   3.774   2.632  0.9143  1.6667 -2.2341
   74RES    H6520651   3.931   3.609   2.665  1.8753 -1.3057 -3.2549
   74RES    H6620652   4.056   3.808   2.479 -2.8180  0.5146  0.2629
   74RES    H6720653   3.835   3.789   2.395  2.1408  1.7330  3.5630
   74RES    H6820654   3.933   3.681   2.290  1.8673  1.1648  0.7585
   74RES    H6920655   3.632   3.700   2.387  2.7795  0.6682  1.5562
   74RES    H7020656   3.623   3.523   2.414  3.1260 -1.1551  2.4131
   74RES    H7120657   3.694   3.603   2.263 -2.2799  0.6073 -0.3009
   74RES    O7220658   4.104   3.604   2.476  0.4351 -0.1538 -0.1427
   74RES    C7320659   4.217   3.633   2.393  0.4414 -0.6003 -0.4323
   74RES    C7420660   4.248   3.519   2.305  0.3975  0.4657 -0.0057
   74RES    C7520661   4.375   3.542   2.221 -0.0943 -0.2452 -0.6457
   74RES    O7620662   4.471   3.605   2.301  0.0446 -0.0504  0.4595
   74RES    C7720663   4.599   3.606   2.229  0.8963  0.0909 -0.6054
   74RES    H7820664   4.191   3.719   2.331 -0.1796  0.9793  1.9535
   74RES    H7920665   4.300   3.658   2.460 -0.4717  0.1907  0.4349
   74RES    H8020666   4.243   3.434   2.373 -0.9398 -0.5651 -1.3636
   74RES    H8120667   4.356   3.602   2.132 -2.1417 -1.6745 -1.2163
   74RES    H8220668   4.408   3.446   2.182  0.3485  0.0724 -1.0825
   74RES    H8320669   4.679   3.636   2.296 -0.5523  0.1982  1.1283
   74RES    H8420670   4.603   3.682   2.150 -2.2723 -1.4735 -2.3691
   74RES    H8520671   4.633   3.510   2.191  1.1554  1.2808 -3.6071
   74RES    O8620672   4.151   3.505   2.207 -0.1236 -0.0159 -0.3133
   74RES    C8720673   4.071   3.388   2.210 -0.3163  0.2892  0.2129
   74RES    C8820674   4.131   3.267   2.128  0.9622  0.9166  0.1305
   74RES    C8920675   4.168   3.327   1.992 -0.2206  0.1416  0.3261
   74RES    O9020676   4.129   3.228   1.894  0.2938 -0.1558  0.2069
   74RES    C9120677   4.168   3.251   1.757  0.5509  0.2941  0.0214
   74RES    H9220678   4.047   3.349   2.309  0.5805  1.2497  0.8196
   74RES    H9320679   3.978   3.407   2.156 -0.3085  2.2570  0.8549
   74RES    H9420680   4.046   3.199   2.124  0.3774  1.5762  1.1457
   74RES    H9520681   4.119   3.421   1.971 -1.7136 -0.6060  0.4287
   74RES    H9620682   4.274   3.354   1.984 -0.4990  1.1749  0.0656
   74RES    H9720683   4.135   3.165   1.700  0.5295 -1.2218  2.2454
   74RES    H9820684   4.108   3.337   1.725 -2.2470 -2.2623 -1.8760
   74RES    H9920685   4.276   3.258   1.754  0.5552 -0.2985 -1.6085
   74RES   O10020686   4.248   3.221   2.198 -0.6221  0.4727  0.1975
   74RES   C10120687   4.310   3.104   2.134  0.2633  0.1198  0.1321
   74RES   C10220688   4.458   3.101   2.175 -0.5065  0.4701 -1.1215
   74RES   C10320689   4.533   3.007   2.087  0.2278  1.0358  0.1065
   74RES   O10420690   4.533   3.040   1.951  0.1652 -0.8660  0.5988
   74RES   C10520691   4.577   3.172   1.907 -0.1432  0.4156 -0.2032
   74RES   H10620692   4.299   3.115   2.026  1.5642  1.7493  0.1416
   74RES   H10720693   4.253   3.015   2.159 -0.5646  0.5350 -0.2642
   74RES   H10820694   4.492   3.204   2.162 -0.1399  0.7033  1.3786
   74RES   H10920695   4.508   2.901   2.094  1.7543  0.6920  0.6406
   74RES   H11020696   4.634   2.996   2.126 -0.1332  0.5367  0.9092
   74RES   H11120697   4.515   3.240   1.966 -1.6904 -2.1714  1.2662
   74RES   H11220698   4.559   3.182   1.800 -0.8384  1.9846  0.0450
   74RES   H11320699   4.680   3.201   1.929 -0.3044  1.4377 -0.7689
   74RES   O11420700   4.478   3.054   2.307 -0.5627 -0.2585 -0.1031
   74RES   C11520701   4.469   3.149   2.417 -0.6496 -0.1334 -0.0935
   74RES   C11620702   4.571   3.260   2.425 -0.4240 -0.3142 -0.0691
   74RES   C11720703   4.535   3.354   2.550 -0.3954  0.2506 -0.0736
   74RES   O11820704   4.612   3.470   2.550  0.0973  0.0467  0.5191
   74RES   C11920705   4.582   3.560   2.658  0.6847 -0.5292  0.1142
   74RES   H12020706   4.372   3.197   2.405  0.7605  2.7129 -0.6672
   74RES   H12120707   4.461   3.096   2.512 -2.6065  1.1850  0.5133
   74RES   H12220708   4.565   3.321   2.335  0.2643 -0.7526 -0.4179
   74RES   H12320709   4.430   3.380   2.536 -0.3744 -0.0862 -0.8637
   74RES   H12420710   4.538   3.304   2.647  1.1449 -2.0794 -1.2778
   74RES   H12520711   4.482   3.602   2.647  0.3642 -1.7444 -1.7975
   74RES   H12620712   4.640   3.651   2.643 -1.1715  0.8111  0.8645
   74RES   H12720713   4.607   3.513   2.754  0.7439 -0.5399  0.0932
   74RES   O12820714   4.701   3.190   2.433 -0.2950 -0.3108  0.2660
   74RES   C12920715   4.804   3.255   2.366 -0.5139 -0.0935 -0.1448
   74RES   C13020716   4.923   3.158   2.380 -0.2200  0.0859 -0.2418
   74RES   C13120717   5.056   3.229   2.347 -0.0317  0.1140  0.7279
   74RES   O13220718   5.165   3.140   2.367  0.2505 -0.3144  0.0977
   74RES   C13320719   5.296   3.178   2.327  0.1759 -0.0453 -0.2409
   74RES   H13420720   4.795   3.282   2.261  0.4475 -0.3823 -0.3072
   74RES   H13520721   4.834   3.345   2.419  0.4296 -0.3856 -0.1553
   74RES   H13620722   4.920   3.126   2.484  1.6398 -0.6206 -0.3987
   74RES   H13720723   5.071   3.290   2.435 -1.9946  0.1556  1.0689
   74RES   H13820724   5.064   3.274   2.248 -1.9382  0.7933  0.8644
   74RES   H13920725   5.293   3.215   2.225 -2.1069  0.9868  0.1699
   74RES   H14020726   5.334   3.262   2.387  1.0510  0.0986 -0.9908
   74RES   H14120727   5.353   3.091   2.357  0.9221  0.8217  0.9178
   74RES   O14220728   4.907   3.040   2.295  0.1840 -0.2917  0.0975
   74RES   C14320729   4.839   2.939   2.354  0.2455  0.5667 -0.1193
   74RES   C14420730   4.888   2.797   2.300 -0.1217 -0.2474  0.4271
   74RES   C14520731   5.041   2.778   2.300 -0.4868  0.8656 -0.0195
   74RES   O14620732   5.074   2.641   2.312 -0.4607 -0.2062 -0.3668
   74RES   C14720733   5.210   2.630   2.312 -0.1351  0.4574  0.0203
   74RES   H14820734   4.867   2.943   2.460  0.6468 -1.9087 -0.1148
   74RES   H14920735   4.735   2.971   2.353 -0.3777 -1.2959  1.8891
   74RES   H15020736   4.838   2.730   2.370  1.1393 -0.1521  1.4435
   74RES   H15120737   5.078   2.832   2.387  2.5387  2.9279 -2.4750
   74RES   H15220738   5.078   2.821   2.207 -0.9281 -0.5783 -0.8755
   74RES   H15320739   5.257   2.671   2.402  2.2145  4.5459 -2.9026
   74RES   H15420740   5.241   2.681   2.221 -1.7232 -0.5664 -1.1243
   74RES   H15520741   5.240   2.525   2.310  0.2390  0.5542  0.4964
   74RES   O15620742   4.837   2.789   2.169  0.4738  0.3226 -0.4232
   74RES   C15720743   4.846   2.663   2.112  0.2449  0.0153  0.0047
   74RES   C15820744   4.764   2.666   1.989  0.1255  0.3635  0.4494
   74RES   C15920745   4.731   2.517   1.941  0.6353  0.9812  0.7375
   74RES   O16020746   4.621   2.511   1.845  0.6221 -0.2562  1.0481
   74RES   C16120747   4.574   2.383   1.809 -1.1700 -0.0453 -0.0212
   74RES   H16220748   4.951   2.640   2.096  1.6401  3.7848  3.0020
   74RES   H16320749   4.811   2.590   2.185  1.1390 -1.9066 -1.4665
   74RES   H16420750   4.667   2.713   2.001 -0.5914 -0.7253 -0.9439
   74RES   H16520751   4.816   2.452   1.922  0.2092  0.1778  1.5548
   74RES   H16620752   4.697   2.459   2.027  1.3720 -2.1515 -1.0224
   74RES   H16720753   4.659   2.332   1.763 -0.5388  1.5849 -0.6923
   74RES   H16820754   4.487   2.393   1.745 -1.7433 -0.1544  0.7254
   74RES   H16920755   4.553   2.321   1.896  0.4885  0.1982  0.5685
   74RES   O17020756   4.841   2.708   1.884 -0.1687  0.0461  0.5140
   74RES   C17120757   4.852   2.845   1.871 -0.3863  0.3343  0.3354
   74RES   C17220758   4.837   2.878   1.723 -0.8304  0.5015  0.4051
   74RES   C17320759   4.826   3.034   1.695  0.4420 -0.2507  0.1574
   74RES   O17420760   4.848   3.051   1.562  0.5513 -0.4823  0.9573
   74RES   C17520761   4.910   3.179   1.527 -0.0463  0.2111 -0.0688
   74RES   H17620762   4.940   2.884   1.923 -0.2875  2.8941 -1.6345
   74RES   H17720763   4.769   2.894   1.921 -0.4695  0.5381 -0.0038
   74RES   H17820764   4.928   2.842   1.674 -2.3251 -0.7085 -1.5336
   74RES   H17920765   4.729   3.076   1.722  0.1173 -1.2235  0.5568
   74RES   H18020766   4.907   3.086   1.746  0.7835  0.4113 -1.0489
   74RES   H18120767   4.868   3.266   1.578  0.9368  0.3973  0.4395
   74RES   H18220768   4.901   3.196   1.420 -1.0938 -0.3585 -0.0746
   74RES   H18320769   5.016   3.181   1.553  1.1017 -2.5910 -4.0607
   74RES   O18420770   4.713   2.830   1.676  0.2464  0.3417  0.4090
   74RES   C18520771   4.715   2.732   1.576  0.0467 -0.3774 -0.4902
   74RES   C18620772   4.576   2.663   1.554 -1.0303  0.0090  0.4072
   74RES   C18720773   4.596   2.530   1.486  0.3213  0.8059  0.2706
   74RES   O18820774   4.489   2.441   1.490 -0.5624 -0.3322  0.6133
   74RES   C18920775   4.357   2.490   1.488 -0.4582 -0.1274 -0.3406
   74RES   H19020776   4.781   2.653   1.611  0.7833  1.3092  2.0542
   74RES   H19120777   4.765   2.764   1.486 -0.2037  1.9577  0.1658
   74RES   H19220778   4.533   2.651   1.653  2.4971 -3.7491  1.5905
   74RES   H19320779   4.677   2.490   1.548 -0.1370 -1.3885 -0.4998
   74RES   H19420780   4.634   2.543   1.385 -0.2393  0.2823 -0.0149
   74RES   H19520781   4.334   2.559   1.570 -1.2857  0.9427 -1.4631
   74RES   H19620782   4.353   2.552   1.399  0.2478  3.4455  2.0034
   74RES   H19720783   4.286   2.408   1.483  0.1380 -0.6925  0.3197
   74RES   O19820784   4.508   2.742   1.464 -0.2048  0.2996 -0.2065
   74RES   C19920785   4.425   2.845   1.520  0.5475 -0.1818  0.4497
   74RES   C20020786   4.354   2.914   1.400  0.3479 -0.6939 -0.1992
   74RES   C20120787   4.282   3.044   1.435  0.6112 -0.0705 -0.1176
   74RES   O20220788   4.246   3.125   1.324  0.0192  0.7744 -0.0217
   74RES   C20320789   4.127   3.089   1.249 -0.6029 -0.4827  0.4568
   74RES   H20420790   4.482   2.916   1.580  0.1452  0.1276  0.4714
   74RES   H20520791   4.352   2.801   1.587 -0.6334 -1.7395 -1.8022
   74RES   H20620792   4.440   2.941   1.339 -1.3378  0.4424 -2.1269
   74RES   H20720793   4.187   3.031   1.487 -0.6693  1.7752 -1.9012
   74RES   H20820794   4.347   3.097   1.504 -0.6047 -0.2793  1.2129
   74RES   H20920795   4.132   2.988   1.208 -2.8873 -0.3084 -0.3177
   74RES   H21020796   4.104   3.158   1.168 -0.6786 -0.2266  0.6969
   74RES   H21120797   4.049   3.103   1.324 -0.5969  0.1636  0.3392
   74RES   O21220798   4.267   2.824   1.330 -0.0772  0.1251  0.6557
   74RES   C21320799   4.333   2.758   1.221  0.0470  0.2556  0.1496
   74RES   C21420800   4.238   2.637   1.166 -0.1749 -1.1055 -0.4333
   74RES   C21520801   4.317   2.523   1.098  0.8652 -0.4550 -0.4962
   74RES   O21620802   4.238   2.407   1.093 -1.0818 -0.2146  0.1814
   74RES   C21720803   4.305   2.291   1.039 -0.6582 -0.6223  0.0009
   74RES   H21820804   4.437   2.730   1.232 -0.2045 -0.8019 -0.0765
   74RES   H21920805   4.337   2.843   1.153  0.2438  0.4585  0.4165
   74RES   H22020806   4.193   2.594   1.255  0.4439 -0.5378  0.1556
   74RES   H22120807   4.347   2.568   1.004  0.1042  0.9239 -0.0946
   74RES   H22220808   4.410   2.524   1.154  0.4615  3.4076  0.3005
   74RES   H22320809   4.380   2.267   1.114 -0.5852  1.5174  0.6552
   74RES   H22420810   4.347   2.304   0.939 -1.6051 -2.3506 -0.6308
   74RES   H22520811   4.245   2.201   1.032 -0.6394 -0.7953  1.8356
   74RES   O22620812   4.149   2.692   1.066 -0.2605  0.1557 -1.0338
   74RES   C22720813   4.017   2.711   1.117 -0.3722 -0.4820 -0.1887
   74RES   C22820814   3.936   2.806   1.026 -0.7359  0.3767  0.5744
   74RES   C22920815   3.797   2.832   1.078 -0.2081 -0.5689 -0.6391
   74RES   O23020816   3.805   2.891   1.208 -0.1619  0.1351 -0.2641
   74RES   C23120817   3.674   2.920   1.251  0.5511 -0.2345 -0.5811
   74RES   H23220818   4.027   2.763   1.212  0.9320 -0.8328 -0.1217
   74RES   H23320819   3.966   2.615   1.123 -0.2713 -0.4755  0.7045
   74RES   H23420820   3.905   2.764   0.931 -0.1858  0.6029  0.2974
   74RES   H23520821   3.762   2.729   1.084 -1.7790 -0.1058 -1.5744
   74RES   H23620822   3.748   2.902   1.010  0.7830  0.5570 -0.2127
   74RES   H23720823   3.615   2.830   1.268  0.7181 -0.3605 -0.6638
   74RES   H23820824   3.625   2.985   1.179  1.5457  0.7960 -0.3329
   74RES   H23920825   3.674   2.975   1.345 -0.6187 -0.6705 -0.3212
   74RES   O24020826   3.997   2.927   1.007  0.0618  0.2342 -0.6860
   74RES   C24120827   4.073   2.953   0.888  0.4294 -0.1218 -0.1286
   74RES   C24220828   3.989   2.991   0.762  0.5306 -0.0306 -0.0842
   74RES   C24320829   4.061   3.061   0.643  0.2583 -1.2665 -0.1407
   74RES   O24420830   3.961   3.142   0.572 -0.4092 -0.2893 -0.1462
   74RES   C24520831   4.013   3.219   0.467 -0.1667  0.5440 -0.1708
   74RES   H24620832   4.140   2.869   0.869  0.2814  0.0068 -1.2675
   74RES   H24720833   4.136   3.037   0.917 -1.1300  2.1939 -3.2231
   74RES   H24820834   3.916   3.065   0.794 -1.1511 -1.4198 -0.6034
   74RES   H24920835   4.140   3.130   0.676 -2.9392  2.0624  0.8700
   74RES   H25020836   4.098   2.988   0.571  1.7543 -1.0088  0.3494
   74RES   H25120837   4.064   3.156   0.394 -0.0242 -2.6908  2.6176
   74RES   H25220838   4.093   3.289   0.492 -0.2129 -0.7142  3.8442
   74RES   H25320839   3.924   3.262   0.421 -1.3957 -0.6154  1.0792
   74RES   O25420840   3.932   2.872   0.710  0.3115 -0.2484 -0.4754
   74RES   C25520841   3.800   2.888   0.674  0.1129 -0.6482 -0.4915
   74RES   C25620842   3.753   2.752   0.633  0.1005 -0.4993 -0.8578
   74RES   C25720843   3.606   2.729   0.625  0.2680 -0.3948  0.0504
   74RES   O25820844   3.585   2.586   0.606  0.3369 -0.1450  0.2122
   74RES   C25920845   3.460   2.562   0.545  1.0437  0.1146 -0.3824
   74RES   H26020846   3.737   2.921   0.757 -0.1738 -0.5512 -0.7429
   74RES   H26120847   3.793   2.957   0.589  2.3775  1.9329  1.3107
   74RES   H26220848   3.796   2.674   0.696  2.3453  0.0155 -1.7086
   74RES   H26320849   3.547   2.760   0.711 -1.6839  0.3544 -1.5233
   74RES   H26420850   3.562   2.784   0.542  1.8126  3.1179  1.4643
   74RES   H26520851   3.382   2.595   0.615 -1.4463 -2.3826 -1.8800
   74RES   H26620852   3.428   2.461   0.521  0.1592  0.6396 -1.4850
   74RES   H26720853   3.445   2.608   0.448  0.6361 -1.4723 -1.0879
   74RES   O26820854   3.802   2.735   0.493 -0.0295  0.0270 -0.0475
   74RES   C26920855   3.874   2.608   0.475  0.4741  0.5340 -1.5711
   74RES   C27020856   3.871   2.566   0.328 -0.9302  0.0284  0.1660
   74RES   C27120857   3.738   2.505   0.280  0.5717  0.0151  0.4564
   74RES   O27220858   3.739   2.476   0.141 -0.5467 -0.0951  0.3191
   74RES   C27320859   3.626   2.409   0.087 -0.2581  0.5764 -0.3264
   74RES   H27420860   3.829   2.535   0.543  2.1003  0.3052 -0.6907
   74RES   H27520861   3.976   2.628   0.507  0.2121 -0.5319  0.0465
   74RES   H27620862   3.898   2.644   0.256 -0.1167 -0.9538 -0.6019
   74RES   H27720863   3.653   2.566   0.310  0.0182  0.5446 -2.0937
   74RES   H27820864   3.721   2.407   0.323  1.2401 -0.9249 -1.3942
   74RES   H27920865   3.606   2.424   7.798 -0.9145 -0.9634 -0.4299
   74RES   H28020866   3.537   2.420   0.148 -0.1457 -2.9811  0.6077
   74RES   H28120867   3.651   2.303   0.093 -0.8005  0.5526  1.8195
   74RES   H28220868   3.938   2.480   0.322  0.1732  0.8427  0.5093
   75RES     O120869   7.613   2.083   6.318  0.1862 -0.2268  0.6408
   75RES     C220870   7.579   2.217   6.284  0.3670  0.3460  0.0079
   75RES     C320871   7.433   2.227   6.249  0.0914  0.2167 -0.0163
   75RES     C420872   7.356   2.354   6.295  0.2135 -0.7141 -0.3206
   75RES     O520873   7.433   2.477   6.299 -0.7828 -0.6463 -0.1583
   75RES     C620874   7.354   2.588   6.347  0.0287  0.3543  0.6810
   75RES     H720875   7.605   2.275   6.373  0.4247 -0.2534  0.3800
   75RES     H820876   7.637   2.253   6.199 -0.0355 -3.2744 -1.8647
   75RES     H920877   7.380   2.152   6.308  0.4974  0.9190  1.2779
   75RES    H1020878   7.326   2.341   6.399 -0.5127  1.6458 -0.2182
   75RES    H1120879   7.262   2.359   6.241  0.5654 -2.0969 -1.0770
   75RES    H1220880   7.253   2.588   6.306  0.3013 -1.5069 -0.0556
   75RES    H1320881   7.344   2.580   6.456  0.0296  1.6143  0.7833
   75RES    H1420882   7.397   2.687   6.332 -1.1043  0.8304  0.5077
   75RES    H1520883   7.549   2.023   6.282  1.8675 -1.7590  0.1159
   75RES    O1620884   7.398   2.204   6.109  0.0343 -0.6891 -0.4812
   75RES    C1720885   7.435   2.080   6.054  0.5100 -0.3747  0.8058
   75RES    C1820886   7.343   1.974   6.103  0.2417  0.6003 -1.2453
   75RES    C1920887   7.341   1.849   6.010  0.1520  0.1308  0.9722
   75RES    O2020888   7.219   1.777   6.018 -0.1296 -0.1898  0.4020
   75RES    C2120889   7.206   1.686   5.910 -0.0259 -1.0613  0.3580
   75RES    H2220890   7.537   2.043   6.060  0.1211 -1.2519  2.2776
   75RES    H2320891   7.423   2.097   5.947 -0.7510 -3.0522  0.4668
   75RES    H2420892   7.241   2.005   6.125  0.0547 -0.3481 -0.7246
   75RES    H2520893   7.364   1.886   5.910  0.1140  0.5966  1.1332
   75RES    H2620894   7.427   1.783   6.019 -0.3505 -0.2242  3.6066
   75RES    H2720895   7.279   1.605   5.920  0.0004 -1.1011 -0.1355
   75RES    H2820896   7.221   1.724   5.809 -0.9700 -3.2539 -0.6400
   75RES    H2920897   7.108   1.637   5.915 -0.8556  0.5609  0.0274
   75RES    O3020898   7.409   1.931   6.228 -0.0407 -0.6844 -0.7142
   75RES    C3120899   7.315   1.872   6.321  0.2907 -0.0992 -0.0487
   75RES    C3220900   7.391   1.822   6.441  0.5415 -0.6565  0.2014
   75RES    C3320901   7.305   1.716   6.516 -0.8530 -0.1024  0.5363
   75RES    O3420902   7.378   1.646   6.613  0.1170  0.0116  0.3494
   75RES    C3520903   7.319   1.555   6.699 -0.1636 -0.3019  0.0079
   75RES    H3620904   7.232   1.939   6.346 -1.2109 -1.4110 -1.4546
   75RES    H3720905   7.262   1.785   6.283  1.5122 -0.9175  0.0926
   75RES    H3820906   7.483   1.777   6.405  0.1797  0.3854 -2.0818
   75RES    H3920907   7.267   1.636   6.453 -1.1778 -0.9433  1.7972
   75RES    H4020908   7.219   1.763   6.563 -0.1341  0.2526  1.5247
   75RES    H4120909   7.374   1.544   6.793 -1.4795  0.9597  0.9542
   75RES    H4220910   7.305   1.458   6.651  1.6043 -1.3769  1.5819
   75RES    H4320911   7.227   1.608   6.725  0.5494  1.0150 -0.1418
   75RES    O4420912   7.413   1.941   6.515  0.1540  0.1816 -0.0867
   75RES    C4520913   7.512   1.926   6.618  0.2934 -0.8013 -0.1512
   75RES    C4620914   7.516   2.054   6.705  1.1353  0.0610 -0.7139
   75RES    C4720915   7.553   2.176   6.625 -0.5096 -0.1015  0.3060
   75RES    O4820916   7.585   2.281   6.717 -0.3833 -0.1838  0.2983
   75RES    C4920917   7.626   2.407   6.668 -0.2861  0.1480 -0.2199
   75RES    H5020918   7.607   1.908   6.567  0.3812  0.5913 -0.5174
   75RES    H5120919   7.482   1.842   6.680  0.7254 -0.8379  0.0102
   75RES    H5220920   7.578   2.045   6.795 -1.4108  0.5686  1.1404
   75RES    H5320921   7.644   2.170   6.565 -2.0204 -0.4443 -2.0087
   75RES    H5420922   7.471   2.202   6.558 -0.2790 -1.3422 -0.4663
   75RES    H5520923   7.577   2.446   6.579 -2.7802  2.3620  2.0350
   75RES    H5620924   7.725   2.389   6.624  1.0447  0.7136  2.4614
   75RES    H5720925   7.639   2.482   6.746 -4.7866  1.3882 -0.5704
   75RES    O5820926   7.385   2.072   6.757 -0.2370  0.0914  0.2691
   75RES    C5920927   7.329   1.974   6.842  0.7162  0.2513 -0.1410
   75RES    C6020928   7.380   1.988   6.985 -0.7126 -0.1855 -0.4769
   75RES    C6120929   7.421   2.134   7.013  0.0178 -0.1695 -0.8888
   75RES    O6220930   7.448   2.131   7.152 -0.6139 -0.3102 -0.0958
   75RES    C6320931   7.501   2.246   7.215  0.0448  0.4743 -0.0927
   75RES    H6420932   7.339   1.866   6.825 -0.1719  0.2415 -0.6327
   75RES    H6520933   7.220   1.981   6.844  0.7919  1.4618 -0.0388
   75RES    H6620934   7.299   1.960   7.052 -0.5704  1.1499  0.2550
   75RES    H6720935   7.503   2.171   6.951  0.0220  0.6571 -0.4076
   75RES    H6820936   7.330   2.190   6.992 -0.1583  0.6577  1.8404
   75RES    H6920937   7.525   2.230   7.320 -0.0175 -0.6596 -0.2476
   75RES    H7020938   7.419   2.317   7.205 -0.9975 -0.6406  0.4667
   75RES    H7120939   7.583   2.285   7.155 -0.5088 -1.6352 -2.2762
   75RES    O7220940   7.490   1.902   7.007 -0.5342  0.4557  0.7261
   75RES    C7320941   7.481   1.825   7.121 -0.0599  0.3470  0.0780
   75RES    C7420942   7.606   1.738   7.152  0.6315 -0.0070 -0.4324
   75RES    C7520943   7.569   1.653   7.275 -0.3215 -0.0394  0.1586
   75RES    O7620944   7.649   1.537   7.252  0.6300 -0.3010 -0.6519
   75RES    C7720945   7.648   1.442   7.352  0.3743 -0.2195  0.8829
   75RES    H7820946   7.474   1.888   7.209 -1.2905  0.4105 -0.0645
   75RES    H7920947   7.404   1.749   7.115 -0.2036  0.5179 -0.2473
   75RES    H8020948   7.622   1.679   7.061  1.1394 -0.2072 -0.2129
   75RES    H8120949   7.465   1.621   7.284 -0.5483  0.8147  0.5931
   75RES    H8220950   7.602   1.705   7.364 -0.0655  0.8908 -0.4761
   75RES    H8320951   7.716   1.359   7.334  0.1808 -0.4227  1.0920
   75RES    H8420952   7.545   1.408   7.362 -0.3600  1.1347 -1.7226
   75RES    H8520953   7.669   1.474   7.454 -0.0694  1.1863  0.5521
   75RES    O8620954   7.713   1.822   7.180 -0.0934  0.0213 -0.5708
   75RES    C8720955   0.031   1.764   7.171  1.3138 -0.7316  0.3080
   75RES    C8820956   0.115   1.888   7.213  0.9889  0.3481  0.3037
   75RES    C8920957   0.257   1.831   7.249  0.0341  0.5058 -0.2515
   75RES    O9020958   0.336   1.927   7.307  0.4600 -0.2561 -0.3849
   75RES    C9120959   0.468   1.881   7.328  0.3182 -0.3084 -0.2725
   75RES    H9220960   0.038   1.681   7.242 -1.2169 -1.2347  0.0348
   75RES    H9320961   0.062   1.738   7.070 -0.4199  2.6482 -1.1929
   75RES    H9420962   0.083   1.933   7.307  0.1719 -2.1002  1.2314
   75RES    H9520963   0.252   1.759   7.330  0.8243  0.1424 -0.5214
   75RES    H9620964   0.318   1.794   7.167 -0.3486  0.7170 -0.6353
   75RES    H9720965   0.537   1.966   7.337 -1.7381  1.2076  1.8077
   75RES    H9820966   0.468   1.836   7.427  1.4000  2.5061  1.0839
   75RES    H9920967   0.504   1.811   7.253 -0.5280 -0.1915 -0.7917
   75RES   O10020968   0.127   1.972   7.103 -0.2887  0.6241  0.3856
   75RES   C10120969   0.019   2.067   7.097  0.0240 -0.3327  0.2173
   75RES   C10220970   0.051   2.177   6.997 -0.2017 -0.8445 -0.5710
   75RES   C10320971   0.091   2.110   6.863 -0.0818  0.1543  1.1588
   75RES   O10420972   0.111   2.204   6.758 -0.2974  0.0979 -0.2191
   75RES   C10520973   0.130   2.133   6.633  0.1834 -0.1116 -0.0056
   75RES   H10620974   7.809   2.113   7.192 -0.5299 -1.2166  0.4876
   75RES   H10720975   7.747   2.016   7.060 -0.9705  1.2835  0.3404
   75RES   H10820976   7.776   2.234   6.983  1.8076  2.5741 -0.3240
   75RES   H10920977   0.008   2.045   6.835 -0.5925  0.9787  0.7188
   75RES   H11020978   0.169   2.035   6.873 -1.1006 -1.3476 -1.5543
   75RES   H11120979   0.135   2.201   6.549 -0.0827 -0.7537 -0.5431
   75RES   H11220980   0.057   2.058   6.602  1.5963 -1.7813  0.6137
   75RES   H11320981   0.222   2.075   6.643 -0.9709 -2.1503 -0.8357
   75RES   O11420982   0.165   2.246   7.034  0.0103 -0.1765  0.1378
   75RES   C11520983   0.129   2.374   7.095 -0.5775 -0.6095  0.4109
   75RES   C11620984   0.251   2.450   7.139 -0.3133 -0.7304 -0.1300
   75RES   C11720985   0.235   2.602   7.122  0.4466  0.4741  0.2644
   75RES   O11820986   0.360   2.668   7.149  0.6397 -0.0428  0.1737
   75RES   C11920987   0.382   2.721   7.278 -0.4466  0.2647 -0.4043
   75RES   H12020988   0.091   2.429   7.009  0.9358  1.3868  0.9921
   75RES   H12120989   0.054   2.368   7.174 -1.1180  0.5768 -0.0044
   75RES   H12220990   0.328   2.410   7.072  0.0530 -1.2142  0.5827
   75RES   H12320991   0.196   2.614   7.021  2.2059  0.7671 -0.3864
   75RES   H12420992   0.151   2.638   7.182 -0.6785  2.8198 -2.6156
   75RES   H12520993   0.481   2.763   7.297  0.1690 -1.1965 -0.2320
   75RES   H12620994   0.377   2.644   7.356 -0.5360  0.8325  0.1585
   75RES   H12720995   0.308   2.797   7.302  0.2634  0.7507  0.2663
   75RES   O12820996   0.274   2.412   7.275 -0.2696 -0.1530  0.0671
   75RES   C12920997   0.302   2.270   7.291  0.3739  0.3461 -0.2765
   75RES   C13020998   0.399   2.241   7.412 -0.8184 -0.4367  0.5680
   75RES   C13120999   0.348   2.326   7.531 -0.8674  0.5242  0.3063
   75RES   O13221000   0.400   2.274   7.651 -0.3820  0.4442  0.2429
   75RES   C13321001   0.340   2.330   7.767  0.4711 -0.4951 -0.1972
   75RES   H13421002   0.203   2.230   7.309  0.8818 -0.3579  1.0047
   75RES   H13521003   0.342   2.206   7.211  0.6477  0.0185  0.1191
   75RES   H13621004   0.386   2.141   7.454 -0.9438 -0.1752  1.1507
   75RES   H13721005   0.239   2.326   7.522 -0.8118  1.9191 -0.5064
   75RES   H13821006   0.373   2.431   7.515  0.4776  0.3627  1.2798
   75RES   H13921007   0.359   2.257   0.028 -1.1285  0.7012  1.3333
   75RES   H14021008   0.394   2.420   7.798  1.1671 -0.5496 -1.2223
   75RES   H14121009   0.235   2.358   7.764 -0.1255 -2.4862  0.8982
   75RES   O14221010   0.536   2.268   7.367  0.3311  0.4633  0.0254
   75RES   C14321011   0.580   2.400   7.328 -0.4242 -0.7761 -0.5571
   75RES   C14421012   0.716   2.399   7.261 -0.0929 -0.2884 -0.2098
   75RES   C14521013   0.779   2.540   7.260  0.3555  0.2907 -0.6603
   75RES   O14621014   0.826   2.595   7.379 -0.2178 -0.4325 -0.2536
   75RES   C14721015   0.900   2.713   7.352  0.3035 -0.5153  0.1830
   75RES   H14821016   0.505   2.442   7.261  1.6133 -0.5040 -2.7296
   75RES   H14921017   0.575   2.467   7.414  2.1852  0.4567 -1.3130
   75RES   H15021018   0.778   2.333   7.323 -0.3952 -0.4138 -0.0386
   75RES   H15121019   0.713   2.610   7.209 -0.4733  0.0176  0.0366
   75RES   H15221020   0.863   2.530   7.190 -0.0666  0.8585 -1.2492
   75RES   H15321021   0.839   2.785   7.298 -0.9246 -0.4536  1.6004
   75RES   H15421022   0.990   2.698   7.293  1.2979  0.1231  1.5109
   75RES   H15521023   0.920   2.760   7.448 -0.6535 -2.0409  1.1401
   75RES   O15621024   0.697   2.353   7.127  0.8359 -0.0193 -0.5311
   75RES   C15721025   0.677   2.212   7.104 -0.2501 -0.2973  0.5086
   75RES   C15821026   0.565   2.200   7.001  0.1608  0.3110 -0.4204
   75RES   C15921027   0.504   2.056   6.981 -0.1462  0.4678  0.3401
   75RES   O16021028   0.606   1.960   7.006  0.2344 -0.2019  0.4292
   75RES   C16121029   0.572   1.837   6.950  0.0752  0.5818  0.1807
   75RES   H16221030   0.765   2.165   7.059 -1.1089 -0.0127 -1.4895
   75RES   H16321031   0.658   2.157   7.196 -1.5890 -0.6991  0.0030
   75RES   H16421032   0.487   2.265   7.042 -1.2084 -1.2247 -0.5269
   75RES   H16521033   0.419   2.037   7.046 -0.1831 -0.8037 -0.0772
   75RES   H16621034   0.476   2.046   6.877 -0.9693  0.2873  0.5753
   75RES   H16721035   0.539   1.844   6.846  0.6982 -0.6934 -0.1170
   75RES   H16821036   0.490   1.789   7.003  0.4198 -0.6367 -0.3621
   75RES   H16921037   0.660   1.773   6.942 -0.9187 -0.6141 -1.7248
   75RES   O17021038   0.591   2.249   6.869  0.1168 -0.4546 -0.2706
   75RES   C17121039   0.493   2.338   6.811 -0.2569  0.1390 -1.1111
   75RES   C17221040   0.505   2.339   6.661  0.5063  0.3255 -0.1034
   75RES   C17321041   0.384   2.422   6.591 -0.2618  0.5259 -0.1542
   75RES   O17421042   0.404   2.444   6.451  0.0695  0.5242 -0.2060
   75RES   C17521043   0.306   2.511   6.380  0.2919  0.0457  0.0387
   75RES   H17621044   0.497   2.436   6.859  1.9104 -0.6438  0.4103
   75RES   H17721045   0.391   2.311   6.837 -0.2035  2.0166  1.3333
   75RES   H17821046   0.607   2.370   6.639  0.3368  1.0472  0.0988
   75RES   H17921047   0.288   2.373   6.610 -0.1033 -0.3802 -1.5628
   75RES   H18021048   0.390   2.522   6.632  2.7753  0.8665 -1.3169
   75RES   H18121049   0.277   2.603   6.432  1.6195  0.6156 -0.1798
   75RES   H18221050   0.220   2.446   6.388  0.6464 -0.2327  1.8974
   75RES   H18321051   0.340   2.534   6.279 -3.0433  1.1133 -0.9020
   75RES   O18421052   0.493   2.203   6.625  0.1735  0.1654 -0.0491
   75RES   C18521053   0.560   2.158   6.507  0.1478 -0.9362  0.0334
   75RES   C18621054   0.556   2.002   6.477 -0.7486 -0.0254 -0.8603
   75RES   C18721055   0.660   1.934   6.384  0.3139  0.0321 -0.8764
   75RES   O18821056   0.684   2.022   6.270  0.1341 -0.0799  0.2890
   75RES   C18921057   0.606   2.015   6.147 -0.2374  0.3492 -0.0153
   75RES   H19021058   0.667   2.169   6.524  0.0325 -0.4714  0.4466
   75RES   H19121059   0.533   2.224   6.425 -0.5961 -0.4661  0.6542
   75RES   H19221060   0.566   1.956   6.576 -0.0253 -0.9375 -1.3551
   75RES   H19321061   0.632   1.838   6.341  1.9017 -1.4221  1.2289
   75RES   H19421062   0.755   1.920   6.436 -0.4505  0.3660  0.6144
   75RES   H19521063   0.502   2.026   6.180  0.4623  0.9626  2.0824
   75RES   H19621064   0.652   2.103   6.103  1.8114  0.0616  1.4539
   75RES   H19721065   0.617   1.926   6.085  0.2634  1.1162 -1.0270
   75RES   O19821066   0.417   1.974   6.425  0.0727 -0.1211 -0.4775
   75RES   C19921067   0.349   1.875   6.495  0.3040 -0.4787 -0.8414
   75RES   C20021068   0.364   1.731   6.445  0.1159 -0.4083 -0.3824
   75RES   C20121069   0.245   1.649   6.499  0.1936  0.3309  0.3183
   75RES   O20221070   0.218   1.527   6.419  0.1128  0.3237 -0.5782
   75RES   C20321071   0.112   1.443   6.469  0.3775  0.4027 -0.2509
   75RES   H20421072   0.245   1.899   6.473  0.6667  0.0817 -1.9566
   75RES   H20521073   0.350   1.881   6.604 -0.5664 -0.6997 -0.8180
   75RES   H20621074   0.368   1.739   6.337 -0.3611  0.0592 -0.3706
   75RES   H20721075   0.244   1.629   6.606  0.1273 -1.5708 -0.0189
   75RES   H20821076   0.155   1.704   6.475 -0.1617 -0.1554  0.5293
   75RES   H20921077   0.115   1.351   6.410  1.3208 -0.8802  1.7405
   75RES   H21021078   0.017   1.496   6.466 -0.0313  0.2581  4.8311
   75RES   H21121079   0.125   1.416   6.574  0.0291 -1.9490 -0.7832
   75RES   O21221080   0.481   1.677   6.508  0.4284  0.3731 -0.5863
   75RES   C21321081   0.514   1.547   6.467 -0.3017  0.0164 -0.3823
   75RES   C21421082   0.666   1.528   6.486 -0.2770  0.4554  0.4054
   75RES   C21521083   0.719   1.412   6.396 -0.0480 -0.0428 -0.1689
   75RES   O21621084   0.836   1.442   6.322  0.2904  0.2693 -0.5606
   75RES   C21721085   0.883   1.337   6.246 -0.7459  0.6184 -0.0829
   75RES   H21821086   0.507   1.540   6.358 -0.5142  2.7578 -0.5905
   75RES   H21921087   0.449   1.469   6.504 -1.1051  0.8532 -0.0066
   75RES   H22021088   0.721   1.613   6.446 -1.1562  0.9069  0.1304
   75RES   H22121089   0.743   1.326   6.457  0.4996  0.6338  0.5787
   75RES   H22221090   0.643   1.374   6.327 -0.0865  0.4621 -0.4081
   75RES   H22321091   0.894   1.252   6.313  2.5932  1.4734  0.5616
   75RES   H22421092   0.981   1.366   6.208 -1.3403  0.1328 -2.0159
   75RES   H22521093   0.821   1.311   6.161 -1.0738  2.1463 -0.3335
   75RES   O22621094   0.707   1.489   6.617 -0.1129  0.3586 -0.0299
   75RES   C22721095   0.730   1.610   6.693  0.2702 -0.4249  0.2267
   75RES   C22821096   0.862   1.681   6.668 -0.1458  0.0375 -0.2987
   75RES   C22921097   0.867   1.810   6.747  0.0482 -0.0992  0.1592
   75RES   O23021098   0.772   1.904   6.700 -0.5228 -0.7247 -0.1689
   75RES   C23121099   0.793   2.033   6.758  0.1373  0.3832 -0.2987
   75RES   H23221100   0.721   1.583   6.798  2.0614  0.0393  0.5084
   75RES   H23321101   0.656   1.690   6.683  1.4247  0.8022  1.3615
   75RES   H23421102   0.881   1.704   6.563 -1.0915  1.2885 -0.2054
   75RES   H23521103   0.969   1.849   6.738 -0.1206  0.7988  1.9847
   75RES   H23621104   0.850   1.788   6.852  1.5964 -1.0661  0.2291
   75RES   H23721105   0.822   2.031   6.864  1.6315  0.2311 -0.7004
   75RES   H23821106   0.699   2.087   6.746 -1.3742 -1.3855  2.7201
   75RES   H23921107   0.871   2.068   6.691  0.1315  0.8149 -0.0798
   75RES   O24021108   0.954   1.585   6.719  0.0169 -0.3549 -0.2651
   75RES   C24121109   1.028   1.512   6.626  0.3822  0.3136  0.9088
   75RES   C24221110   1.151   1.588   6.582 -0.0288 -0.2236  0.5565
   75RES   C24321111   1.284   1.528   6.645 -0.9473 -0.6203  0.0657
   75RES   O24421112   1.401   1.605   6.632  0.1688 -0.0614 -0.3515
   75RES   C24521113   1.462   1.610   6.503  0.1181  0.6037  0.8557
   75RES   H24621114   0.960   1.485   6.545 -1.2363 -0.0821  2.3657
   75RES   H24721115   1.047   1.409   6.656 -0.4187 -0.5976 -1.5780
   75RES   H24821116   1.147   1.693   6.611 -0.2404  0.6543 -2.4619
   75RES   H24921117   1.260   1.517   6.750  0.7585  0.8015  0.6371
   75RES   H25021118   1.299   1.428   6.605 -0.6107 -0.9106  0.9153
   75RES   H25121119   1.401   1.654   6.424 -1.9985 -0.2500  1.9569
   75RES   H25221120   1.488   1.507   6.479  2.2664  1.0673  1.1271
   75RES   H25321121   1.558   1.659   6.515 -0.0429  0.7255  1.7051
   75RES   O25421122   1.166   1.580   6.438 -0.6688  0.2859  1.0086
   75RES   C25521123   1.098   1.683   6.369 -0.1323 -0.2703  0.7308
   75RES   C25621124   1.122   1.665   6.220  0.1577  0.4020 -0.6457
   75RES   C25721125   1.062   1.790   6.164 -0.8169 -0.1492 -0.2213
   75RES   O25821126   1.058   1.784   6.027 -0.0823 -0.0486  0.0389
   75RES   C25921127   0.981   1.886   5.967  0.7727 -0.0880  0.9697
   75RES   H26021128   0.990   1.678   6.385 -0.3552 -2.0798 -1.0184
   75RES   H26121129   1.145   1.775   6.403  1.5216 -0.2495 -1.5269
   75RES   H26221130   1.071   1.574   6.186  0.9496  0.0223 -0.8144
   75RES   H26321131   0.956   1.789   6.191 -0.9457 -3.3719 -0.6296
   75RES   H26421132   1.107   1.880   6.204 -0.5602 -1.5265  2.6714
   75RES   H26521133   0.963   1.893   5.859 -0.5268  4.2237  1.3802
   75RES   H26621134   1.016   1.989   5.980 -2.3251  1.2382 -0.6838
   75RES   H26721135   0.879   1.887   6.004  0.0610  2.6449 -0.8540
   75RES   O26821136   1.272   1.661   6.203  0.3229  0.5596 -0.0107
   75RES   C26921137   1.318   1.615   6.082  0.2828 -0.2787 -0.5021
   75RES   C27021138   1.466   1.568   6.107  0.3061  0.4733  0.8292
   75RES   C27121139   1.536   1.508   5.979 -0.3149 -0.6544 -0.0744
   75RES   O27221140   1.673   1.498   6.017 -0.5861 -0.0099  0.0614
   75RES   C27321141   1.751   1.472   5.907  0.4331 -0.8105 -0.6279
   75RES   H27421142   1.314   1.689   6.002 -0.7101 -1.3901 -1.4933
   75RES   H27521143   1.258   1.534   6.041 -1.1636  0.2740  0.4662
   75RES   H27621144   1.526   1.656   6.131  3.1282 -1.6298  1.7609
   75RES   H27721145   1.521   1.568   5.889  0.2264 -0.1127  0.1939
   75RES   H27821146   1.499   1.408   5.957 -2.3306 -0.0635  0.5763
   75RES   H27921147   1.856   1.495   5.927  0.4113  0.1416 -1.5271
   75RES   H28021148   1.720   1.520   5.814  1.8409 -0.0944 -0.7548
   75RES   H28121149   1.744   1.366   5.885  1.8334 -0.8893 -0.7617
   75RES   H28221150   1.475   1.492   6.184 -0.5495 -0.7732 -0.2675
   76RES     O121151   2.541   5.735   7.755 -1.0535 -0.1788  0.4958
   76RES     C221152   2.643   5.704   0.034 -0.3233 -0.1105  0.0013
   76RES     C321153   2.569   5.670   0.161 -0.3744  0.6661  0.8560
   76RES     C421154   2.663   5.606   0.260  0.5008  0.0492  0.1831
   76RES     O521155   2.791   5.661   0.279  0.5085 -0.3057 -0.4335
   76RES     C621156   2.782   5.796   0.330  0.1154 -0.0576  0.1022
   76RES     H721157   2.683   5.605   0.010 -1.8495 -0.9051  0.6536
   76RES     H821158   2.716   5.783   0.048 -0.1276  0.1972 -2.4103
   76RES     H921159   2.495   5.596   0.132 -0.1934  0.9309 -0.3309
   76RES    H1021160   2.688   5.510   0.216  1.6133  0.1054  0.6605
   76RES    H1121161   2.616   5.593   0.358 -0.6152  1.1891 -0.1837
   76RES    H1221162   2.736   5.855   0.251  2.0062  1.1620 -0.1193
   76RES    H1321163   2.721   5.797   0.421  0.1996  1.0291  0.1591
   76RES    H1421164   2.879   5.839   0.356  0.7207 -1.1366 -0.3411
   76RES    H1521165   2.507   5.817   7.787 -1.7470 -0.6441  0.9674
   76RES    O1621166   2.507   5.785   0.210  0.2253 -0.1360 -0.4336
   76RES    C1721167   2.411   5.753   0.308  0.0462 -0.7227  0.4363
   76RES    C1821168   2.315   5.872   0.322 -0.4685  0.7881 -0.0683
   76RES    C1921169   2.182   5.839   0.402  0.4623 -0.3676 -0.3191
   76RES    O2021170   2.092   5.943   0.383  0.3577 -0.2138  0.1457
   76RES    C2121171   1.985   5.935   0.478  0.1092 -0.2213  0.0720
   76RES    H2221172   2.456   5.737   0.405  0.8768  1.5434  0.4758
   76RES    H2321173   2.367   5.654   0.297  1.0642 -1.2015  0.6796
   76RES    H2421174   2.293   5.888   0.216 -1.6146 -2.4071 -0.3800
   76RES    H2521175   2.135   5.745   0.372 -1.6829  0.1387  1.3120
   76RES    H2621176   2.201   5.817   0.507 -1.0011 -0.2596 -0.0156
   76RES    H2721177   1.954   5.831   0.492 -1.0303  0.6606  5.1078
   76RES    H2821178   1.889   5.983   0.463 -0.1277 -0.6056  0.3478
   76RES    H2921179   2.016   5.963   0.578  0.1524 -2.6118  0.7737
   76RES    O3021180   2.391   5.977   0.378  0.4324 -0.2743 -0.9627
   76RES    C3121181   2.333   6.111   0.398  0.0162 -0.2875 -0.0365
   76RES    C3221182   2.447   6.214   0.426  0.2096 -0.9177  0.5786
   76RES    C3321183   2.387   6.337   0.484 -0.5235  0.1666  1.3049
   76RES    O3421184   2.326   6.313   0.610  0.3694 -0.2251  0.0582
   76RES    C3521185   2.270   6.433   0.669 -0.6778  0.4057 -0.6512
   76RES    H3621186   2.269   6.136   0.314 -0.4626 -0.6721  0.2068
   76RES    H3721187   2.265   6.101   0.483 -0.4319  0.8941 -0.2435
   76RES    H3821188   2.515   6.184   0.506  1.3739 -2.2344 -0.8716
   76RES    H3921189   2.323   6.379   0.406 -0.2618 -0.3972  0.7751
   76RES    H4021190   2.479   6.396   0.491  0.7358 -1.8318  2.0063
   76RES    H4121191   2.169   6.457   0.635 -1.7637 -0.9974  1.4588
   76RES    H4221192   2.322   6.525   0.645  1.8977 -0.5958  0.8636
   76RES    H4321193   2.270   6.410   0.776 -1.7229 -0.7058 -0.8678
   76RES    O4421194   2.515   6.233   0.300  0.5508 -0.3925 -0.0949
   76RES    C4521195   2.638   6.154   0.297 -0.4115  0.0502 -0.7102
   76RES    C4621196   2.750   6.229   0.366 -0.9909 -0.0209 -0.3598
   76RES    C4721197   2.879   6.176   0.299  0.1669 -0.5067 -0.7343
   76RES    O4821198   2.991   6.217   0.374  0.9538 -0.1826 -0.1179
   76RES    C4921199   3.113   6.182   0.315 -0.0022  0.0622 -0.2739
   76RES    H5021200   2.660   6.140   0.191  0.2229 -0.3582 -0.5233
   76RES    H5121201   2.627   6.049   0.322  0.5121  0.5252  1.7880
   76RES    H5221202   2.747   6.220   0.475 -0.3694  0.4861 -0.2967
   76RES    H5321203   2.870   6.068   0.290 -0.1568 -0.4664 -0.9204
   76RES    H5421204   2.896   6.223   0.203 -0.0654 -0.5484 -0.7974
   76RES    H5521205   3.122   6.247   0.228  1.2493 -1.8916 -1.6417
   76RES    H5621206   3.130   6.076   0.295 -0.3013 -0.7213  3.2879
   76RES    H5721207   3.188   6.206   0.390 -0.3369  1.2662 -0.3249
   76RES    O5821208   2.750   6.371   0.341  0.1145  0.6069  0.0383
   76RES    C5921209   2.791   6.465   0.443  0.3383  0.6509 -0.5025
   76RES    C6021210   2.794   6.609   0.386 -0.6278  0.1647  0.0304
   76RES    C6121211   2.884   6.698   0.476 -0.4904  0.2406 -0.1147
   76RES    O6221212   2.833   6.713   0.608  0.0323 -0.1062  0.1601
   76RES    C6321213   2.885   6.832   0.669 -0.3788  0.5377 -0.2606
   76RES    H6421214   2.889   6.427   0.473 -0.0986 -1.4442 -1.5993
   76RES    H6521215   2.729   6.461   0.532  0.7870  3.0572 -0.0601
   76RES    H6621216   2.819   6.603   0.280  0.3366  0.7771  0.2225
   76RES    H6721217   2.986   6.659   0.479 -0.4492  0.4244  0.8292
   76RES    H6821218   2.887   6.793   0.421  0.4687  0.2837 -0.0107
   76RES    H6921219   2.860   6.923   0.614  0.7920  1.7289  1.1240
   76RES    H7021220   2.993   6.829   0.657 -0.3759 -2.7208  0.0861
   76RES    H7121221   2.861   6.838   0.775 -1.2733  1.0721 -0.4844
   76RES    O7221222   2.665   6.667   0.388  0.4373  0.2396 -0.0569
   76RES    C7321223   2.575   6.637   0.278 -0.1419  0.4231 -0.5219
   76RES    C7421224   2.433   6.671   0.325 -0.4885  0.3033 -0.5649
   76RES    C7521225   2.319   6.638   0.229 -0.3676  0.3208  0.3572
   76RES    O7621226   2.194   6.664   0.291 -0.8721  0.5023  0.1632
   76RES    C7721227   2.084   6.666   0.201 -0.0170 -0.6764  0.5219
   76RES    H7821228   2.600   6.704   0.196  0.2655 -1.4433 -1.9483
   76RES    H7921229   2.585   6.537   0.236  3.1792  0.7204 -0.5539
   76RES    H8021230   2.421   6.612   0.416 -0.5036  0.6913 -0.3142
   76RES    H8121231   2.322   6.539   0.185 -0.0428  1.5470 -2.4376
   76RES    H8221232   2.344   6.709   0.150 -0.6173 -0.8237 -0.7535
   76RES    H8321233   2.093   6.765   0.155  1.5984 -1.6226 -1.2955
   76RES    H8421234   1.988   6.648   0.249  0.1659  0.5379  1.3635
   76RES    H8521235   2.107   6.584   0.133  0.8298  0.3019 -0.3861
   76RES    O8621236   2.408   6.807   0.353  0.4696 -0.2326 -0.5885
   76RES    C8721237   2.445   6.853   0.480  0.2765 -0.3624 -1.1812
   76RES    C8821238   2.424   7.005   0.492 -0.7314  0.3861  0.3072
   76RES    C8921239   2.434   7.044   0.638 -0.5850  0.7876  0.3006
   76RES    O9021240   2.442   7.182   0.664  0.0389  0.2233 -0.0008
   76RES    C9121241   2.436   7.200   0.799 -0.0093 -0.7190  0.3171
   76RES    H9221242   2.366   6.805   0.538 -1.5073  1.0571 -2.3719
   76RES    H9321243   2.542   6.820   0.519  0.3919  2.1363  0.7453
   76RES    H9421244   2.319   7.020   0.465 -1.1260  2.2514  2.7200
   76RES    H9521245   2.353   6.994   0.690 -1.0512  0.7850 -0.4168
   76RES    H9621246   2.525   7.001   0.679 -0.0920  0.9856 -0.5552
   76RES    H9721247   2.457   7.303   0.829 -2.1775 -0.0468 -0.4334
   76RES    H9821248   2.349   7.163   0.854  0.0105 -0.0611  0.7932
   76RES    H9921249   2.517   7.145   0.848  1.7923  1.3035 -0.3296
   76RES   O10021250   2.516   7.073   0.409 -0.0843  0.1556  0.3707
   76RES   C10121251   2.642   7.116   0.459  0.2150  0.6764  0.2805
   76RES   C10221252   2.721   7.138   0.329  0.0786  0.4546 -0.3172
   76RES   C10321253   2.790   7.008   0.269  0.0121 -0.8307 -0.1532
   76RES   O10421254   2.840   7.017   0.138  0.4408  0.1589 -0.5958
   76RES   C10521255   2.869   6.884   0.091  0.3660  0.5172  0.2397
   76RES   H10621256   2.698   7.047   0.521  0.9948 -0.4117 -1.6129
   76RES   H10721257   2.621   7.208   0.515  1.0493  0.8701  0.2716
   76RES   H10821258   2.661   7.163   0.242  2.3342 -1.3137 -2.4501
   76RES   H10921259   2.711   6.933   0.267 -0.2501 -0.5501 -1.8331
   76RES   H11021260   2.873   6.975   0.331  1.0904  3.0984  0.6638
   76RES   H11121261   2.940   6.891   0.009  1.0692 -0.6310  0.7368
   76RES   H11221262   2.774   6.845   0.054  0.4738  0.3789  0.1093
   76RES   H11321263   2.901   6.814   0.169  0.5292 -1.0977 -1.2435
   76RES   O11421264   2.813   7.235   0.366 -0.3303  0.1781  0.0679
   76RES   C11521265   2.862   7.307   0.247 -0.1745  0.1720 -0.2489
   76RES   C11621266   2.919   7.447   0.294 -0.5082 -0.3943 -0.5511
   76RES   C11721267   2.963   7.531   0.175 -0.0331 -0.2032  0.0603
   76RES   O11821268   3.028   7.647   0.228  0.5396  0.1109  0.1937
   76RES   C11921269   3.049   7.749   0.134 -0.1081  0.6726  0.2938
   76RES   H12021270   2.935   7.247   0.194 -1.9749 -1.4089 -0.9762
   76RES   H12121271   2.784   7.332   0.175 -1.4891 -1.9820  0.3987
   76RES   H12221272   3.003   7.435   0.362 -0.6122  0.8024 -0.2039
   76RES   H12321273   3.041   7.485   0.114  0.0908  1.2850 -0.9221
   76RES   H12421274   2.878   7.561   0.114 -0.7671  0.7951  1.5257
   76RES   H12521275   3.100   0.018   0.177  1.2529  0.3241 -0.5676
   76RES   H12621276   2.956   7.784   0.089 -0.2621 -1.2565 -0.9634
   76RES   H12721277   3.123   7.716   0.061 -0.3517 -0.2316  0.4419
   76RES   O12821278   2.813   7.516   0.347  0.3733  0.2963  0.5832
   76RES   C12921279   2.807   7.514   0.495 -0.2864 -0.2663 -0.9303
   76RES   C13021280   2.711   7.619   0.571  0.6559  0.0362  0.5299
   76RES   C13121281   2.742   7.764   0.528 -0.1710 -0.3496 -0.3459
   76RES   O13221282   2.874   7.787   0.572  0.4849  0.1074 -0.8123
   76RES   C13321283   2.926   0.099   0.527 -0.7080  0.1283 -0.2029
   76RES   H13421284   2.790   7.411   0.525 -0.3977  0.2481  0.7860
   76RES   H13521285   2.909   7.531   0.529 -0.6284 -0.1635  0.0490
   76RES   H13621286   2.611   7.588   0.540  1.0092 -0.9212  0.3341
   76RES   H13721287   2.673   0.019   0.572  0.8134  0.1624  0.3667
   76RES   H13821288   2.730   7.759   0.420  1.5347 -2.1891 -0.4801
   76RES   H13921289   2.852   0.173   0.558  0.0256  0.3045  1.1886
   76RES   H14021290   3.019   0.115   0.582  0.9980 -3.1007 -1.9797
   76RES   H14121291   2.940   0.096   0.419 -2.6624  3.4342 -0.6390
   76RES   O14221292   2.719   7.610   0.708  0.3668  0.5983  0.0083
   76RES   C14321293   2.611   7.666   0.784 -0.2650  0.2190 -0.4370
   76RES   C14421294   2.637   7.642   0.935  0.7899 -0.7734  0.4860
   76RES   C14521295   2.504   7.644   1.015  0.1013  0.2577  0.1920
   76RES   O14621296   2.530   7.626   1.151  0.0224 -0.0514 -0.3614
   76RES   C14721297   2.415   7.608   1.227 -0.2365 -0.3723 -0.3444
   76RES   H14821298   2.587   7.772   0.777  2.4021  0.8502 -0.4681
   76RES   H14921299   2.517   7.622   0.752 -0.8468  2.1906 -1.4867
   76RES   H15021300   2.682   7.543   0.939  1.3620 -0.4930  1.2958
   76RES   H15121301   2.433   7.566   0.990 -0.8267  1.3444 -0.5904
   76RES   H15221302   2.453   7.740   1.012  1.7732  1.1755  0.5271
   76RES   H15321303   2.430   7.558   1.322 -0.3010 -0.5959 -0.4523
   76RES   H15421304   2.337   7.552   1.177 -0.5616 -1.0755  0.9452
   76RES   H15521305   2.360   7.698   1.256  1.1031 -0.4948  2.8078
   76RES   O15621306   2.735   7.741   0.980  0.2741 -0.1366  0.1176
   76RES   C15721307   2.865   7.731   0.918 -0.6867  0.3078 -0.7237
   76RES   C15821308   2.981   7.807   0.992  0.1678  0.2010 -0.0571
   76RES   C15921309   3.122   7.769   0.940  0.5846 -0.0330  0.6770
   76RES   O16021310   3.212   0.057   0.921 -0.1082 -0.2872 -0.1697
   76RES   C16121311   3.268   0.111   1.039  0.4916  0.8833 -0.3386
   76RES   H16221312   2.900   7.630   0.898 -1.8135 -0.2339  0.0068
   76RES   H16321313   2.853   7.773   0.819  0.1481 -1.2383 -1.5076
   76RES   H16421314   2.970   0.097   0.975 -0.2830 -0.3139 -3.3622
   76RES   H16521315   3.162   7.697   1.013  2.0440  1.0953  1.0228
   76RES   H16621316   3.111   7.719   0.844 -1.9406  2.4999 -0.4217
   76RES   H16721317   3.200   0.150   1.115 -0.0515 -0.1386 -0.3079
   76RES   H16821318   3.322   0.199   1.003  1.3872 -0.1943 -1.6707
   76RES   H16921319   3.341   0.040   1.078 -0.2715 -0.4926 -1.3852
   76RES   O17021320   2.979   7.780   1.132 -0.2716  0.1876  0.0575
   76RES   C17121321   2.872   0.023   1.207  0.1272  0.2261  0.1383
   76RES   C17221322   2.891   0.016   1.355  0.9585 -0.5914 -0.2441
   76RES   C17321323   2.997   0.117   1.399 -0.1940 -0.3195  0.4590
   76RES   O17421324   2.945   0.246   1.411  0.0646  0.0478  0.3582
   76RES   C17521325   3.033   0.345   1.450 -0.4496 -0.4427 -0.2802
   76RES   H17621326   2.771   7.807   1.184  0.5280 -2.2518  1.6721
   76RES   H17721327   2.888   0.128   1.185  2.5947 -0.1847 -0.2155
   76RES   H17821328   2.797   0.049   1.399  1.1130  1.0563 -1.1192
   76RES   H17921329   3.032   0.088   1.498 -2.7613  0.3595  1.6272
   76RES   H18021330   3.084   0.111   1.334 -0.7923  1.5478 -0.5288
   76RES   H18121331   3.114   0.354   1.377  1.1175  0.5979  1.5376
   76RES   H18221332   3.071   0.318   1.549 -0.1403 -1.2411 -0.6129
   76RES   H18321333   2.988   0.443   1.462  0.9942  0.2239 -0.1877
   76RES   O18421334   2.923   7.704   1.402  0.2421 -0.2559 -0.0833
   76RES   C18521335   2.811   7.621   1.387 -0.4714 -0.1503 -0.0079
   76RES   C18621336   2.818   7.516   1.505 -0.8344 -0.0207  0.0772
   76RES   C18721337   2.699   7.414   1.493  0.1983 -0.3556 -0.2002
   76RES   O18821338   2.692   7.314   1.597 -0.2013 -0.0574 -0.3416
   76RES   C18921339   2.779   7.206   1.559 -0.5129 -0.3052  0.2954
   76RES   H19021340   2.807   7.571   1.290  0.7960  0.2832 -0.2956
   76RES   H19121341   2.720   7.681   1.392  0.6899  1.6605 -0.1429
   76RES   H19221342   2.913   7.465   1.489 -0.4688 -0.1753  2.5618
   76RES   H19321343   2.696   7.369   1.394 -0.1057 -2.2227  0.6421
   76RES   H19421344   2.604   7.466   1.507  0.1168 -0.4095 -0.5398
   76RES   H19521345   2.785   7.124   1.631 -2.3882 -0.9742 -0.2725
   76RES   H19621346   2.746   7.171   1.461  0.1221  0.7345 -0.2965
   76RES   H19721347   2.877   7.251   1.545  0.1256 -1.4328  1.0189
   76RES   O19821348   2.817   7.581   1.628  0.2869 -1.0779 -0.5862
   76RES   C19921349   2.878   7.513   1.740 -0.2432 -0.3294  0.0543
   76RES   C20021350   2.875   7.602   1.859  0.2473  0.1894  0.4321
   76RES   C20121351   2.741   7.642   1.912  0.5560  0.0546  0.5074
   76RES   O20221352   2.750   7.730   2.027 -1.0780 -0.3813 -0.5166
   76RES   C20321353   2.627   7.759   2.087 -1.1367  0.4024 -0.0526
   76RES   H20421354   2.977   7.469   1.729  0.4252  0.9310  0.8843
   76RES   H20521355   2.810   7.432   1.766  1.3636 -1.8014 -0.2313
   76RES   H20621356   2.925   7.549   1.941 -1.0200  1.2143  1.9035
   76RES   H20721357   2.684   7.697   1.837 -1.5681  0.5238  2.3983
   76RES   H20821358   2.686   7.554   1.946  0.1132  0.3991  0.6869
   76RES   H20921359   2.632   0.004   2.177 -1.8251 -0.1309  0.3558
   76RES   H21021360   2.580   7.665   2.116 -0.9240  0.8751  1.9155
   76RES   H21121361   2.552   7.811   2.028 -1.6844 -0.8035 -0.4291
   76RES   O21221362   2.955   7.717   1.845  0.6646  0.1287  0.6624
   76RES   C21321363   3.091   7.699   1.870 -0.0381  0.3314  0.9778
   76RES   C21421364   3.150   0.019   1.838 -0.3362 -0.8583  0.1364
   76RES   C21521365   3.299   0.004   1.779  0.5323 -0.2231  0.1675
   76RES   O21621366   3.348   0.107   1.697  0.0363  0.1229 -0.0463
   76RES   C21721367   3.324   0.244   1.744  0.9503 -0.3853  0.4539
   76RES   H21821368   3.126   7.629   1.794  0.7919  1.4892  0.2887
   76RES   H21921369   3.125   7.667   1.969  0.4576  0.1235  0.7416
   76RES   H22021370   3.089   0.067   1.762  0.6237  2.3387  1.3215
   76RES   H22121371   3.360   0.006   1.869 -0.8749  0.6512  1.1016
   76RES   H22221372   3.323   7.730   1.723 -0.6320 -1.1144  1.1087
   76RES   H22321373   3.220   0.275   1.757  1.3283 -0.0279  2.9007
   76RES   H22421374   3.367   0.307   1.665  0.3954  0.0355  0.4851
   76RES   H22521375   3.380   0.268   1.835 -2.5105  1.1613  2.2589
   76RES   O22621376   3.160   0.101   1.961 -0.2488  0.5404  0.2556
   76RES   C22721377   3.043   0.122   2.033 -0.3901  0.2213 -0.7551
   76RES   C22821378   3.031   0.260   2.096  0.5648  0.3604  0.4361
   76RES   C22921379   3.154   0.303   2.176 -0.0078  0.0207  0.3779
   76RES   O23021380   3.134   0.426   2.260  0.4029 -0.2750 -0.0946
   76RES   C23121381   3.257   0.464   2.322  0.2131  0.0259  0.7622
   76RES   H23221382   3.010   0.049   2.107  1.0514 -0.8918 -1.1823
   76RES   H23321383   2.969   0.127   1.954 -1.6272  3.6134  0.5381
   76RES   H23421384   2.946   0.247   2.163 -1.0084 -1.6605 -1.8794
   76RES   H23521385   3.249   0.309   2.122 -0.5180 -1.2807 -0.6901
   76RES   H23621386   3.158   0.210   2.233  1.6496 -0.5090 -0.5772
   76RES   H23721387   3.241   0.522   2.412 -1.4829  0.4091  0.2451
   76RES   H23821388   3.315   0.512   2.243 -1.6873 -0.3149 -0.9037
   76RES   H23921389   3.303   0.372   2.358 -1.8174 -0.9957  0.8622
   76RES   O24021390   2.994   0.358   1.993  0.5807  0.1730 -0.4636
   76RES   C24121391   2.897   0.449   2.030  0.2857  0.6713  0.9359
   76RES   C24221392   2.891   0.540   1.909 -0.3712  0.1060  0.7420
   76RES   C24321393   2.760   0.634   1.905 -0.5702  0.5431 -0.0346
   76RES   O24421394   2.696   0.642   1.780  0.6102  0.6013 -0.4572
   76RES   C24521395   2.766   0.715   1.682 -0.1434 -0.2863 -0.1805
   76RES   H24621396   2.931   0.516   2.110 -2.0509  2.2779  0.6558
   76RES   H24721397   2.792   0.423   2.045 -0.0870  2.7850  2.2747
   76RES   H24821398   2.889   0.482   1.817  3.4599 -1.1945  1.3740
   76RES   H24921399   2.688   0.620   1.985  1.3763  0.6260  1.7832
   76RES   H25021400   2.792   0.736   1.922  0.5141  0.1735  0.2281
   76RES   H25121401   2.717   0.726   1.585  0.8423  2.2119 -0.4400
   76RES   H25221402   2.864   0.672   1.663  1.0206  0.2575  4.1693
   76RES   H25321403   2.783   0.816   1.721 -0.9218 -0.7372  1.3446
   76RES   O25421404   3.004   0.625   1.895 -0.3927  0.2067 -0.0570
   76RES   C25521405   3.120   0.564   1.838  0.0896  0.0690  0.0871
   76RES   C25621406   3.193   0.675   1.763  0.4692  0.6056 -0.5555
   76RES   C25721407   3.336   0.635   1.730 -0.4220 -0.3594 -0.3351
   76RES   O25821408   3.417   0.750   1.718 -0.4435  0.1100 -0.3510
   76RES   C25921409   3.551   0.713   1.704  0.7936 -0.3958 -0.4000
   76RES   H26021410   3.171   0.505   1.915 -1.7190  0.2274  1.4548
   76RES   H26121411   3.090   0.498   1.756  0.2991 -0.0791  0.1296
   76RES   H26221412   3.196   0.760   1.832 -1.8985 -0.3821  0.8077
   76RES   H26321413   3.360   0.582   1.822  0.1164  0.2704 -0.1110
   76RES   H26421414   3.337   0.571   1.642 -3.5519 -0.8948 -0.0503
   76RES   H26521415   3.587   0.696   1.805  1.6088  0.1423 -0.5909
   76RES   H26621416   3.618   0.787   1.661  0.9349  0.8066  1.8579
   76RES   H26721417   3.570   0.625   1.641  0.3464  0.8098 -2.2524
   76RES   O26821418   3.131   0.711   1.639  0.0287  0.1516 -0.9303
   76RES   C26921419   3.098   0.849   1.635  0.2212 -0.1632  0.7287
   76RES   C27021420   3.012   0.890   1.508 -0.0701 -0.1491  0.0772
   76RES   C27121421   3.073   0.872   1.366  0.0598  0.1667  0.5984
   76RES   O27221422   2.973   0.870   1.267 -0.1693  0.2922  0.7459
   76RES   C27321423   3.026   0.864   1.136 -1.0220  0.2883  1.0519
   76RES   H27421424   3.192   0.904   1.637  0.7384 -0.9361 -1.2504
   76RES   H27521425   3.045   0.873   1.727 -0.2104 -2.6120  1.1729
   76RES   H27621426   2.927   0.822   1.505 -0.1068 -0.1202  0.4707
   76RES   H27721427   3.127   0.778   1.371 -2.0634 -1.0269  1.7117
   76RES   H27821428   3.152   0.948   1.360  1.2655 -0.9792  1.5164
   76RES   H27921429   3.101   0.785   1.130 -1.4228  0.1013 -3.1573
   76RES   H28021430   3.086   0.951   1.106  0.5528 -1.6607 -1.6275
   76RES   H28121431   2.945   0.844   1.066  0.6603 -0.5524 -0.7074
   76RES   H28221432   2.970   0.990   1.514  1.2135  0.2448  2.9093
   77RES     O121433   4.536   0.060   2.808 -0.1852  0.0144 -0.3673
   77RES     C221434   4.629   7.785   2.757 -0.0852  0.2761 -0.1485
   77RES     C321435   4.701   7.712   2.871 -0.0680  0.1258 -0.3493
   77RES     C421436   4.832   7.639   2.833 -0.3317 -0.0076  0.0147
   77RES     O521437   4.866   7.545   2.935 -0.1764  0.4005  0.2767
   77RES     C621438   4.990   7.489   2.915 -0.4180  0.8317 -0.5584
   77RES     H721439   4.572   7.720   2.691  0.8723  0.2105 -0.9267
   77RES     H821440   4.702   0.024   2.697 -0.9931  0.8036 -0.7803
   77RES     H921441   4.631   7.643   2.920 -0.9280  2.3043  1.5912
   77RES    H1021442   4.906   7.719   2.827  0.3870 -0.7111 -0.6298
   77RES    H1121443   4.823   7.596   2.733  0.4217  0.5438 -0.2990
   77RES    H1221444   4.984   7.439   2.819 -0.0716  0.9094 -0.6192
   77RES    H1321445   5.067   7.565   2.909 -1.1659  1.4096 -3.4647
   77RES    H1421446   5.010   7.423   3.000 -0.4578  0.7507 -0.6113
   77RES    H1521447   4.584   0.108   2.873  1.4190 -1.8528 -0.1386
   77RES    O1621448   4.748   0.004   2.951 -0.2151 -0.4068  0.1267
   77RES    C1721449   4.721   7.806   3.091  0.0526  0.0593 -0.3735
   77RES    C1821450   4.789   0.099   3.168 -0.1497  0.2734  0.4054
   77RES    C1921451   4.709   0.170   3.277 -0.4406 -0.3724  0.4511
   77RES    O2021452   4.755   0.305   3.295  0.0823 -0.3478 -0.0174
   77RES    C2121453   4.703   0.385   3.400  0.4614 -0.5418 -0.5720
   77RES    H2221454   4.742   7.703   3.119  0.1946  0.4902  1.1409
   77RES    H2321455   4.612   7.803   3.094  0.0356 -1.3159 -1.5290
   77RES    H2421456   4.812   0.176   3.094 -1.9942 -1.7470 -2.3503
   77RES    H2521457   4.609   0.191   3.240 -0.4933  1.1377  1.3973
   77RES    H2621458   4.698   0.120   3.374 -2.4722 -1.7598 -0.4671
   77RES    H2721459   4.744   0.486   3.400  1.3977 -0.9185 -0.6707
   77RES    H2821460   4.726   0.338   3.495  1.7964  0.2031 -0.5227
   77RES    H2921461   4.596   0.381   3.376  0.5045 -2.4268 -0.5101
   77RES    O3021462   4.903   0.045   3.235  0.0574  0.1166 -1.1364
   77RES    C3121463   5.005   0.012   3.146 -0.4820  0.2420 -0.5249
   77RES    C3221464   5.132   7.783   3.205  0.4877  0.8791  0.3437
   77RES    C3321465   5.243   7.765   3.090  0.5878 -0.8099 -0.4764
   77RES    O3421466   5.373   7.739   3.139  0.0794  0.3924  0.4225
   77RES    C3521467   5.439   0.036   3.190 -0.4908  0.5323  0.8274
   77RES    H3621468   4.968   7.752   3.078  0.0469  0.0458 -0.5947
   77RES    H3721469   5.020   0.100   3.084  0.2819 -0.0348 -0.7465
   77RES    H3821470   5.158   0.049   3.270 -0.3446  2.2971 -1.1343
   77RES    H3921471   5.245   0.030   3.019 -2.4679 -0.8838 -0.7413
   77RES    H4021472   5.212   7.677   3.033  1.1325 -0.3313 -1.5273
   77RES    H4121473   5.388   0.092   3.268 -0.4893 -0.5301  1.6076
   77RES    H4221474   5.454   0.091   3.097 -4.6024  0.6252  0.1345
   77RES    H4321475   5.543   0.021   3.220 -0.2072 -0.1115 -0.4485
   77RES    O4421476   5.120   7.659   3.276 -0.3858  0.7044  0.9301
   77RES    C4521477   5.206   7.650   3.392  0.3612  0.3504  0.7378
   77RES    C4621478   5.206   7.506   3.443  0.6831 -0.7342  0.5068
   77RES    C4721479   5.323   7.481   3.545 -0.9381  0.6032 -0.5345
   77RES    O4821480   5.338   7.339   3.567  0.5328 -0.4437 -0.0288
   77RES    C4921481   5.435   7.313   3.661  0.0466  0.7010 -0.5241
   77RES    H5021482   5.183   7.724   3.469  1.4457  1.0898  0.3655
   77RES    H5121483   5.308   7.671   3.360 -0.2070 -0.1098 -1.4457
   77RES    H5221484   5.219   7.438   3.359  0.4411 -1.7659  1.2885
   77RES    H5321485   5.419   7.511   3.504 -0.6937 -0.4186 -0.7101
   77RES    H5421486   5.317   7.545   3.634 -2.1696  0.2359 -0.3408
   77RES    H5521487   5.433   7.205   3.679 -2.2568  0.5565 -1.4324
   77RES    H5621488   5.420   7.359   3.759 -2.2116  1.8932 -1.3939
   77RES    H5721489   5.535   7.339   3.628  1.2121 -1.2015  1.3867
   77RES    O5821490   5.091   7.464   3.517 -0.3041 -0.0297 -0.0771
   77RES    C5921491   4.966   7.461   3.450  0.1602  0.1428 -0.3928
   77RES    C6021492   4.959   7.363   3.334  0.3698  0.1419 -0.4089
   77RES    C6121493   4.857   7.399   3.228 -0.4933 -0.3381 -0.3039
   77RES    O6221494   4.726   7.397   3.285  0.2766  0.3735 -0.2542
   77RES    C6321495   4.633   7.397   3.181  0.2735  0.6281  0.6033
   77RES    H6421496   4.937   7.560   3.417  1.0778  0.9408  1.1285
   77RES    H6521497   4.891   7.444   3.527 -1.2798  0.3934 -1.7306
   77RES    H6621498   5.057   7.345   3.291  1.7652 -0.9870  3.0377
   77RES    H6721499   4.875   7.501   3.194 -2.8175  0.3041  0.2803
   77RES    H6821500   4.864   7.320   3.154 -0.7201  0.7514 -1.5094
   77RES    H6921501   4.656   7.459   3.094 -0.4513  1.3268  0.9090
   77RES    H7021502   4.535   7.434   3.211 -0.9296 -2.4250  0.5840
   77RES    H7121503   4.612   7.302   3.133  0.5352  0.9550 -0.1743
   77RES    O7221504   4.926   7.238   3.385  0.1734  0.1860 -0.3709
   77RES    C7321505   5.025   7.176   3.468 -0.6381  0.2878 -0.1248
   77RES    C7421506   4.985   7.157   3.614 -0.6231 -0.3282  0.4492
   77RES    C7521507   5.107   7.170   3.704  0.0091  0.4460  0.0976
   77RES    O7621508   5.065   7.130   3.836  0.3081  0.2689  0.3068
   77RES    C7721509   5.147   7.193   3.931 -0.3796  0.2487 -0.8131
   77RES    H7821510   5.049   7.081   3.422 -0.6265  0.3987 -0.3476
   77RES    H7921511   5.118   7.231   3.457 -0.9430  0.4061 -2.3636
   77RES    H8021512   4.900   7.221   3.638 -0.4797 -0.3747  1.0952
   77RES    H8121513   5.142   7.273   3.703 -0.2282  0.5830  2.4826
   77RES    H8221514   5.190   7.106   3.674 -0.3388 -0.0050  0.0894
   77RES    H8321515   5.251   7.163   3.931 -0.3987  0.1847 -0.8797
   77RES    H8421516   5.100   7.169   4.027 -0.3529 -0.1099 -0.8894
   77RES    H8521517   5.133   7.301   3.934  1.5519  0.5145 -0.8756
   77RES    O8621518   4.935   7.026   3.644  0.1535  0.1879  0.4404
   77RES    C8721519   4.832   6.968   3.577  0.0959  0.0269  0.2810
   77RES    C8821520   4.841   6.810   3.587  0.4145 -0.2434  0.1861
   77RES    C8921521   4.974   6.751   3.514  1.0779  0.5076 -0.3116
   77RES    O9021522   4.952   6.636   3.450  0.7121  0.0841  0.0975
   77RES    C9121523   4.951   6.518   3.536  0.4383 -0.0982  0.2735
   77RES    H9221524   4.733   6.992   3.615  0.1999 -0.1944  0.6939
   77RES    H9321525   4.830   6.984   3.469 -0.6138 -1.4969  0.0603
   77RES    H9421526   4.759   6.765   3.531  1.2055 -1.7932  0.2510
   77RES    H9521527   5.001   6.822   3.436 -1.5766 -0.4964 -2.2098
   77RES    H9621528   5.059   6.746   3.582  2.1762 -0.5574 -1.7434
   77RES    H9721529   5.053   6.488   3.561 -0.3619 -2.8446  0.4138
   77RES    H9821530   4.900   6.541   3.629  0.2853 -2.1220  0.7246
   77RES    H9921531   4.888   6.446   3.485 -2.6274 -0.4720  4.3588
   77RES   O10021532   4.847   6.783   3.727 -0.4661 -0.4070  0.2886
   77RES   C10121533   4.718   6.753   3.779 -0.1590 -0.2481  0.7343
   77RES   C10221534   4.721   6.740   3.930 -0.3636  0.1832  0.2144
   77RES   C10321535   4.604   6.654   3.990  0.0238  0.3220 -0.1187
   77RES   O10421536   4.639   6.593   4.114  0.3822 -0.1063  0.2864
   77RES   C10521537   4.529   6.529   4.175 -0.2771  0.0446  0.0665
   77RES   H10621538   4.687   6.661   3.729 -0.4747 -0.6482  1.6463
   77RES   H10721539   4.648   6.831   3.750  1.1991 -0.4835 -3.4539
   77RES   H10821540   4.814   6.715   3.981 -0.1717 -1.8079 -1.0858
   77RES   H10921541   4.566   6.586   3.914 -0.8025  1.6769 -0.9240
   77RES   H11021542   4.521   6.721   4.009 -0.6290 -0.6228  0.4075
   77RES   H11121543   4.557   6.487   4.272  1.0545 -0.3121 -0.4620
   77RES   H11221544   4.488   6.449   4.114 -1.3048 -0.1252  0.9734
   77RES   H11321545   4.445   6.596   4.192  1.2071  1.6913  1.0487
   77RES   O11421546   4.688   6.875   3.981  0.1832  0.4937 -0.2385
   77RES   C11521547   4.804   6.954   4.027  0.3910  0.1838 -0.0639
   77RES   C11621548   4.843   6.920   4.172 -0.0230 -0.2657 -0.0633
   77RES   C11721549   4.982   6.983   4.202  0.4389  0.6944  0.3813
   77RES   O11821550   5.053   6.904   4.297 -0.0922 -0.2102  0.3573
   77RES   C11921551   5.194   6.940   4.311  0.1758  0.3377 -0.0380
   77RES   H12021552   4.881   6.945   3.950 -0.6007 -1.4862 -0.8936
   77RES   H12121553   4.779   7.060   4.015  0.0342  0.2241  0.9691
   77RES   H12221554   4.858   6.812   4.178 -0.8498 -0.3217  1.1320
   77RES   H12321555   5.038   6.989   4.109 -0.0774 -0.2106  0.0162
   77RES   H12421556   4.975   7.084   4.244  2.7792  2.3337 -2.9449
   77RES   H12521557   5.219   6.905   4.412 -1.4063  2.4302  1.1350
   77RES   H12621558   5.215   7.047   4.312 -0.3600  0.4427  1.1613
   77RES   H12721559   5.259   6.889   4.240 -1.3035 -0.9194 -0.4994
   77RES   O12821560   4.755   6.969   4.267  0.4518  0.4699  0.4030
   77RES   C12921561   4.622   6.915   4.256  0.4446 -0.2885 -0.5296
   77RES   C13021562   4.542   6.965   4.380  0.6297 -0.5749 -0.0731
   77RES   C13121563   4.394   6.931   4.359 -0.2491  0.2910  0.0342
   77RES   O13221564   4.329   6.939   4.486 -0.3757 -0.5595 -0.2247
   77RES   C13321565   4.187   6.949   4.480 -0.1284 -0.7519 -0.2634
   77RES   H13421566   4.575   6.955   4.167 -0.9349 -0.8382 -0.0550
   77RES   H13521567   4.618   6.806   4.264  0.3070 -0.2732 -0.3636
   77RES   H13621568   4.577   6.915   4.471 -0.8109 -2.4559 -0.5050
   77RES   H13721569   4.373   6.832   4.316  2.8354 -0.6674  0.6444
   77RES   H13821570   4.355   7.011   4.295  0.9326 -1.5695 -3.1621
   77RES   H13921571   4.132   6.896   4.403 -0.5287  0.4186 -0.7871
   77RES   H14021572   4.148   6.925   4.579  1.0349 -3.1012 -0.3542
   77RES   H14121573   4.184   7.057   4.467  1.0849 -0.6678  0.1337
   77RES   O14221574   4.563   7.105   4.378  0.3679  0.4560  0.5425
   77RES   C14321575   4.512   7.158   4.496  0.6591 -0.2172  0.2355
   77RES   C14421576   4.576   7.292   4.519  0.0554  0.5134  0.1700
   77RES   C14521577   4.722   7.282   4.543 -0.1170 -0.2244  0.0509
   77RES   O14621578   4.791   7.380   4.460  0.8267 -0.0624 -0.2601
   77RES   C14721579   4.824   7.333   4.329 -0.5348  0.1292  0.4492
   77RES   H14821580   4.404   7.171   4.503  0.3210 -2.0350 -1.0533
   77RES   H14921581   4.541   7.096   4.581  0.6547  0.0942  0.4664
   77RES   H15021582   4.557   7.344   4.426 -0.8129  1.1119  0.6772
   77RES   H15121583   4.755   7.182   4.517  2.3119  0.8441 -1.1925
   77RES   H15221584   4.742   7.303   4.648 -1.8831  1.2171  0.1210
   77RES   H15321585   4.825   7.420   4.263  0.9247 -0.2231 -0.0177
   77RES   H15421586   4.750   7.262   4.292  0.5407 -1.0824  0.5446
   77RES   H15521587   4.919   7.279   4.330 -2.0585 -2.7010 -0.6606
   77RES   O15621588   4.498   7.360   4.616 -0.5448 -0.5424 -0.1609
   77RES   C15721589   4.525   7.496   4.640 -0.1826  0.2083  0.4155
   77RES   C15821590   4.419   7.566   4.721  0.1781 -0.8317  0.0216
   77RES   C15921591   4.397   7.502   4.856 -0.1005  0.2428 -0.0776
   77RES   O16021592   4.327   7.594   4.932 -0.5968 -0.1702 -0.3076
   77RES   C16121593   4.249   7.543   5.035 -0.1200  0.5087  0.1848
   77RES   H16221594   4.623   7.495   4.688 -0.3858  0.5728  0.8359
   77RES   H16321595   4.546   7.547   4.545  1.9751 -2.0596 -0.3887
   77RES   H16421596   4.446   7.672   4.719  0.2466 -0.8576 -0.3372
   77RES   H16521597   4.337   7.413   4.837 -1.3868  0.8825  0.9187
   77RES   H16621598   4.497   7.469   4.885 -0.2177  0.2499  0.3343
   77RES   H16721599   4.204   7.455   4.990  0.0831  0.6196 -0.2354
   77RES   H16821600   4.175   7.615   5.069  0.5284  1.6447 -0.7699
   77RES   H16921601   4.307   7.507   5.121  3.7132  2.0485 -1.6771
   77RES   O17021602   4.290   7.556   4.648 -0.4486  0.1280 -0.4405
   77RES   C17121603   4.218   7.674   4.624  0.7377  0.0191 -0.6872
   77RES   C17221604   4.074   7.647   4.578 -0.5009 -0.0090  0.0032
   77RES   C17321605   4.033   7.725   4.446 -0.5857  0.6674  0.3513
   77RES   O17421606   3.908   7.689   4.386  0.0157 -0.3434  0.4249
   77RES   C17521607   3.892   7.762   4.263  0.5843 -0.1294 -0.1973
   77RES   H17621608   4.264   7.734   4.546 -0.9712  0.5599 -1.2960
   77RES   H17721609   4.223   7.742   4.709 -0.9116  1.3849 -1.6479
   77RES   H17821610   4.070   7.539   4.563 -0.0802  0.0643 -0.6745
   77RES   H17921611   4.025   0.011   4.481  1.5524  0.5906  1.1680
   77RES   H18021612   4.112   7.717   4.372  0.1382  0.2886  1.1570
   77RES   H18121613   3.804   7.724   4.211  1.4440  0.7135 -2.3393
   77RES   H18221614   3.970   7.741   4.190  0.2943 -1.1392 -0.2277
   77RES   H18321615   3.881   0.051   4.281  1.8373 -0.1531  0.7620
   77RES   O18421616   3.970   7.665   4.684  0.3838 -0.5871 -0.2703
   77RES   C18521617   3.850   7.591   4.668 -0.3194  0.7855 -0.0343
   77RES   C18621618   3.730   7.651   4.748  0.2913  1.0497 -0.3960
   77RES   C18721619   3.611   7.549   4.757 -0.0115 -0.4155 -0.8174
   77RES   O18821620   3.555   7.554   4.890 -0.3311 -0.4856 -0.3351
   77RES   C18921621   3.464   7.449   4.914  0.2248  0.2051  0.7792
   77RES   H19021622   3.871   7.490   4.703 -2.3033  0.9116  1.5820
   77RES   H19121623   3.819   7.584   4.563  0.3741  0.8727 -0.2495
   77RES   H19221624   3.758   7.690   4.846  1.4216  2.2717 -1.1879
   77RES   H19321625   3.652   7.450   4.733 -1.5986 -1.7820  1.8862
   77RES   H19421626   3.539   7.576   4.680  0.4771  1.0139 -0.7844
   77RES   H19521627   3.370   7.468   4.863 -0.3244 -1.6100  1.0757
   77RES   H19621628   3.500   7.351   4.881 -1.8367 -0.7616  1.2986
   77RES   H19721629   3.450   7.436   5.022 -3.1235 -0.4914  0.2958
   77RES   O19821630   3.680   7.761   4.675 -0.3624  0.0761  0.1860
   77RES   C19921631   3.760   0.068   4.683 -1.0305 -0.0512 -0.0787
   77RES   C20021632   3.669   0.190   4.701  0.0685  0.3319  0.0414
   77RES   C20121633   3.724   0.318   4.654  0.1442  0.1130 -0.2458
   77RES   O20221634   3.618   0.408   4.620 -0.0327 -0.5729  0.1256
   77RES   C20321635   3.648   0.535   4.572 -0.7276  0.2709  0.0656
   77RES   H20421636   3.826   0.061   4.596  3.2540 -0.0834  2.9618
   77RES   H20521637   3.826   0.057   4.769 -0.9780 -0.9794 -0.2321
   77RES   H20621638   3.587   0.180   4.629  2.4644 -0.7597 -2.6108
   77RES   H20721639   3.787   0.366   4.729 -1.9893  1.3737  0.7997
   77RES   H20821640   3.784   0.298   4.566  0.9313  0.4477  0.2065
   77RES   H20921641   3.721   0.535   4.491  0.9331 -0.8224  1.5367
   77RES   H21021642   3.684   0.609   4.644  0.5059  0.9136 -1.1718
   77RES   H21121643   3.554   0.575   4.535 -1.7629  1.0330  3.3337
   77RES   O21221644   3.635   0.217   4.835  0.3360  0.0544 -0.1389
   77RES   C21321645   3.548   0.130   4.901  0.7382  0.2333 -0.4620
   77RES   C21421646   3.470   0.192   5.024 -0.1386 -0.2606  0.3574
   77RES   C21521647   3.481   0.103   5.145  0.2293  0.1680 -0.2756
   77RES   O21621648   3.608   0.114   5.207  0.0043 -0.2620 -0.1076
   77RES   C21721649   3.633   0.019   5.310 -0.4406 -0.1514 -0.0181
   77RES   H21821650   3.610   0.046   4.931 -2.5766 -2.1394 -0.0082
   77RES   H21921651   3.472   0.101   4.828  1.7305 -0.2912 -1.2891
   77RES   H22021652   3.519   0.287   5.047  1.3098 -0.7982 -0.3898
   77RES   H22121653   3.416   0.135   5.226  1.8301 -0.6031  1.3312
   77RES   H22221654   3.462   7.817   5.117  0.2936 -0.2260  1.1221
   77RES   H22321655   3.609   7.735   5.275 -0.3483  0.4028 -1.7129
   77RES   H22421656   3.576   0.041   5.400 -0.3896 -1.0487  0.2424
   77RES   H22521657   3.739   0.030   5.333 -0.0151 -2.8602 -0.4704
   77RES   O22621658   3.333   0.229   5.012 -0.6020  0.5812  0.7231
   77RES   C22721659   3.291   0.302   4.901  0.0124  0.1443  0.4773
   77RES   C22821660   3.336   0.450   4.908  0.0990  0.8225  0.0111
   77RES   C22921661   3.295   0.516   4.768  0.5980 -0.0284  0.2065
   77RES   O23021662   3.328   0.657   4.754  0.6321 -0.2825 -0.1207
   77RES   C23121663   3.262   0.718   4.649  0.0619  0.2781  0.3820
   77RES   H23221664   3.182   0.313   4.897  0.0892  0.1620 -2.7465
   77RES   H23321665   3.327   0.251   4.812 -0.5053  0.2626  0.1976
   77RES   H23421666   3.444   0.446   4.919  0.0516  0.1570  0.2489
   77RES   H23521667   3.189   0.495   4.752  1.2438 -4.1073  0.8813
   77RES   H23621668   3.338   0.446   4.697 -0.7627  0.4324 -1.1114
   77RES   H23721669   3.294   0.663   4.560 -1.3617 -1.1117  0.7040
   77RES   H23821670   3.281   0.825   4.644  0.1088  0.1777 -2.7456
   77RES   H23921671   3.155   0.713   4.667  0.3022  2.0480  2.4729
   77RES   O24021672   3.269   0.507   5.018  0.1571 -0.5793  0.1923
   77RES   C24121673   3.363   0.534   5.123 -0.0634  0.4367 -0.0186
   77RES   C24221674   3.281   0.559   5.249 -0.8649 -0.0171  0.3220
   77RES   C24321675   3.208   0.429   5.301 -0.6019  0.1602 -0.1342
   77RES   O24421676   3.077   0.453   5.355  0.1998  0.1934  0.3292
   77RES   C24521677   3.080   0.488   5.494  0.2618 -0.0757  0.0540
   77RES   H24621678   3.413   0.623   5.085  0.5814  0.1226  0.0830
   77RES   H24721679   3.437   0.456   5.141 -0.4036 -0.3987 -2.1806
   77RES   H24821680   3.209   0.636   5.219  0.7794  0.4190 -2.7929
   77RES   H24921681   3.199   0.362   5.216 -1.1615  0.4379 -0.2971
   77RES   H25021682   3.277   0.385   5.374  0.1605 -1.4399 -1.7790
   77RES   H25121683   2.993   0.448   5.547  1.0320  0.5772  1.8585
   77RES   H25221684   3.091   0.595   5.508  3.1834 -0.4045  0.6819
   77RES   H25321685   3.162   0.443   5.552  2.8921  1.9886 -1.9365
   77RES   O25421686   3.358   0.606   5.360 -0.1571 -0.2894  0.6058
   77RES   C25521687   3.448   0.713   5.344 -0.1159  0.4148  0.2315
   77RES   C25621688   3.393   0.852   5.325  0.0982  0.4532  0.2982
   77RES   C25721689   3.508   0.950   5.344 -0.0839 -1.0794 -0.2670
   77RES   O25821690   3.457   1.082   5.316 -0.4275 -0.3291 -0.0953
   77RES   C25921691   3.493   1.134   5.184  0.5402 -0.2509  0.2379
   77RES   H26021692   3.503   0.709   5.438 -3.8737 -0.2528  2.4879
   77RES   H26121693   3.527   0.692   5.272 -0.7995 -1.8050  0.0910
   77RES   H26221694   3.322   0.885   5.400 -0.8535  0.2903 -0.5067
   77RES   H26321695   3.548   0.947   5.445 -1.4087  2.3108  0.4235
   77RES   H26421696   3.594   0.928   5.280  1.0596 -2.0924  1.6041
   77RES   H26521697   3.495   1.062   5.102 -1.1487  0.8041 -0.7781
   77RES   H26621698   3.598   1.162   5.195  0.4123  0.3850 -0.1410
   77RES   H26721699   3.444   1.227   5.156 -0.5164 -0.6852  0.6308
   77RES   O26821700   3.346   0.873   5.194 -0.7183 -0.2431  0.1853
   77RES   C26921701   3.210   0.928   5.182 -0.2810  0.1010 -0.5517
   77RES   C27021702   3.164   0.920   5.032 -0.5369  0.3448 -0.5303
   77RES   C27121703   3.010   0.921   5.024 -0.3638  0.4699  0.4803
   77RES   O27221704   2.981   1.054   4.999  0.3265  0.0907  0.4818
   77RES   C27321705   2.848   1.094   5.034  0.2837  0.2079 -0.5056
   77RES   H27421706   3.200   1.027   5.226 -1.8193 -0.2242 -0.1347
   77RES   H27521707   3.148   0.866   5.247  2.0552 -1.8810 -0.1163
   77RES   H27621708   3.212   1.010   4.993  0.1362  0.7346  1.1738
   77RES   H27721709   2.966   0.894   5.120  0.5907  1.6174  1.2507
   77RES   H27821710   2.974   0.854   4.946 -0.8155  0.5394  0.6298
   77RES   H27921711   2.782   1.034   4.972  1.1687 -0.1975 -1.0704
   77RES   H28021712   2.824   1.198   5.012 -0.5380 -0.1808 -1.4551
   77RES   H28121713   2.820   1.067   5.136  1.1919  0.8034 -0.0885
   77RES   H28221714   3.203   0.833   4.980 -1.0223 -0.8193  1.0308
   78RES     O121715   3.656   3.519   5.911  0.3599  0.1920  0.4013
   78RES     C221716   3.665   3.640   5.984 -0.1155 -0.0298  0.5031
   78RES     C321717   3.528   3.668   6.044 -0.4718 -0.5979  0.2571
   78RES     C421718   3.535   3.793   6.137 -0.0048 -0.0705  0.1790
   78RES     O521719   3.410   3.815   6.192  0.0736 -0.5148  0.1543
   78RES     C621720   3.372   3.960   6.194 -0.0389  0.1202  0.2417
   78RES     H721721   3.741   3.621   6.060 -0.4939 -1.0907  0.6274
   78RES     H821722   3.691   3.719   5.913  1.7269 -1.0542 -0.0162
   78RES     H921723   3.500   3.577   6.098 -2.1142  0.1045  0.6168
   78RES    H1021724   3.564   3.882   6.081 -0.9548  1.3856  1.9727
   78RES    H1121725   3.612   3.781   6.213 -1.2990 -2.3269  1.1510
   78RES    H1221726   3.376   4.012   6.098 -1.1130  2.5830  1.4629
   78RES    H1321727   3.273   3.969   6.240  0.2752 -0.7897  1.1195
   78RES    H1421728   3.432   4.012   6.269 -1.7775 -0.5394  2.1314
   78RES    H1521729   3.566   3.504   5.887  0.6773 -4.4736  1.7417
   78RES    O1621730   3.447   3.684   5.932 -0.1495  0.0763 -0.0723
   78RES    C1721731   3.304   3.665   5.949  0.6447  0.0691 -0.9910
   78RES    C1821732   3.240   3.641   5.806  0.4631  0.2872  0.5477
   78RES    C1921733   3.283   3.763   5.720  0.5340 -0.6087  0.6886
   78RES    O2021734   3.188   3.788   5.616  0.3617  0.5862  0.2137
   78RES    C2121735   3.228   3.886   5.522 -0.0371  0.3732 -0.3007
   78RES    H2221736   3.252   3.751   5.990 -1.8559 -2.0364  0.4090
   78RES    H2321737   3.289   3.576   6.011  0.8297  0.7563  0.0536
   78RES    H2421738   3.132   3.627   5.809  0.4631 -0.0333 -0.8222
   78RES    H2521739   3.288   3.851   5.784 -2.1564 -0.7438  1.1511
   78RES    H2621740   3.382   3.749   5.677  0.6721  1.4917  0.2613
   78RES    H2721741   3.227   3.987   5.563 -0.6000  0.6552 -1.0030
   78RES    H2821742   3.152   3.891   5.444 -0.9793 -0.4667  0.5547
   78RES    H2921743   3.328   3.865   5.484 -0.5318 -0.7754 -1.0164
   78RES    O3021744   3.310   3.532   5.754  0.0082  0.0795  0.3887
   78RES    C3121745   3.259   3.480   5.634  0.0941  0.0262  0.3409
   78RES    C3221746   3.326   3.345   5.584  0.4955  0.0309 -0.2896
   78RES    C3321747   3.312   3.241   5.689 -0.4302  0.4499  0.7043
   78RES    O3421748   3.369   3.116   5.644  0.3809 -0.0945 -0.7024
   78RES    C3521749   3.334   3.001   5.705  0.0998  0.4451 -0.9891
   78RES    H3621750   3.152   3.460   5.645  0.3633 -2.1111 -0.7153
   78RES    H3721751   3.262   3.552   5.553 -0.0964 -1.4538 -1.0019
   78RES    H3821752   3.272   3.303   5.499 -1.3299  1.2203  0.2525
   78RES    H3921753   3.204   3.229   5.701 -0.2502 -0.5783  1.3168
   78RES    H4021754   3.351   3.274   5.785  0.3502  0.8950  0.2414
   78RES    H4121755   3.232   2.977   5.673  1.0696 -1.5425 -2.7110
   78RES    H4221756   3.346   3.000   5.813  4.6761  1.5987 -1.3981
   78RES    H4321757   3.402   2.928   5.661 -0.9299 -1.1005 -0.0347
   78RES    O4421758   3.464   3.377   5.549  0.1666 -0.0863 -0.2263
   78RES    C4521759   3.535   3.307   5.451  0.5927 -0.2014  0.3811
   78RES    C4621760   3.693   3.335   5.476 -0.1607 -0.8856  0.0174
   78RES    C4721761   3.775   3.229   5.407 -0.0919 -0.3714 -0.0521
   78RES    O4821762   3.900   3.220   5.482  0.1332  0.5169  0.1056
   78RES    C4921763   3.980   3.110   5.430  0.0750  0.1294  0.1026
   78RES    H5021764   3.501   3.335   5.352  0.4106 -2.9547 -0.3613
   78RES    H5121765   3.519   3.204   5.480 -0.2790  0.1397  1.1405
   78RES    H5221766   3.714   3.332   5.583  0.0960  1.9993  0.0859
   78RES    H5321767   3.732   3.132   5.432  1.8101 -1.3711 -0.5771
   78RES    H5421768   3.780   3.242   5.299 -2.8088 -0.5751 -0.2365
   78RES    H5521769   3.920   3.026   5.395  2.7455 -1.8539  0.1127
   78RES    H5621770   4.045   3.075   5.510 -1.8463  0.7088  1.9479
   78RES    H5721771   4.041   3.154   5.350 -1.4969  3.2251  0.5059
   78RES    O5821772   3.736   3.460   5.417 -0.0920 -0.5948 -0.8451
   78RES    C5921773   3.664   3.569   5.458  0.5651  0.2274 -0.6022
   78RES    C6021774   3.725   3.703   5.439 -0.0963  0.9932 -0.3075
   78RES    C6121775   3.634   3.809   5.512  0.8426 -0.1501  0.5494
   78RES    O6221776   3.673   3.948   5.507 -0.5851 -0.0732 -0.2257
   78RES    C6321777   3.795   3.958   5.580  0.3292 -0.1441  0.1192
   78RES    H6421778   3.636   3.560   5.563  1.9391  2.2213 -0.0384
   78RES    H6521779   3.568   3.575   5.407 -1.0982  0.6217  2.4623
   78RES    H6621780   3.820   3.696   5.492  0.0847 -1.3755 -0.8576
   78RES    H6721781   3.537   3.812   5.463  0.3733 -0.2757  1.4507
   78RES    H6821782   3.615   3.794   5.618 -1.3185  2.9160  0.6622
   78RES    H6921783   3.872   3.904   5.524  0.0226  1.5688 -2.0184
   78RES    H7021784   3.801   3.927   5.685 -0.7729 -0.7566  0.0045
   78RES    H7121785   3.821   4.063   5.593  1.4095 -0.2757 -0.8957
   78RES    O7221786   3.740   3.746   5.306  0.1483  0.2018 -0.1230
   78RES    C7321787   3.839   3.662   5.242  0.3168 -0.6727 -0.4902
   78RES    C7421788   3.864   3.712   5.098 -0.0819  0.4121  0.0937
   78RES    C7521789   3.946   3.607   5.018  0.5588 -0.3306  1.0254
   78RES    O7621790   3.951   3.621   4.873 -0.1764 -0.3726  0.4323
   78RES    C7721791   4.051   3.709   4.832  0.6344  0.2792 -0.5208
   78RES    H7821792   3.930   3.647   5.300  0.1476 -0.7849 -0.2502
   78RES    H7921793   3.798   3.563   5.221 -1.1098 -0.2434  0.1634
   78RES    H8021794   3.767   3.731   5.053 -0.1507 -0.6192 -0.2060
   78RES    H8121795   3.890   3.517   5.043  1.1416 -0.2938  2.5556
   78RES    H8221796   4.044   3.604   5.066  0.8960  1.7864  0.4999
   78RES    H8321797   4.072   3.709   4.726 -1.2430 -0.3924 -0.9120
   78RES    H8421798   4.141   3.659   4.868  2.4080  2.0730 -2.3088
   78RES    H8521799   4.031   3.802   4.886 -0.1757 -0.6788  0.8714
   78RES    O8621800   3.929   3.840   5.108  0.1728  0.5035 -0.0358
   78RES    C8721801   3.851   3.948   5.056 -0.1759 -0.3681  0.4406
   78RES    C8821802   3.930   4.078   5.084 -0.3902  0.6284  0.2471
   78RES    C8921803   3.956   4.095   5.243 -0.6879  0.5044 -0.1262
   78RES    O9021804   3.979   4.231   5.274 -1.0984  0.4925  0.1025
   78RES    C9121805   4.023   4.260   5.407  0.9742  0.2918  0.4587
   78RES    H9221806   3.832   3.941   4.949 -1.1550  0.8970  0.5274
   78RES    H9321807   3.750   3.953   5.097 -0.9186 -1.0048 -1.2556
   78RES    H9421808   3.870   4.162   5.047  0.9827  0.6445 -1.9813
   78RES    H9521809   3.870   4.059   5.300  0.1101  0.2381  0.9157
   78RES    H9621810   4.039   4.034   5.280 -1.6073 -0.3356  0.5710
   78RES    H9721811   3.954   4.215   5.480  1.0183 -2.3753 -1.1047
   78RES    H9821812   4.121   4.215   5.416  1.5761  1.7879  1.6223
   78RES    H9921813   4.023   4.368   5.422 -0.0296  0.0641  2.3456
   78RES   O10021814   4.063   4.081   5.022  0.1917 -0.3227  0.0703
   78RES   C10121815   4.108   4.210   5.001  0.1707 -0.5340  0.2947
   78RES   C10221816   4.250   4.222   4.948 -0.5023 -0.4299  0.0996
   78RES   C10321817   4.318   4.351   4.994  0.0534 -0.7116  0.8954
   78RES   O10421818   4.245   4.453   4.938  0.5800  0.3270 -1.0060
   78RES   C10521819   4.297   4.584   4.942  0.5683  0.0238  0.7766
   78RES   H10621820   4.100   4.268   5.093 -2.3613  1.5510 -1.1519
   78RES   H10721821   4.045   4.246   4.919 -1.4679 -1.4140  1.1521
   78RES   H10821822   4.309   4.137   4.981 -1.5679 -1.7868 -1.3707
   78RES   H10921823   4.418   4.345   4.952 -1.1255 -1.7287 -1.9043
   78RES   H11021824   4.324   4.358   5.102 -0.7341  1.2828  0.8411
   78RES   H11121825   4.289   4.633   5.039 -1.9645  0.2475  0.4721
   78RES   H11221826   4.245   4.657   4.880  2.7286  1.5855  0.7340
   78RES   H11321827   4.395   4.597   4.895 -0.7243  0.1284 -1.9756
   78RES   O11421828   4.248   4.224   4.807  0.3713  0.1700 -0.0648
   78RES   C11521829   4.275   4.098   4.743 -0.1733 -0.0921 -0.1422
   78RES   C11621830   4.198   4.078   4.616 -0.3616  0.9139 -0.1020
   78RES   C11721831   4.273   3.973   4.526 -0.0857 -0.3690  0.3214
   78RES   O11821832   4.209   3.975   4.402  0.1310  0.5247  0.3295
   78RES   C11921833   4.283   3.907   4.299  0.1975  0.4169  0.9360
   78RES   H12021834   4.379   4.100   4.708 -0.5302 -2.9101 -1.5858
   78RES   H12121835   4.268   4.016   4.814  2.2881  1.0138  1.4400
   78RES   H12221836   4.192   4.171   4.559 -0.9375  1.5098  0.9245
   78RES   H12321837   4.381   3.990   4.522 -0.4205  1.6955 -0.3699
   78RES   H12421838   4.264   3.875   4.573  1.8281 -1.0521 -0.6731
   78RES   H12521839   4.248   3.908   4.196  2.4308  0.0227  0.1333
   78RES   H12621840   4.303   3.804   4.331  2.9236 -0.1897 -2.4294
   78RES   H12721841   4.379   3.956   4.286  1.1634 -1.9503 -1.3041
   78RES   O12821842   4.071   4.031   4.655  0.0446  0.0548 -0.6236
   78RES   C12921843   3.969   4.009   4.556  0.0353 -0.1782  0.0448
   78RES   C13021844   3.826   4.056   4.609  0.0556 -0.7554  0.1599
   78RES   C13121845   3.716   3.977   4.540 -0.5928 -0.4197 -0.0601
   78RES   O13221846   3.585   4.008   4.596  0.1963 -0.3997 -0.5344
   78RES   C13321847   3.471   3.968   4.526  0.9019  0.6721 -0.3734
   78RES   H13421848   3.988   4.052   4.458  0.0758 -0.0799  0.0957
   78RES   H13521849   3.962   3.902   4.537 -0.4662 -0.1851  0.2579
   78RES   H13621850   3.815   4.033   4.715 -0.8221  0.3046  0.3075
   78RES   H13721851   3.734   3.874   4.571 -0.0040 -0.8361 -1.7898
   78RES   H13821852   3.710   3.992   4.433 -1.0754  0.1800  0.0432
   78RES   H13921853   3.376   3.974   4.578  0.1498 -0.7440 -1.5482
   78RES   H14021854   3.471   4.008   4.424  0.5959 -0.0785 -0.6746
   78RES   H14121855   3.481   3.862   4.500 -0.3868  0.5230 -0.2762
   78RES   O14221856   3.806   4.199   4.593 -0.3329  0.3847  0.0073
   78RES   C14321857   3.875   4.286   4.683  0.1870 -0.4499  0.7770
   78RES   C14421858   3.842   4.434   4.650  0.0117 -0.8059 -0.1304
   78RES   C14521859   3.938   4.539   4.723  0.2960  0.0858  0.2864
   78RES   O14621860   3.898   4.664   4.683  0.0375 -0.1483 -0.0162
   78RES   C14721861   3.979   4.767   4.732 -0.0794  0.0088  0.2988
   78RES   H14821862   3.859   4.271   4.789 -2.9463 -0.8205  0.3027
   78RES   H14921863   3.977   4.254   4.660  0.6749  0.5355  1.5194
   78RES   H15021864   3.849   4.448   4.542  0.1305 -0.1182 -0.0392
   78RES   H15121865   4.042   4.524   4.694  0.9780  2.3890  1.3842
   78RES   H15221866   3.933   4.531   4.832  2.0545 -2.2942  0.2270
   78RES   H15321867   3.921   4.859   4.722 -0.6914 -0.3950  0.1175
   78RES   H15421868   4.082   4.771   4.694 -0.3807 -0.3891 -0.5591
   78RES   H15521869   3.979   4.759   4.841 -1.3013  2.1037  0.4831
   78RES   O15621870   3.713   4.464   4.700 -0.1216  0.2616 -0.3315
   78RES   C15721871   3.608   4.447   4.614 -0.1602  0.5505 -0.2994
   78RES   C15821872   3.470   4.494   4.671 -0.2312 -0.5310  0.1854
   78RES   C15921873   3.356   4.413   4.602  0.2816 -0.0797  0.2881
   78RES   O16021874   3.239   4.413   4.677  0.1461  0.0483 -0.4016
   78RES   C16121875   3.127   4.374   4.599  0.5729 -0.2710 -0.3480
   78RES   H16221876   3.628   4.501   4.521  0.4154  0.5277 -0.1947
   78RES   H16321877   3.613   4.342   4.584 -0.4591  0.2114  0.8369
   78RES   H16421878   3.467   4.479   4.779  0.0997 -1.8542  0.0141
   78RES   H16521879   3.344   4.463   4.506  0.8530 -0.3736  0.0634
   78RES   H16621880   3.384   4.308   4.603  0.9075  0.0955  1.4663
   78RES   H16721881   3.051   4.329   4.662  0.0811  0.7952 -0.1635
   78RES   H16821882   3.150   4.314   4.510 -1.1646  0.0819 -1.0577
   78RES   H16921883   3.084   4.464   4.554 -1.3076 -0.0274  1.8400
   78RES   O17021884   3.449   4.632   4.645 -0.5333  0.0564  0.3910
   78RES   C17121885   3.522   4.713   4.732 -0.2811 -0.1200  0.7202
   78RES   C17221886   3.484   4.863   4.704 -0.1472  0.7121  0.3642
   78RES   C17321887   3.609   4.947   4.724 -0.0948 -0.5009  0.0545
   78RES   O17421888   3.596   5.078   4.677 -0.5285 -0.2226 -0.6226
   78RES   C17521889   3.726   5.143   4.674 -0.9359 -0.4454  0.2208
   78RES   H17621890   3.628   4.696   4.713 -0.3050 -0.6352  1.0427
   78RES   H17721891   3.510   4.687   4.837  3.7475 -1.9858  0.8089
   78RES   H17821892   3.459   4.863   4.598 -1.8227 -0.0237  0.7409
   78RES   H17921893   3.636   4.959   4.829  1.7606 -1.3741 -0.2978
   78RES   H18021894   3.694   4.903   4.671  0.2086  0.0042  0.1172
   78RES   H18121895   3.758   5.142   4.778 -0.1994 -1.3758  0.0007
   78RES   H18221896   3.705   5.243   4.638  0.3257 -0.1821  0.2039
   78RES   H18321897   3.788   5.084   4.607 -1.5799  0.7527 -1.4373
   78RES   O18421898   3.383   4.894   4.793  0.2458  0.0140  0.7646
   78RES   C18521899   3.324   5.017   4.760  1.7800  0.3312 -0.3828
   78RES   C18621900   3.192   5.046   4.830  0.2651  0.5596  0.0714
   78RES   C18721901   3.092   5.130   4.746  0.2366  0.8526  0.6258
   78RES   O18821902   2.993   5.044   4.689  0.1232 -0.4897 -0.3027
   78RES   C18921903   2.914   5.117   4.596 -0.2520 -0.3879 -0.1171
   78RES   H19021904   3.303   5.009   4.653  1.7465 -0.3082 -0.3287
   78RES   H19121905   3.393   5.099   4.778  0.1773  1.8881 -1.1347
   78RES   H19221906   3.144   4.955   4.865 -1.7389  0.9902 -1.4680
   78RES   H19321907   3.151   5.184   4.672  1.9720 -0.3295  1.1181
   78RES   H19421908   3.044   5.200   4.814 -0.1165  1.6573 -0.4319
   78RES   H19521909   2.856   5.194   4.647 -2.2956 -2.4717  0.7944
   78RES   H19621910   2.975   5.166   4.520 -3.7266  4.0170 -0.2477
   78RES   H19721911   2.840   5.047   4.558 -0.6511  0.0587 -0.1710
   78RES   O19821912   3.216   5.127   4.944 -0.9201 -0.3158  0.5387
   78RES   C19921913   3.276   5.063   5.048 -0.5698 -0.5142 -0.2867
   78RES   C20021914   3.281   5.171   5.170  0.1966  0.5930 -0.1422
   78RES   C20121915   3.356   5.111   5.284 -0.2362  0.8778  0.5713
   78RES   O20221916   3.366   5.210   5.391 -0.2298  0.0864  0.3267
   78RES   C20321917   3.423   5.172   5.523 -0.7057  0.9275  0.5982
   78RES   H20421918   3.377   5.037   5.015 -0.0994  2.6585 -1.5226
   78RES   H20521919   3.216   4.980   5.085 -0.5575  0.2006  1.3719
   78RES   H20621920   3.342   5.256   5.139  0.8174  0.0941 -0.3183
   78RES   H20721921   3.303   5.020   5.313  0.7583  0.4127  0.9283
   78RES   H20821922   3.455   5.081   5.251 -0.1036  0.8277  1.0175
   78RES   H20921923   3.429   5.263   5.584  1.5214  0.1507  1.5791
   78RES   H21021924   3.521   5.126   5.509 -0.4374  1.5971  0.2688
   78RES   H21121925   3.360   5.102   5.579 -1.5462  1.1199 -0.1035
   78RES   O21221926   3.145   5.184   5.204  0.4596 -0.3242 -0.1747
   78RES   C21321927   3.119   5.318   5.235  0.4366 -0.6533 -0.4713
   78RES   C21421928   2.973   5.329   5.275 -0.2571 -0.0995 -0.5030
   78RES   C21521929   2.932   5.245   5.404  1.0258 -1.1923 -0.0457
   78RES   O21621930   2.842   5.326   5.473 -0.3749 -0.3988 -0.7367
   78RES   C21721931   2.763   5.260   5.570 -0.6593  0.6112 -0.6847
   78RES   H21821932   3.140   5.379   5.147  1.1505 -1.3062 -0.7640
   78RES   H21921933   3.177   5.355   5.320  1.2645  0.5075 -1.5231
   78RES   H22021934   2.965   5.434   5.304 -1.4408 -0.3634  0.1630
   78RES   H22121935   2.895   5.145   5.379 -2.7840  0.0534  0.3376
   78RES   H22221936   3.025   5.242   5.461  0.3325  2.2605  1.3457
   78RES   H22321937   2.835   5.207   5.633  1.1554  0.6755 -2.6687
   78RES   H22421938   2.705   5.180   5.524  1.1363 -0.9466 -0.2986
   78RES   H22521939   2.705   5.324   5.637  0.5286  0.8295  0.1538
   78RES   O22621940   2.904   5.298   5.159  0.6484 -0.1430  0.0751
   78RES   C22721941   2.769   5.356   5.154 -0.0317  0.6921  1.0510
   78RES   C22821942   2.700   5.370   5.013 -0.0759 -0.5402 -0.9792
   78RES   C22921943   2.553   5.400   5.021  0.7232 -0.4708  0.2908
   78RES   O23021944   2.485   5.361   4.899 -0.3406  0.2616 -0.3254
   78RES   C23121945   2.345   5.365   4.919  0.2092  0.1260  0.0597
   78RES   H23221946   2.786   5.454   5.197  3.1956 -0.6533  3.0773
   78RES   H23321947   2.707   5.304   5.227  1.1819  1.4265  2.6389
   78RES   H23421948   2.698   5.275   4.959 -3.8423 -1.4194  0.5430
   78RES   H23521949   2.537   5.506   5.041  0.3998 -0.3898 -0.3615
   78RES   H23621950   2.506   5.342   5.101  0.6356  1.4138  1.6421
   78RES   H23721951   2.315   5.453   4.977 -1.0014 -2.0553  2.9084
   78RES   H23821952   2.323   5.271   4.969  2.1038 -0.6827 -0.6330
   78RES   H23921953   2.291   5.358   4.825 -1.3223 -1.5609  1.0263
   78RES   O24021954   2.750   5.478   4.939  0.2549 -0.1634  0.1551
   78RES   C24121955   2.856   5.450   4.856 -0.0831 -0.2114 -0.6062
   78RES   C24221956   2.854   5.574   4.763  0.5992 -0.1656  0.0331
   78RES   C24321957   2.988   5.607   4.685  0.1783  0.8988  0.0442
   78RES   O24421958   3.018   5.745   4.689  0.4269 -0.3591  0.1068
   78RES   C24521959   2.987   5.810   4.571 -0.1045 -0.6224 -0.8751
   78RES   H24621960   2.841   5.368   4.786 -0.6230  0.5448 -1.3842
   78RES   H24721961   2.954   5.442   4.903  0.1520 -3.4874 -1.5228
   78RES   H24821962   2.822   5.666   4.812 -0.9613  0.7757 -2.6751
   78RES   H24921963   3.063   5.543   4.732  1.9659  2.9046 -0.0120
   78RES   H25021964   2.987   5.565   4.584 -0.4421  0.4062  0.2549
   78RES   H25121965   3.056   5.776   4.494  0.5099 -0.1028 -0.5526
   78RES   H25221966   2.999   5.917   4.584 -4.1688 -0.0164 -1.2443
   78RES   H25321967   2.888   5.793   4.527 -0.8421  0.3936  0.3398
   78RES   O25421968   2.756   5.561   4.650 -0.1195  0.0893  0.1338
   78RES   C25521969   2.619   5.551   4.674 -0.4826 -0.4514 -0.7676
   78RES   C25621970   2.526   5.626   4.579 -0.9069  0.2915 -0.0846
   78RES   C25721971   2.382   5.576   4.605  0.1469 -0.0936  1.0224
   78RES   O25821972   2.291   5.633   4.510 -0.0044  0.3466 -1.1342
   78RES   C25921973   2.226   5.750   4.560 -0.2417 -0.7268  0.5443
   78RES   H26021974   2.607   5.442   4.677  0.1648 -0.5624 -2.1202
   78RES   H26121975   2.602   5.585   4.776  0.2882  0.7874 -1.0527
   78RES   H26221976   2.546   5.615   4.473 -1.3996  0.7701 -0.2296
   78RES   H26321977   2.389   5.470   4.583 -4.0116  0.1584 -2.0547
   78RES   H26421978   2.341   5.574   4.706  1.7387 -0.5949  1.6816
   78RES   H26521979   2.175   5.804   4.480  0.0318  0.0650  0.9008
   78RES   H26621980   2.293   5.824   4.602  0.2034 -0.9353  0.1963
   78RES   H26721981   2.149   5.719   4.631 -2.3634 -0.6722 -1.6816
   78RES   O26821982   2.533   5.761   4.628  0.1153 -0.8261 -0.1619
   78RES   C26921983   2.573   5.854   4.524  0.2288 -0.1491  0.2821
   78RES   C27021984   2.550   5.992   4.575  0.6311 -1.0133  0.3277
   78RES   C27121985   2.663   6.033   4.676  0.5225 -0.6475  0.4415
   78RES   O27221986   2.630   6.157   4.730 -0.5832  0.3605  0.5272
   78RES   C27321987   2.731   6.191   4.834 -0.1739 -0.0833 -0.1570
   78RES   H27421988   2.509   5.835   4.438 -0.2713 -1.9628  1.0405
   78RES   H27521989   2.675   5.830   4.495  0.0249  1.6291 -2.0325
   78RES   H27621990   2.539   6.063   4.494 -1.4633  0.5994  1.9711
   78RES   H27721991   2.760   6.028   4.626  1.1894 -4.5347  1.9176
   78RES   H27821992   2.679   5.965   4.760 -0.5814 -1.6512 -0.1490
   78RES   H27921993   2.750   6.115   4.910  0.8302  1.0902  0.7884
   78RES   H28021994   2.689   6.283   4.875  1.8391  0.9409 -0.2974
   78RES   H28121995   2.830   6.218   4.795  0.8193 -0.2902  2.1264
   78RES   H28221996   2.465   6.002   4.642 -0.9307  2.9497 -2.0865
   79RES     O121997   3.667   6.797   6.664  0.6676  0.2887 -0.3897
   79RES     C221998   3.746   6.838   6.776  0.6571 -0.3552 -0.4445
   79RES     C321999   3.741   6.994   6.778  0.3969  1.2571 -0.0981
   79RES     C422000   3.757   7.039   6.920 -0.9385  0.0131 -0.3670
   79RES     O522001   3.688   7.163   6.938  0.0417 -0.6288  0.4890
   79RES     C622002   3.686   7.193   7.081 -0.9025 -0.0400 -0.1373
   79RES     H722003   3.717   6.801   6.874 -1.2219 -0.5143 -1.0428
   79RES     H822004   3.851   6.813   6.765 -0.0097 -4.1487  1.0092
   79RES     H922005   3.640   7.021   6.749  0.4060  1.7635  0.3527
   79RES    H1022006   3.860   7.057   6.950 -0.8601  0.7527 -1.0561
   79RES    H1122007   3.717   6.965   6.990 -0.3720 -2.2019 -2.2968
   79RES    H1222008   3.792   7.218   7.093 -0.5645 -0.3132 -2.2608
   79RES    H1322009   3.627   7.280   7.108 -0.3735  0.3885 -0.3361
   79RES    H1422010   3.665   7.105   7.141 -1.3717  0.4925  0.4774
   79RES    H1522011   3.682   6.859   6.594  0.4713 -0.6506 -1.2711
   79RES    O1622012   3.841   7.042   6.689 -0.2344 -0.1492 -0.1930
   79RES    C1722013   3.839   7.179   6.648  0.3869 -1.2271  0.2038
   79RES    C1822014   3.982   7.210   6.599 -0.4717 -0.9726  0.2202
   79RES    C1922015   4.091   7.158   6.701 -0.2145 -0.1537  0.3509
   79RES    O2022016   4.205   7.252   6.696 -0.1684  0.2974  0.0113
   79RES    C2122017   4.322   7.181   6.749 -0.1232 -0.1328 -0.2595
   79RES    H2222018   3.810   7.240   6.734  1.3940  1.3666 -1.2326
   79RES    H2322019   3.767   7.193   6.568  1.2516 -0.5578 -0.4661
   79RES    H2422020   3.990   7.319   6.602 -0.5692 -0.9448 -0.4749
   79RES    H2522021   4.065   7.158   6.806  1.6102  0.3342  0.8147
   79RES    H2622022   4.121   7.054   6.689 -1.2902 -0.5556  1.1155
   79RES    H2722023   4.403   7.254   6.752  0.2701 -0.6175  2.6656
   79RES    H2822024   4.344   7.091   6.692  1.8885 -0.0861  0.4247
   79RES    H2922025   4.309   7.163   6.856  2.7782 -1.4308 -0.0743
   79RES    O3022026   3.983   7.161   6.458 -0.0084  0.7436 -0.0077
   79RES    C3122027   4.101   7.202   6.393 -0.5882  0.2496  0.4170
   79RES    C3222028   4.108   7.177   6.240  0.1558 -0.4327 -0.1103
   79RES    C3322029   4.249   7.197   6.191 -0.3966 -0.6129  0.1874
   79RES    O3422030   4.268   7.166   6.053 -0.2892 -0.0952 -0.2038
   79RES    C3522031   4.390   7.213   6.002 -0.0264  0.1313  0.2112
   79RES    H3622032   4.106   7.310   6.408  0.7296  0.6329 -2.4914
   79RES    H3722033   4.189   7.155   6.436  0.3974  2.5592  0.9654
   79RES    H3822034   4.088   7.071   6.227 -0.9980 -0.6577  3.0138
   79RES    H3922035   4.318   7.134   6.247  0.3650  0.7304  0.7841
   79RES    H4022036   4.270   7.302   6.208 -0.4110 -0.9479  2.3530
   79RES    H4122037   4.357   7.201   5.899  1.2567 -0.3338 -0.1587
   79RES    H4222038   4.474   7.145   6.019 -0.4633 -0.7582 -1.0633
   79RES    H4322039   4.406   7.314   6.039 -1.6129 -0.2495  2.0303
   79RES    O4422040   4.017   7.268   6.169  0.3761 -0.5397  0.0789
   79RES    C4522041   3.880   7.225   6.159 -0.1338  0.8951 -0.1523
   79RES    C4622042   3.826   7.278   6.035  0.3613  0.2911  0.2708
   79RES    C4722043   3.690   7.213   5.994 -0.4916 -0.4898  0.0828
   79RES    O4822044   3.638   7.258   5.877  0.4296 -0.6519  0.7034
   79RES    C4922045   3.596   7.157   5.798 -0.0327 -0.1491 -0.2904
   79RES    H5022046   3.821   7.254   6.246 -0.3687  0.4765 -0.1738
   79RES    H5122047   3.874   7.118   6.140 -1.0495  0.5096  2.1169
   79RES    H5222048   3.896   7.260   5.953  0.4399  0.3499  0.3241
   79RES    H5322049   3.705   7.106   5.985 -0.4690 -0.5225  0.5103
   79RES    H5422050   3.616   7.238   6.070  0.0373  1.7126 -0.0984
   79RES    H5522051   3.675   7.089   5.767  0.5020  0.0841  0.5558
   79RES    H5622052   3.544   7.200   5.712 -0.7299  0.2235  0.3084
   79RES    H5722053   3.530   7.086   5.848  0.1549 -0.0958  0.0342
   79RES    O5822054   3.807   7.413   6.061 -0.3871  0.2295  0.3948
   79RES    C5922055   3.793   7.500   5.952 -0.3720 -1.0127 -0.0110
   79RES    C6022056   3.829   7.636   5.996 -0.9449  0.4909 -0.4650
   79RES    C6122057   3.772   7.746   5.899 -0.3575  0.7378  0.5719
   79RES    O6222058   3.817   7.715   5.772  0.8956  0.6133 -0.0762
   79RES    C6322059   3.802   7.817   5.671  0.1957 -0.1467 -0.5395
   79RES    H6422060   3.686   7.493   5.934 -0.3775  0.7532 -0.7860
   79RES    H6522061   3.835   7.456   5.861 -3.5985  1.9838 -3.1114
   79RES    H6622062   3.791   7.656   6.096  0.1738  0.1801  0.0262
   79RES    H6722063   3.663   7.750   5.906 -0.6294 -1.4822 -1.6121
   79RES    H6822064   3.817   0.023   5.930  0.6133  1.0263 -1.6549
   79RES    H6922065   3.861   7.793   5.583  2.2333  0.8966  0.5269
   79RES    H7022066   3.821   0.105   5.693 -1.8661 -0.1283  1.4416
   79RES    H7122067   3.702   7.807   5.629 -0.1529 -1.5776  0.5930
   79RES    O7222068   3.966   7.649   5.987  0.4007 -0.0256 -0.2159
   79RES    C7322069   4.024   7.655   6.116 -0.4216  0.2826 -0.0117
   79RES    C7422070   4.177   7.668   6.120  0.3082 -0.0308 -0.6137
   79RES    C7522071   4.221   7.620   6.260 -0.6819 -0.2190 -0.3683
   79RES    O7622072   4.357   7.624   6.278  0.0383 -0.1645  0.0333
   79RES    C7722073   4.440   7.547   6.197  0.2628  0.2470  0.4753
   79RES    H7822074   3.984   7.744   6.166 -1.5186 -1.4548  2.3087
   79RES    H7922075   3.999   7.564   6.170  0.4337 -0.6460 -1.1498
   79RES    H8022076   4.221   7.618   6.034 -0.7003  0.5906 -1.4998
   79RES    H8122077   4.175   7.524   6.279  1.0841 -1.1782 -0.8578
   79RES    H8222078   4.182   7.685   6.339 -1.6394  0.3659 -1.3079
   79RES    H8322079   4.544   7.579   6.201  0.6680 -1.0105  0.1690
   79RES    H8422080   4.409   7.549   6.093  0.3492 -1.8671  0.3990
   79RES    H8522081   4.439   7.447   6.239  0.5553 -0.0341 -0.1815
   79RES    O8622082   4.210   7.806   6.125 -0.1751  0.1653  0.0743
   79RES    C8722083   4.230   0.046   5.996 -0.0227 -1.1072 -0.7842
   79RES    C8822084   4.365   0.010   5.930  0.1298  0.8531 -0.2007
   79RES    C8922085   4.349   0.030   5.778 -0.1159 -0.1408 -0.0449
   79RES    O9022086   4.308   0.159   5.748  0.0680 -0.3077 -0.4881
   79RES    C9122087   4.252   0.169   5.623  0.1220 -0.0678 -0.0132
   79RES    H9222088   4.141   0.031   5.935  1.1603  1.6023 -3.3262
   79RES    H9322089   4.222   0.155   5.999  0.1618 -1.0137 -2.8314
   79RES    H9422090   4.385   7.722   5.947 -3.4059  0.0541 -0.5579
   79RES    H9522091   4.438   7.812   5.727 -0.3657 -2.7326  1.1842
   79RES    H9622092   4.268   7.786   5.738  0.0113  0.5921 -1.4287
   79RES    H9722093   4.228   0.275   5.611 -0.4640  0.0879  2.3052
   79RES    H9822094   4.306   0.116   5.545 -0.6636  1.3113 -1.5165
   79RES    H9922095   4.153   0.122   5.623 -0.1620  0.4826 -2.0050
   79RES   O10022096   4.471   0.096   5.967  0.0001  0.2331 -0.1807
   79RES   C10122097   4.525   0.075   6.101  0.5842 -0.6083 -0.1855
   79RES   C10222098   4.643   0.160   6.138  0.7782  0.2071 -0.1600
   79RES   C10322099   4.602   0.306   6.155  0.1108  0.2652 -0.4337
   79RES   O10422100   4.552   0.334   6.286 -0.0935 -0.8122  0.5664
   79RES   C10522101   4.508   0.470   6.293  0.5216  0.2940  1.5554
   79RES   H10622102   4.549   7.786   6.113  2.5584 -0.1304  0.2315
   79RES   H10722103   4.450   0.098   6.177  1.6071  0.7151  0.4326
   79RES   H10822104   4.667   0.128   6.240  2.3248  2.8740  0.3693
   79RES   H10922105   4.540   0.340   6.073  0.9181  2.3505 -0.1996
   79RES   H11022106   4.684   0.377   6.145  0.1885  0.1421 -0.6683
   79RES   H11122107   4.454   0.491   6.386 -1.2062  1.7241  0.2760
   79RES   H11222108   4.440   0.495   6.212  2.0628 -1.8617 -0.4589
   79RES   H11322109   4.591   0.541   6.282  0.8402 -0.4238 -0.8677
   79RES   O11422110   4.768   0.134   6.073  0.0140  0.3376  0.4649
   79RES   C11522111   4.775   0.200   5.944  0.5829 -0.2748 -0.5484
   79RES   C11622112   4.904   0.157   5.862 -0.0204  0.5829  0.4643
   79RES   C11722113   5.032   0.159   5.953  0.1180 -0.2767  0.2922
   79RES   O11822114   5.157   0.130   5.881  0.3062 -0.4024  0.7688
   79RES   C11922115   5.265   0.148   5.977  0.2496 -0.0404  0.3807
   79RES   H12022116   4.691   0.189   5.876 -0.6783 -0.6524  1.0438
   79RES   H12122117   4.774   0.307   5.967  1.1232 -0.1396 -1.1514
   79RES   H12222118   4.912   0.235   5.786  1.0138  0.5309  0.5107
   79RES   H12322119   5.032   0.247   6.016  2.3783 -0.3663  0.4268
   79RES   H12422120   5.021   0.078   6.026 -0.3308 -0.9299 -0.4936
   79RES   H12522121   5.270   0.253   6.007 -2.6549 -0.1644  1.3811
   79RES   H12622122   5.365   0.126   5.938 -0.8662 -1.3369 -1.8857
   79RES   H12722123   5.256   0.092   6.069  2.7452  0.7786  1.1727
   79RES   O12822124   4.872   0.028   5.801  0.6643 -0.0396 -0.3644
   79RES   C12922125   4.856   0.015   5.659  0.4999 -0.4551  0.4688
   79RES   C13022126   4.723   0.081   5.608  0.0648 -0.5305  0.0909
   79RES   C13122127   4.685   0.028   5.470 -0.6027  0.0560  0.0357
   79RES   O13222128   4.552   7.796   5.480  0.0456 -0.3218 -0.2019
   79RES   C13322129   4.497   7.745   5.356 -0.4323 -0.5353  0.2571
   79RES   H13422130   4.942   0.060   5.610 -0.2699  0.5369  0.0255
   79RES   H13522131   4.859   7.725   5.635 -1.3917 -0.8058  1.6341
   79RES   H13622132   4.651   0.053   5.684  0.9469  0.3754  1.2899
   79RES   H13722133   4.755   7.771   5.431  1.8044  2.8220 -1.1263
   79RES   H13822134   4.685   0.104   5.392  1.3497 -0.1065 -0.1498
   79RES   H13922135   4.391   7.723   5.374 -0.2222 -1.7309  0.0636
   79RES   H14022136   4.513   7.809   5.269  1.7837  0.4671  1.3816
   79RES   H14122137   4.543   7.650   5.330 -1.0515 -0.6073 -0.6176
   79RES   O14222138   4.735   0.223   5.609  1.0258  0.7513 -0.2091
   79RES   C14322139   4.609   0.286   5.600 -0.5002  0.1626  0.1692
   79RES   C14422140   4.644   0.435   5.649 -0.2220 -0.5110  0.3608
   79RES   C14522141   4.516   0.502   5.706 -0.1307  0.8265  0.2918
   79RES   O14622142   4.542   0.621   5.775  0.1663  0.3668  0.0181
   79RES   C14722143   4.533   0.736   5.701  0.1049 -0.5129  0.2778
   79RES   H14822144   4.555   0.277   5.505 -0.4766 -3.1433  0.4012
   79RES   H14922145   4.545   0.254   5.682 -0.1987  0.0828  0.3719
   79RES   H15022146   4.719   0.432   5.728  1.6079  0.6324 -1.2804
   79RES   H15122147   4.485   0.434   5.786  0.6409  0.8534  0.6259
   79RES   H15222148   4.446   0.497   5.623  0.9278 -1.4247 -0.5191
   79RES   H15322149   4.609   0.737   5.623  2.4175 -0.8263  2.4401
   79RES   H15422150   4.552   0.828   5.755  1.3808  0.5321 -1.9184
   79RES   H15522151   4.439   0.750   5.649  0.2843  0.8204  0.3081
   79RES   O15622152   4.673   0.518   5.536 -0.2710 -0.4167  0.0208
   79RES   C15722153   4.809   0.501   5.501  0.0375  0.1585  1.2571
   79RES   C15822154   4.876   0.627   5.452 -0.4584  0.1404  0.3817
   79RES   C15922155   5.023   0.598   5.417 -0.0549  0.2956 -0.3485
   79RES   O16022156   5.086   0.702   5.341  0.2898  0.0132  0.3955
   79RES   C16122157   5.218   0.679   5.300  0.1201 -0.4468 -0.3764
   79RES   H16222158   4.869   0.438   5.566  0.5017 -0.5908  0.1152
   79RES   H16322159   4.803   0.438   5.412 -1.8787 -0.3323  1.6962
   79RES   H16422160   4.823   0.660   5.363 -1.1448 -2.4433 -0.2191
   79RES   H16522161   5.067   0.560   5.509  0.8836 -1.1921 -1.3835
   79RES   H16622162   5.022   0.506   5.359  2.3960  0.1160 -0.1668
   79RES   H16722163   5.256   0.766   5.246 -0.8966 -0.2069 -0.7133
   79RES   H16822164   5.252   0.586   5.255  0.3242 -0.1475 -0.8372
   79RES   H16922165   5.274   0.681   5.394 -1.1571 -0.0332  0.3905
   79RES   O17022166   4.870   0.725   5.557  0.3200 -0.0630 -0.3123
   79RES   C17122167   4.928   0.855   5.520  0.4616  0.0229  0.0252
   79RES   C17222168   4.887   0.963   5.618  0.2872 -0.1374  0.2159
   79RES   C17322169   4.751   1.013   5.577 -0.1125  0.2299  0.2523
   79RES   O17422170   4.677   1.064   5.688 -0.4068 -0.5241  0.6915
   79RES   C17522171   4.557   1.135   5.652  0.2221  0.1249 -0.5207
   79RES   H17622172   4.896   0.880   5.419  3.8830  1.1143 -0.8684
   79RES   H17722173   5.037   0.856   5.518  0.4430  1.0899 -0.8095
   79RES   H17822174   4.887   0.913   5.715 -0.5818  0.9539  0.7824
   79RES   H17922175   4.772   1.093   5.506  0.8791  0.8882  1.2796
   79RES   H18022176   4.695   0.931   5.531  0.3406 -0.4234  0.8478
   79RES   H18122177   4.576   1.203   5.569  2.1115 -0.7270 -0.8143
   79RES   H18222178   4.519   1.190   5.738  0.4991 -1.0566  0.3654
   79RES   H18322179   4.475   1.066   5.631 -0.4463  0.7152  0.1706
   79RES   O18422180   4.980   1.068   5.607  0.1157  0.0601  0.1850
   79RES   C18522181   5.033   1.116   5.729  0.0734  0.4208 -0.5929
   79RES   C18622182   5.145   1.011   5.773 -0.6779  0.3272  0.2445
   79RES   C18722183   5.223   1.040   5.907  0.1616  0.6197 -0.0321
   79RES   O18822184   5.280   0.927   5.969  0.0212 -0.0601 -0.5612
   79RES   C18922185   5.188   0.846   6.028  0.2189  0.0096 -0.0222
   79RES   H19022186   4.959   1.130   5.808 -0.6940 -0.4663 -1.1582
   79RES   H19122187   5.078   1.214   5.710 -2.4025  1.5349 -0.8720
   79RES   H19222188   5.098   0.913   5.777 -2.3149  1.1213  1.0407
   79RES   H19322189   5.152   1.092   5.972 -0.3435 -0.7695  0.5574
   79RES   H19422190   5.307   1.108   5.893 -0.8479  1.8937 -0.0179
   79RES   H19522191   5.122   0.915   6.080  1.1858  2.0814 -1.4950
   79RES   H19622192   5.142   0.773   5.960  0.0237 -0.6204  0.7807
   79RES   H19722193   5.230   0.782   6.105 -0.9338  0.0572  0.6550
   79RES   O19822194   5.245   1.023   5.668 -0.0786  0.3715 -0.0067
   79RES   C19922195   5.328   0.905   5.664  0.4916  0.4732 -0.6583
   79RES   C20022196   5.437   0.921   5.557 -0.8648 -0.0932 -0.0864
   79RES   C20122197   5.508   0.788   5.529  0.3573  0.4879 -0.1024
   79RES   O20222198   5.559   0.778   5.396  0.3762  0.1159  0.2324
   79RES   C20322199   5.609   0.653   5.371  0.3702 -0.0994  0.6670
   79RES   H20422200   5.262   0.822   5.636  0.2869  0.0324  1.1020
   79RES   H20522201   5.381   0.890   5.757 -0.1345  0.1862 -0.3385
   79RES   H20622202   5.400   0.948   5.458 -0.2765 -0.6604 -0.4615
   79RES   H20722203   5.595   0.763   5.589  0.1809 -2.5750 -1.0141
   79RES   H20822204   5.434   0.711   5.553  1.8475 -0.7401  0.7044
   79RES   H20922205   5.604   0.582   5.454 -0.9604  0.3976  1.0154
   79RES   H21022206   5.717   0.666   5.356  0.2322  0.1501 -0.1007
   79RES   H21122207   5.560   0.605   5.287  0.2471  2.5125 -0.8329
   79RES   O21222208   5.545   1.005   5.596  0.2380 -0.0182 -0.5350
   79RES   C21322209   5.548   1.119   5.520 -0.2881  0.4393  0.3695
   79RES   C21422210   5.684   1.196   5.543 -0.0666 -0.1537  0.6549
   79RES   C21522211   5.660   1.350   5.543  0.6907  0.2572 -0.2724
   79RES   O21622212   5.562   1.386   5.447  0.5237  0.2420  0.6094
   79RES   C21722213   5.524   1.521   5.423  0.0598  0.3477 -0.1930
   79RES   H21822214   5.471   1.188   5.555 -0.4424 -1.7942  4.7138
   79RES   H21922215   5.517   1.098   5.418 -0.6521 -1.3367  0.8271
   79RES   H22022216   5.725   1.192   5.644 -0.3978 -0.1402  0.7877
   79RES   H22122217   5.624   1.376   5.642  2.3621 -0.5710  0.5765
   79RES   H22222218   5.748   1.408   5.517  1.0925  0.6715  1.9425
   79RES   H22322219   5.614   1.576   5.396  0.5969 -0.4698 -0.1041
   79RES   H22422220   5.488   1.558   5.519 -0.2187 -2.6498  0.9102
   79RES   H22522221   5.454   1.531   5.341  1.5734  0.9932 -1.4288
   79RES   O22622222   5.778   1.170   5.441  0.0932 -0.1519 -0.1247
   79RES   C22722223   5.820   1.038   5.425  0.2702  0.5007 -0.6981
   79RES   C22822224   5.897   0.983   5.546  0.2379  0.0037  0.0711
   79RES   C22922225   5.947   0.840   5.513 -0.3089  0.3614  0.2840
   79RES   O23022226   6.057   0.844   5.417 -0.0684 -0.1247 -0.5353
   79RES   C23122227   6.125   0.721   5.429 -0.7146  0.2664  0.3051
   79RES   H23222228   5.884   1.028   5.337  0.4293 -0.3499 -0.4886
   79RES   H23322229   5.743   0.961   5.420  1.7611 -1.1205  0.4944
   79RES   H23422230   5.828   0.976   5.629  0.0579 -1.2356 -0.1695
   79RES   H23522231   5.866   0.772   5.485 -1.2087  0.3489  2.8027
   79RES   H23622232   5.980   0.800   5.609  0.0110  1.2053  0.5266
   79RES   H23722233   6.190   0.724   5.516 -0.5090  3.0066  0.1005
   79RES   H23822234   6.187   0.704   5.341 -2.1187  1.2246 -0.8887
   79RES   H23922235   6.055   0.638   5.434  1.1276 -1.3755 -0.5835
   79RES   O24022236   6.012   1.062   5.580 -0.0842  0.3616  0.1493
   79RES   C24122237   6.024   1.076   5.719  0.3146  0.0660  0.1529
   79RES   C24222238   6.148   1.163   5.742  0.2589 -0.0517 -0.7527
   79RES   C24322239   6.151   1.236   5.876 -0.2373 -0.1193  0.1252
   79RES   O24422240   6.230   1.350   5.854  0.1207 -0.2693  0.5211
   79RES   C24522241   6.370   1.335   5.885  0.1614  0.3258  0.3685
   79RES   H24622242   6.035   0.977   5.761  2.5433  0.0949 -0.2884
   79RES   H24722243   5.946   1.137   5.765 -0.0041  0.3123 -0.6924
   79RES   H24822244   6.160   1.250   5.678 -0.1203  2.2132  2.1388
   79RES   H24922245   6.049   1.257   5.908 -0.6921 -0.0205 -1.3247
   79RES   H25022246   6.189   1.159   5.943 -0.9143 -0.8548 -0.3204
   79RES   H25122247   6.391   1.299   5.986  0.9766 -1.2135 -0.3325
   79RES   H25222248   6.422   1.430   5.875  0.1689  0.1213 -1.5999
   79RES   H25322249   6.410   1.265   5.812  0.2086 -1.2592  1.8605
   79RES   O25422250   6.258   1.073   5.744 -0.3422 -0.5388 -0.5895
   79RES   C25522251   6.333   1.060   5.622 -0.0179  0.7912 -0.5380
   79RES   C25622252   6.437   0.953   5.646 -0.0180  0.8971  0.0100
   79RES   C25722253   6.526   0.930   5.515  0.4065  0.0727 -0.3254
   79RES   O25822254   6.612   0.819   5.524 -0.2942 -0.4320 -0.3873
   79RES   C25922255   6.657   0.785   5.392 -0.1625  0.2273  0.2899
   79RES   H26022256   6.248   1.035   5.559  0.4942 -1.8465 -0.2171
   79RES   H26122257   6.383   1.152   5.590  1.1401  0.0719 -0.8197
   79RES   H26222258   6.384   0.860   5.664  1.3226  0.4754  1.9196
   79RES   H26322259   6.458   0.899   5.436 -1.3451 -0.3116  1.2917
   79RES   H26422260   6.578   1.018   5.477  0.4069 -0.2538 -1.0820
   79RES   H26522261   6.568   0.746   5.343 -0.9287  0.0708  1.7821
   79RES   H26622262   6.734   0.708   5.389 -0.1923  0.1724  0.8504
   79RES   H26722263   6.691   0.868   5.331 -0.4654  0.5299  0.5316
   79RES   O26822264   6.524   0.989   5.751 -0.2856 -0.0511 -0.6390
   79RES   C26922265   6.486   0.926   5.877  0.4391  0.0592  0.7970
   79RES   C27022266   6.555   0.995   5.999 -0.4706  0.5918 -0.0398
   79RES   C27122267   6.509   0.942   6.135 -0.1595 -0.0143 -0.8607
   79RES   O27222268   6.530   0.802   6.152 -1.1189  0.4777 -0.3536
   79RES   C27322269   6.480   0.747   6.275  0.0677 -0.3885 -0.3934
   79RES   H27422270   6.515   0.821   5.871  0.1892  0.1342 -2.8276
   79RES   H27522271   6.378   0.928   5.892  0.3833  0.6265  0.3133
   79RES   H27622272   6.660   0.980   5.975 -0.2779 -0.8774  1.6401
   79RES   H27722273   6.406   0.973   6.147 -0.1401  0.2539 -1.3525
   79RES   H27822274   6.570   0.992   6.209 -2.2279  0.6102  0.4440
   79RES   H27922275   6.375   0.773   6.291  0.0164 -0.3480 -0.7860
   79RES   H28022276   6.533   0.791   6.359  1.8247 -0.1257 -1.6090
   79RES   H28122277   6.494   0.639   6.267  2.1783 -0.2481  1.2391
   79RES   H28222278   6.533   1.102   5.997 -0.7907  0.5763  1.8494
   80RES     O122279   1.816   3.925   1.214 -0.1082  0.1747 -0.1382
   80RES     C222280   1.801   3.790   1.217 -0.7643  0.6449 -0.5270
   80RES     C322281   1.885   3.706   1.126 -0.7675 -0.0509 -0.1587
   80RES     C422282   1.874   3.560   1.162  0.1079  0.3630  0.2926
   80RES     O522283   1.994   3.485   1.145  0.2039  0.1048  0.3819
   80RES     C622284   1.977   3.347   1.155 -0.0395  0.8973  0.3669
   80RES     H722285   1.834   3.762   1.317 -0.9629  2.4087  0.0416
   80RES     H822286   1.695   3.771   1.199 -1.0999 -0.2811  2.1029
   80RES     H922287   1.987   3.744   1.129 -0.3766 -1.1040  0.0630
   80RES    H1022288   1.801   3.515   1.095 -0.4006  0.0512  1.0548
   80RES    H1122289   1.845   3.553   1.266 -2.9552  0.9849 -0.4665
   80RES    H1222290   2.063   3.293   1.116 -0.8437 -0.5881  0.6110
   80RES    H1322291   1.972   3.320   1.260 -3.4551  0.2035  0.0916
   80RES    H1422292   1.900   3.296   1.098  0.3018  0.5184  0.2493
   80RES    H1522293   1.810   3.955   1.124  0.9460  0.2514 -0.1845
   80RES    O1622294   1.839   3.728   0.989  0.1798  0.2424  0.3262
   80RES    C1722295   1.930   3.716   0.882 -0.5926 -0.2632  0.7165
   80RES    C1822296   1.879   3.736   0.739 -0.1295 -0.0259  0.3853
   80RES    C1922297   1.996   3.759   0.636 -0.6470  0.0938 -0.5045
   80RES    O2022298   1.947   3.791   0.499  0.2254 -0.1620 -0.6586
   80RES    C2122299   1.905   3.669   0.428  0.9083 -0.1391  0.1818
   80RES    H2222300   1.966   3.613   0.891  1.4095  0.2566 -0.9019
   80RES    H2322301   2.006   3.792   0.900 -1.8629  0.6353  2.5142
   80RES    H2422302   1.825   3.831   0.743 -0.4500 -0.2526  1.6899
   80RES    H2522303   2.052   3.844   0.674 -2.4880  1.1199 -0.0500
   80RES    H2622304   2.074   3.682   0.643 -0.3579  0.5578  1.8879
   80RES    H2722305   1.814   3.628   0.471  0.4534 -0.9400 -1.5125
   80RES    H2822306   1.986   3.599   0.449  1.1167 -0.1686 -0.7024
   80RES    H2922307   1.882   3.678   0.322  2.0188  4.3485  0.2214
   80RES    O3022308   1.807   3.620   0.699 -0.7254  0.2835 -0.1690
   80RES    C3122309   1.676   3.606   0.751  0.3121  0.0603 -0.1310
   80RES    C3222310   1.604   3.509   0.666  0.5631 -0.8756  0.2214
   80RES    C3322311   1.456   3.541   0.647  0.2606 -1.0936 -0.2570
   80RES    O3422312   1.409   3.462   0.545 -0.6985 -0.0828  0.0851
   80RES    C3522313   1.291   3.512   0.483  0.8654  0.4948 -0.3987
   80RES    H3622314   1.679   3.574   0.855  2.5221 -1.2124 -0.5402
   80RES    H3722315   1.634   3.706   0.760  1.2844  0.6996 -2.3582
   80RES    H3822316   1.650   3.502   0.567  1.0250  0.2795  0.3558
   80RES    H3922317   1.445   3.643   0.610 -1.4977 -1.3069 -0.3728
   80RES    H4022318   1.396   3.537   0.738  2.9603 -1.9326  1.5371
   80RES    H4122319   1.303   3.601   0.421  0.3407  0.0183 -1.1877
   80RES    H4222320   1.224   3.543   0.563  1.4198 -0.5206  0.4743
   80RES    H4322321   1.245   3.429   0.429 -1.9655  1.6676  0.1337
   80RES    O4422322   1.612   3.380   0.729  0.0971  0.1702  0.3568
   80RES    C4522323   1.739   3.314   0.722 -0.2827 -0.0321 -0.1098
   80RES    C4622324   1.766   3.250   0.580  0.1333  0.3816 -0.4703
   80RES    C4722325   1.916   3.222   0.556 -0.6278  0.5277 -0.5329
   80RES    O4822326   1.938   3.193   0.415  0.2761 -0.6483  0.1461
   80RES    C4922327   2.077   3.161   0.391  0.8271 -0.3706  0.1939
   80RES    H5022328   1.756   3.239   0.800 -0.8453 -1.1522 -1.0501
   80RES    H5122329   1.822   3.382   0.739 -1.7376  1.8826 -0.5005
   80RES    H5222330   1.730   3.315   0.501  1.8379  1.4238 -0.4204
   80RES    H5322331   1.965   3.316   0.580 -0.7802  0.0166  1.8739
   80RES    H5422332   1.959   3.144   0.619  0.5341  1.3234 -0.3431
   80RES    H5522333   2.098   3.174   0.284 -0.2839  2.0518  0.2533
   80RES    H5622334   2.100   3.064   0.435  1.1419 -1.2070 -1.7382
   80RES    H5722335   2.142   3.230   0.445 -2.3107  2.3548  0.6228
   80RES    O5822336   1.709   3.120   0.584  0.9350 -0.1925 -0.3158
   80RES    C5922337   1.569   3.122   0.552 -0.6857 -0.1403 -0.4315
   80RES    C6022338   1.522   3.139   0.408 -0.1983 -0.2335  0.0485
   80RES    C6122339   1.370   3.108   0.392  0.1638  0.4216  0.3651
   80RES    O6222340   1.330   3.150   0.262  0.0891 -0.4368  0.4023
   80RES    C6322341   1.191   3.118   0.228 -1.0819  0.3248  0.5013
   80RES    H6422342   1.514   3.190   0.618 -0.4511  0.7807 -1.1617
   80RES    H6522343   1.540   3.022   0.584  0.5693 -0.3610  0.0159
   80RES    H6622344   1.538   3.244   0.381  0.9182  0.1139  1.9517
   80RES    H6722345   1.345   3.003   0.409  0.8586  0.0721 -0.6978
   80RES    H6822346   1.301   3.172   0.447  0.1151  2.2699 -1.7759
   80RES    H6922347   1.180   3.012   0.208  0.6993  0.4403 -1.2403
   80RES    H7022348   1.155   3.165   0.136  0.3544 -2.0004 -1.3049
   80RES    H7122349   1.114   3.141   0.301 -2.0146  2.8307 -1.2251
   80RES    O7222350   1.588   3.044   0.331  0.4517 -0.4300 -0.3359
   80RES    C7322351   1.662   3.100   0.226  0.0152  0.0037 -0.6810
   80RES    C7422352   1.726   2.984   0.145  0.7763  0.1743  0.1583
   80RES    C7522353   1.843   3.033   0.063  0.0244  0.2983 -0.1272
   80RES    O7622354   1.934   2.931   0.017 -0.7344 -0.2926 -0.3607
   80RES    C7722355   1.883   2.847   7.737  0.6858 -0.3044  0.3903
   80RES    H7822356   1.590   3.154   0.164 -0.1184  0.7297  0.0909
   80RES    H7922357   1.734   3.164   0.276  0.4150 -0.2963 -0.8710
   80RES    H8022358   1.750   2.897   0.205 -0.6315  0.2608  0.8725
   80RES    H8122359   1.912   3.098   0.117  1.0532 -0.1919 -0.8505
   80RES    H8222360   1.802   3.091   7.798 -0.4479 -0.0859 -0.1653
   80RES    H8322361   1.803   2.794   7.788  2.3569 -1.0695  2.3244
   80RES    H8422362   1.964   2.777   7.716 -0.1256 -1.0304 -0.3613
   80RES    H8522363   1.857   2.912   7.654  0.1573  1.3762  1.8265
   80RES    O8622364   1.632   2.949   0.049  0.0972  0.4293 -0.0425
   80RES    C8722365   1.520   2.870   0.081 -0.3584 -0.2626 -0.3775
   80RES    C8822366   1.433   2.849   7.779 -0.7890 -0.6805 -0.1997
   80RES    C8922367   1.324   2.744   7.805  0.5548  0.0879 -0.3289
   80RES    O9022368   1.247   2.795   0.096 -0.5946  0.5434 -0.2767
   80RES    C9122369   1.161   2.699   0.153  0.2013  0.5483  0.2156
   80RES    H9222370   1.544   2.774   0.125  0.8068  0.1550 -0.1026
   80RES    H9322371   1.463   2.912   0.164 -0.2014 -2.2510  0.7647
   80RES    H9422372   1.491   2.815   7.693 -0.6017  2.2366 -1.2835
   80RES    H9522373   1.263   2.727   7.716  0.8500  0.4242 -0.5945
   80RES    H9622374   1.366   2.648   0.018 -0.4721 -0.7895 -1.5938
   80RES    H9722375   1.195   2.596   0.161  1.4959  0.7851 -1.9347
   80RES    H9822376   1.131   2.736   0.251  1.6642  0.4080  0.7253
   80RES    H9922377   1.070   2.683   0.095 -1.3489  1.9476  2.1730
   80RES   O10022378   1.367   2.970   7.741 -0.4682  0.5495  0.4862
   80RES   C10122379   1.328   2.991   7.608 -0.6405  0.3470  0.2001
   80RES   C10222380   1.255   3.125   7.607  0.4533  0.1812  0.4866
   80RES   C10322381   1.174   3.136   7.475  0.0928 -0.3128  0.5247
   80RES   O10422382   1.074   3.039   7.459  0.0820  0.1394 -0.3320
   80RES   C10522383   0.952   3.062   7.522 -0.1987 -0.2049 -0.2478
   80RES   H10622384   1.264   2.904   7.593 -1.7576  1.3041 -0.6415
   80RES   H10722385   1.417   2.996   7.546 -1.4999  0.3685 -1.0503
   80RES   H10822386   1.193   3.122   7.696 -1.0032 -2.4625 -0.5763
   80RES   H10922387   1.245   3.150   7.394  0.4853 -2.4273  0.4896
   80RES   H11022388   1.135   3.237   7.490  1.2444  0.2178  0.1019
   80RES   H11122389   0.888   2.976   7.501  1.5534 -1.2320 -1.4447
   80RES   H11222390   0.897   3.151   7.491 -1.9022 -1.4416 -0.8674
   80RES   H11322391   0.969   3.075   7.629 -0.5068  1.4223 -0.3733
   80RES   O11422392   1.342   3.237   7.611  0.1531 -0.1892 -0.2367
   80RES   C11522393   1.430   3.245   7.727 -0.4585 -0.6010 -0.4677
   80RES   C11622394   1.484   3.389   7.749 -0.2254  0.1005 -0.1580
   80RES   C11722395   1.554   3.413   0.067  1.1254  0.4074 -0.3702
   80RES   O11822396   1.571   3.551   0.081 -0.3477  0.3003 -0.2733
   80RES   C11922397   1.619   3.588   0.211 -0.0393  0.0050 -0.2016
   80RES   H12022398   1.360   3.217   7.806 -2.1040  1.3912 -1.1804
   80RES   H12122399   1.519   3.183   7.731 -0.9025 -1.2308 -0.1231
   80RES   H12222400   1.398   3.454   7.738 -1.5144 -1.3086  1.3361
   80RES   H12322401   1.479   3.380   0.139 -1.5814  1.9085 -2.3773
   80RES   H12422402   1.645   3.353   0.064  0.5089 -1.0845  5.1608
   80RES   H12522403   1.628   3.502   0.277 -1.4456 -0.2081 -0.2710
   80RES   H12622404   1.541   3.652   0.254  0.0137 -0.6156  0.8267
   80RES   H12722405   1.701   3.660   0.216  0.9862 -1.2935  2.7047
   80RES   O12822406   1.573   3.430   7.646  0.3617 -0.0608  0.7865
   80RES   C12922407   1.548   3.552   7.575 -0.0558 -0.5963 -0.7259
   80RES   C13022408   1.668   3.598   7.484 -0.2193 -0.8418 -0.2026
   80RES   C13122409   1.664   3.747   7.454  0.0201  0.2621 -0.0587
   80RES   O13222410   1.541   3.803   7.408  0.3275  0.8172  0.2213
   80RES   C13322411   1.540   3.913   7.320 -0.2582  0.2691  0.2122
   80RES   H13422412   1.456   3.570   7.518  0.3058  1.0225 -0.8141
   80RES   H13522413   1.539   3.626   7.654  0.0041  0.9985 -2.1949
   80RES   H13622414   1.758   3.576   7.541 -0.4590  0.8290  0.8337
   80RES   H13722415   1.739   3.772   7.379 -1.4840  3.0308 -0.7393
   80RES   H13822416   1.692   3.806   7.542  0.4925 -2.2007  1.4733
   80RES   H13922417   1.441   3.912   7.274  0.6208  2.2115 -1.7814
   80RES   H14022418   1.546   4.008   7.373  1.2100 -1.1923  2.7653
   80RES   H14122419   1.613   3.897   7.240 -2.1274 -1.1356 -1.2751
   80RES   O14222420   1.673   3.523   7.365 -0.1017 -0.4756  0.2208
   80RES   C14322421   1.802   3.507   7.311  0.9254 -0.0910 -0.0029
   80RES   C14422422   1.785   3.441   7.175  0.6508 -0.3107  1.0942
   80RES   C14522423   1.912   3.374   7.131 -0.7529 -0.4510 -0.1954
   80RES   O14622424   1.886   3.312   7.008 -0.5108 -0.2319  0.0372
   80RES   C14722425   1.991   3.229   6.965  0.5075  0.5431 -0.0237
   80RES   H14822426   1.864   3.596   7.304  0.2823  0.3199 -0.5681
   80RES   H14922427   1.851   3.444   7.385 -0.7531  0.0018  1.2438
   80RES   H15022428   1.706   3.366   7.169  0.3090 -0.0091  1.7366
   80RES   H15122429   1.939   3.299   7.205 -0.3167 -0.1392 -0.0430
   80RES   H15222430   2.000   3.436   7.115 -0.2178 -0.9997  0.5691
   80RES   H15322431   2.074   3.294   6.935  0.6197 -0.4467 -1.8858
   80RES   H15422432   1.951   3.175   6.879  1.4128  0.0832 -0.1567
   80RES   H15522433   2.026   3.161   7.042 -0.1946  0.0086 -0.1727
   80RES   O15622434   1.767   3.551   7.086 -0.0974 -0.6065  0.5390
   80RES   C15722435   1.636   3.610   7.077  0.8528  0.7809  0.6168
   80RES   C15822436   1.626   3.725   6.970  0.4070 -0.0181 -0.1977
   80RES   C15922437   1.484   3.782   6.966  0.4309  0.6787  0.0378
   80RES   O16022438   1.482   3.910   6.892 -0.5146  0.4343 -0.0235
   80RES   C16122439   1.490   3.896   6.753  0.4452 -0.7356 -0.2405
   80RES   H16222440   1.564   3.534   7.045 -0.2867  2.0941 -0.0011
   80RES   H16322441   1.599   3.645   7.173  0.0804  0.7444  0.3365
   80RES   H16422442   1.695   3.807   6.991 -0.9645  1.2096 -0.4168
   80RES   H16522443   1.401   3.718   6.937  0.1044  1.0405  0.1758
   80RES   H16622444   1.475   3.808   7.072 -1.6167  0.0281  0.0407
   80RES   H16722445   1.472   3.994   6.709 -0.4320 -0.6249  0.3415
   80RES   H16822446   1.422   3.820   6.716  0.1760 -0.3071 -0.6318
   80RES   H16922447   1.581   3.857   6.709  0.8584 -0.7475  0.6249
   80RES   O17022448   1.651   3.675   6.838 -0.4178 -0.0550  0.2350
   80RES   C17122449   1.792   3.662   6.804 -0.3717  0.2350  0.6847
   80RES   C17222450   1.803   3.578   6.674  0.1650 -0.0578  0.8009
   80RES   C17322451   1.943   3.529   6.654 -0.3534 -0.0475 -0.1010
   80RES   O17422452   1.945   3.389   6.593  0.1631 -0.4481 -0.3250
   80RES   C17522453   2.064   3.318   6.606  0.3897 -0.3356  0.2648
   80RES   H17622454   1.845   3.619   6.888  1.9789 -1.1727 -1.4568
   80RES   H17722455   1.830   3.762   6.783 -1.1458  0.4936  0.4870
   80RES   H17822456   1.732   3.497   6.687 -0.7822  0.7811  0.9065
   80RES   H17922457   1.993   3.602   6.590 -2.9589  1.6220 -0.2906
   80RES   H18022458   1.998   3.538   6.748 -0.9354  0.3481  0.2008
   80RES   H18122459   2.106   3.309   6.706 -0.7898  0.7579  0.8602
   80RES   H18222460   2.146   3.362   6.549  0.1112 -0.5145 -0.2844
   80RES   H18322461   2.049   3.222   6.555 -1.7025  0.8883 -1.5145
   80RES   O18422462   1.768   3.673   6.571  1.3591 -0.1897 -0.0465
   80RES   C18522463   1.764   3.621   6.437  0.1191 -0.1745 -0.3687
   80RES   C18622464   1.705   3.729   6.350  0.5664 -0.3798  0.0030
   80RES   C18722465   1.600   3.685   6.246 -0.5399 -0.2227  0.4937
   80RES   O18822466   1.511   3.787   6.221 -0.0066  0.0041 -0.1678
   80RES   C18922467   1.562   3.904   6.158  0.1345  0.0152  0.1152
   80RES   H19022468   1.687   3.545   6.453  0.3760  0.2092  3.0744
   80RES   H19122469   1.850   3.562   6.405 -0.0832 -0.6563 -0.0374
   80RES   H19222470   1.659   3.805   6.412  0.7953 -0.7595  0.6475
   80RES   H19322471   1.547   3.601   6.292  0.0850  0.0943  1.7972
   80RES   H19422472   1.644   3.639   6.158  0.4350 -0.4997  1.1210
   80RES   H19522473   1.621   3.902   6.066  1.4710 -0.2759  0.9651
   80RES   H19622474   1.479   3.964   6.122 -0.4476 -1.5525 -1.2037
   80RES   H19722475   1.608   3.965   6.236 -1.0603  1.7446 -0.5168
   80RES   O19822476   1.817   3.787   6.276 -0.0871 -0.0891  0.0378
   80RES   C19922477   1.884   3.897   6.332 -0.4708 -0.8606  0.2886
   80RES   C20022478   2.014   3.930   6.266 -0.0850  0.5030 -1.0896
   80RES   C20122479   2.067   4.058   6.337  0.6862  0.0866 -1.0421
   80RES   O20222480   2.210   4.063   6.327 -0.2938  0.9020  0.0331
   80RES   C20322481   2.258   4.192   6.343 -0.5854  0.1362  0.6691
   80RES   H20422482   1.892   3.881   6.440  2.9041  0.1566  0.2268
   80RES   H20522483   1.821   3.983   6.311 -0.8045 -1.3650 -0.8499
   80RES   H20622484   2.081   3.846   6.282 -0.1093  0.9479  1.5834
   80RES   H20722485   2.018   4.149   6.302  0.2205  1.1166  2.1181
   80RES   H20822486   2.044   4.052   6.443  1.6031  2.1695 -0.7141
   80RES   H20922487   2.219   4.244   6.430  0.5685  1.8129  0.2045
   80RES   H21022488   2.226   4.235   6.248 -0.7114 -0.6819  0.3377
   80RES   H21122489   2.364   4.170   6.332 -0.6867 -1.1704  2.1784
   80RES   O21222490   2.001   3.979   6.132  0.0128  0.3278  0.4577
   80RES   C21322491   1.993   3.877   6.041  0.5995 -0.6785 -0.0690
   80RES   C21422492   2.015   3.946   5.909 -0.6013 -0.1528  0.0392
   80RES   C21522493   1.984   3.849   5.784  0.2954 -0.6262 -0.7249
   80RES   O21622494   2.044   3.890   5.662 -0.1017  0.2707  0.1822
   80RES   C21722495   2.031   3.794   5.558 -1.6656 -0.2722 -0.0997
   80RES   H21822496   1.898   3.824   6.036  1.5977 -2.6219  0.9832
   80RES   H21922497   2.065   3.797   6.058  0.8276 -0.3260  0.6895
   80RES   H22022498   1.962   4.040   5.895  2.1168  1.3948 -0.2622
   80RES   H22122499   2.021   3.748   5.802  0.6976 -0.3209  0.2257
   80RES   H22222500   1.876   3.850   5.770 -0.0465  1.0253  1.7896
   80RES   H22322501   2.078   3.697   5.574  1.9078  1.2003 -1.1182
   80RES   H22422502   2.086   3.841   5.476  0.8892 -0.8754  1.1879
   80RES   H22522503   1.930   3.772   5.524 -0.5752 -0.6914 -3.2945
   80RES   O22622504   2.152   3.985   5.890  0.2776 -0.2703 -0.1870
   80RES   C22722505   2.192   4.108   5.943 -0.3060 -0.1746 -0.0953
   80RES   C22822506   2.347   4.105   5.961  0.3186  0.5552 -0.6909
   80RES   C22922507   2.388   3.994   6.054  0.1457 -0.0987  0.5332
   80RES   O23022508   2.517   4.004   6.118  0.2124 -0.5275 -0.0849
   80RES   C23122509   2.528   3.900   6.217  0.2376 -0.2541 -0.9462
   80RES   H23222510   2.149   4.124   6.042  1.5282  1.3724  0.4630
   80RES   H23322511   2.158   4.187   5.876 -0.4678 -0.0669  0.1142
   80RES   H23422512   2.381   4.202   5.997  2.1454 -0.5222  0.5649
   80RES   H23522513   2.374   3.893   6.015  0.5955 -0.2156  0.6660
   80RES   H23622514   2.310   3.997   6.130  0.9820  0.7398  1.3707
   80RES   H23722515   2.478   3.810   6.181 -1.4755  1.4832 -3.0081
   80RES   H23822516   2.487   3.940   6.310  0.0672  4.2485 -2.8284
   80RES   H23922517   2.630   3.871   6.241  1.2809  1.1381 -3.5543
   80RES   O24022518   2.411   4.084   5.830  0.1121  0.6126 -0.3661
   80RES   C24122519   2.423   4.203   5.749 -0.6579  0.0453 -0.3935
   80RES   C24222520   2.553   4.285   5.774  0.4625 -0.7033 -0.4298
   80RES   C24322521   2.573   4.388   5.660  0.4926  0.1972 -0.5511
   80RES   O24422522   2.715   4.426   5.664  0.2914 -0.1667  0.0647
   80RES   C24522523   2.747   4.519   5.567 -0.2138 -0.1808  0.5614
   80RES   H24622524   2.333   4.262   5.736  0.0788  0.9817 -1.3171
   80RES   H24722525   2.431   4.149   5.655  0.9386  1.2124 -0.9415
   80RES   H24822526   2.641   4.221   5.777  2.0245  1.4477  1.7531
   80RES   H24922527   2.548   4.340   5.565  1.2690 -2.4001  0.5256
   80RES   H25022528   2.502   4.469   5.672  0.7784  0.3016  0.4813
   80RES   H25122529   2.855   4.530   5.568 -0.1517  0.0547 -3.1144
   80RES   H25222530   2.708   4.618   5.591 -0.5783 -0.4803  1.2332
   80RES   H25322531   2.721   4.500   5.463  1.8202 -0.6078  0.1252
   80RES   O25422532   2.539   4.358   5.895  0.6972 -0.2388  0.0965
   80RES   C25522533   2.647   4.331   5.981  0.2251  0.0303 -0.5024
   80RES   C25622534   2.631   4.419   6.105 -0.5251 -0.1123 -0.2668
   80RES   C25722535   2.728   4.393   6.222  0.3621  0.0334 -0.1413
   80RES   O25822536   2.685   4.464   6.339 -0.6014 -0.1661  0.1089
   80RES   C25922537   2.751   4.444   6.463  0.7402 -0.2293  0.4114
   80RES   H26022538   2.639   4.225   6.006 -0.4878  0.0977 -0.4470
   80RES   H26122539   2.746   4.341   5.936  0.3869  2.3693  0.2611
   80RES   H26222540   2.533   4.393   6.144  0.3666  0.9459  2.8534
   80RES   H26322541   2.731   4.286   6.240 -0.5683 -0.1722 -1.1714
   80RES   H26422542   2.829   4.426   6.200  0.5862 -0.1091  0.6590
   80RES   H26522543   2.741   4.339   6.492 -0.8244  0.2070  1.5028
   80RES   H26622544   2.703   4.512   6.533  2.8363  1.7942 -0.0832
   80RES   H26722545   2.859   4.455   6.474  0.5775  2.2377 -0.2080
   80RES   O26822546   2.647   4.558   6.069 -0.4041 -0.0283 -0.2491
   80RES   C26922547   2.528   4.633   6.087  0.1462  0.4857  0.0223
   80RES   C27022548   2.550   4.780   6.065 -0.1968  0.5207 -0.2404
   80RES   C27122549   2.429   4.862   6.080  0.4257  0.0353 -0.0710
   80RES   O27222550   2.447   5.004   6.074 -0.1041  0.0052  0.1849
   80RES   C27322551   2.338   5.084   6.114  0.3947 -0.7354  0.0420
   80RES   H27422552   2.498   4.608   6.188 -0.3699  1.3924  0.0948
   80RES   H27522553   2.450   4.595   6.021 -0.2167  1.1524  0.0706
   80RES   H27622554   2.613   4.811   6.148  1.4125 -3.1135 -0.0230
   80RES   H27722555   2.377   4.846   6.174 -1.3544  2.7801 -0.5460
   80RES   H27822556   2.357   4.830   6.004 -1.3823  0.4923  1.4054
   80RES   H27922557   2.256   5.037   6.059  0.1907 -0.0404 -0.2434
   80RES   H28022558   2.362   5.189   6.102  2.7492 -0.8513  3.0547
   80RES   H28122559   2.324   5.075   6.222  1.1772  2.0835  0.3999
   80RES   H28222560   2.601   4.794   5.970 -2.6501 -1.0435 -1.8372
   81RES     O122561   6.544   0.855   0.933  0.6461 -0.0653 -0.0224
   81RES     C222562   6.494   0.971   1.004  0.5990 -0.0518 -0.4370
   81RES     C322563   6.430   0.925   1.133 -0.9242 -0.0284 -0.7264
   81RES     C422564   6.373   1.042   1.217  1.0521  0.4146  1.0268
   81RES     O522565   6.304   1.004   1.335 -0.2501  0.1179  0.5403
   81RES     C622566   6.158   0.995   1.327 -0.0074 -0.0281 -0.4943
   81RES     H722567   6.569   1.040   1.042 -0.7762  0.9350  0.5083
   81RES     H822568   6.421   1.019   0.939  1.7383  2.7826  0.3272
   81RES     H922569   6.514   0.885   1.190 -2.5462  0.9017  2.4282
   81RES    H1022570   6.308   1.097   1.148  0.7695  1.5101  2.1426
   81RES    H1122571   6.457   1.108   1.238  0.3899  1.6356 -0.0651
   81RES    H1222572   6.126   0.945   1.236  2.1305 -0.3449 -1.0851
   81RES    H1322573   6.130   0.937   1.415 -1.8851  0.6234 -0.6246
   81RES    H1422574   6.116   1.093   1.352 -0.4128 -0.5224  0.7999
   81RES    H1522575   6.481   0.785   0.945  1.9277 -1.0695  0.8974
   81RES    O1622576   6.338   0.832   1.089  0.7613 -0.2162  0.1933
   81RES    C1722577   6.311   0.727   1.184  0.1021  0.0063 -0.3977
   81RES    C1822578   6.238   0.611   1.113 -0.0319  0.9115  1.0514
   81RES    C1922579   6.247   0.481   1.201 -0.0285 -0.3951 -0.0813
   81RES    O2022580   6.196   0.380   1.117 -0.2015 -0.1240 -0.0142
   81RES    C2122581   6.211   0.254   1.187  0.2259 -0.1064  0.4073
   81RES    H2222582   6.257   0.757   1.274 -2.3861  1.2796 -2.2715
   81RES    H2322583   6.406   0.688   1.222 -0.4377 -0.2148  0.7615
   81RES    H2422584   6.280   0.601   1.012 -0.3644  1.3683  0.8668
   81RES    H2522585   6.350   0.459   1.230  0.1770 -1.2447 -1.3852
   81RES    H2622586   6.182   0.493   1.287  1.4094 -0.5314  1.0373
   81RES    H2722587   6.148   0.255   1.276  0.3580  0.2095  0.4968
   81RES    H2822588   6.315   0.236   1.215  0.3042  3.0119  2.2999
   81RES    H2922589   6.180   0.185   1.108  0.5561  0.5854 -0.3283
   81RES    O3022590   6.110   0.686   1.113  0.3383 -0.7679 -0.1721
   81RES    C3122591   6.002   0.620   1.038 -0.0751 -0.0327  0.0069
   81RES    C3222592   5.870   0.698   1.054  0.1791  0.0075 -0.0444
   81RES    C3322593   5.755   0.597   1.068 -0.3174  0.2100 -0.8095
   81RES    O3422594   5.631   0.661   1.102  0.2848 -0.6741 -0.0836
   81RES    C3522595   5.521   0.580   1.127 -0.1098  0.4538 -0.1572
   81RES    H3622596   6.034   0.612   0.934 -0.9637 -1.0272 -0.1926
   81RES    H3722597   5.984   0.518   1.070 -0.0301 -0.3256 -0.8850
   81RES    H3822598   5.872   0.755   1.147 -1.9841  2.3169 -1.3393
   81RES    H3922599   5.777   0.519   1.140 -2.5430 -2.3908 -2.8710
   81RES    H4022600   5.740   0.545   0.974 -0.8581 -0.1445 -0.5261
   81RES    H4122601   5.478   0.541   1.035 -0.3354 -0.0668  0.1707
   81RES    H4222602   5.443   0.638   1.177  0.2874  1.4477 -0.6776
   81RES    H4322603   5.554   0.494   1.184  1.8058  0.2014 -1.6121
   81RES    O4422604   5.850   0.788   0.945 -0.1403 -0.5797  0.7619
   81RES    C4522605   5.936   0.901   0.952 -0.5667  0.0376 -0.0029
   81RES    C4622606   5.917   0.991   0.829  0.5241 -0.3483 -0.3658
   81RES    C4722607   5.776   1.043   0.830 -0.3230 -0.0905 -0.1132
   81RES    O4822608   5.743   1.118   0.712  0.9142  0.4933  0.1855
   81RES    C4922609   5.608   1.170   0.720  0.2790 -0.5068 -0.0368
   81RES    H5022610   6.038   0.861   0.953 -0.7969 -0.5563  0.0726
   81RES    H5122611   5.938   0.956   1.046  1.0446  0.3720 -0.2085
   81RES    H5222612   5.922   0.935   0.736 -4.8824 -0.7154 -0.6248
   81RES    H5322613   5.702   0.963   0.834 -2.4564  1.8943  1.5203
   81RES    H5422614   5.765   1.104   0.919  1.9344  0.5209 -0.2293
   81RES    H5522615   5.588   1.254   0.655 -0.7099 -0.9079 -0.2609
   81RES    H5622616   5.587   1.215   0.817  0.1116 -1.1226  0.2147
   81RES    H5722617   5.536   1.092   0.696 -1.8101  1.4569 -0.3046
   81RES    O5822618   6.007   1.097   0.828  0.3004 -0.5938  0.5560
   81RES    C5922619   6.146   1.071   0.785 -0.5894 -0.6359  0.4593
   81RES    C6022620   6.240   1.189   0.741  0.0862 -0.6525 -0.0362
   81RES    C6122621   6.365   1.139   0.668 -0.5224 -0.1481 -0.0192
   81RES    O6222622   6.446   1.226   0.588  0.0430 -0.0476 -0.5336
   81RES    C6322623   6.384   1.260   0.466 -0.4068  0.0594  0.6370
   81RES    H6422624   6.145   1.003   0.699 -0.4008  0.0163 -0.0650
   81RES    H6522625   6.189   1.012   0.866 -0.5786 -2.6529 -0.9701
   81RES    H6622626   6.179   1.247   0.672 -0.0114 -0.9869 -0.2325
   81RES    H6722627   6.437   1.106   0.742 -1.7371 -2.9621 -0.0289
   81RES    H6822628   6.354   1.044   0.616  0.0479  0.0105 -0.4360
   81RES    H6922629   6.302   1.332   0.467  0.5931  1.2168  1.4183
   81RES    H7022630   6.352   1.164   0.425 -1.7427  0.8998 -0.3183
   81RES    H7122631   6.454   1.299   0.391 -1.9677  0.4151 -0.6581
   81RES    O7222632   6.258   1.269   0.852  0.2857  0.1687 -0.1619
   81RES    C7322633   6.291   1.400   0.809 -0.2991  0.3682 -0.4001
   81RES    C7422634   6.300   1.485   0.933  0.3636 -0.1392  0.2891
   81RES    C7522635   6.260   1.633   0.902  0.4468 -1.0994 -0.1338
   81RES    O7622636   6.265   1.709   1.021  0.2555 -0.2708 -0.2304
   81RES    C7722637   6.261   1.847   0.983 -0.2940  0.6781 -0.3115
   81RES    H7822638   6.379   1.409   0.745  0.0209 -0.4280 -0.0727
   81RES    H7922639   6.210   1.444   0.751 -0.5003 -1.5638 -1.6583
   81RES    H8022640   6.231   1.452   1.009 -0.8371  1.1050 -0.2361
   81RES    H8122641   6.164   1.644   0.852 -0.7066  3.1122  2.7763
   81RES    H8222642   6.338   1.678   0.841  0.2030 -0.7813 -0.2128
   81RES    H8322643   6.269   1.908   1.073 -0.3140 -0.9665  0.8255
   81RES    H8422644   6.175   1.875   0.922 -0.9690 -3.8208 -1.6588
   81RES    H8522645   6.344   1.879   0.920  0.6395 -0.4713  0.3253
   81RES    O8622646   6.435   1.480   0.969 -0.1016 -0.8617  0.1089
   81RES    C8722647   6.473   1.392   1.073  0.5079  0.5907 -0.8432
   81RES    C8822648   6.616   1.418   1.105 -0.3173  0.1191  0.0665
   81RES    C8922649   6.644   1.370   1.250 -0.0781  0.6679  0.9763
   81RES    O9022650   6.763   1.416   1.296 -0.8520 -0.3110 -0.2645
   81RES    C9122651   6.774   1.414   1.435 -0.7673 -0.2744  1.1301
   81RES    H9222652   6.427   1.427   1.165  0.0564 -1.0746 -0.4264
   81RES    H9322653   6.450   1.289   1.045  0.1183  0.6890 -0.8935
   81RES    H9422654   6.643   1.523   1.091  0.4081 -0.1723 -0.7857
   81RES    H9522655   6.565   1.398   1.320  0.0842  0.9709  1.0348
   81RES    H9622656   6.644   1.261   1.254  1.4930  0.6164 -0.1811
   81RES    H9722657   6.870   1.463   1.453 -1.0074  1.3239 -1.5562
   81RES    H9822658   6.699   1.470   1.491  0.6954 -1.7921  4.7500
   81RES    H9922659   6.785   1.313   1.473 -0.6092 -0.4552  0.6066
   81RES   O10022660   6.700   1.348   1.017  0.4473 -0.0226  0.0518
   81RES   C10122661   6.728   1.401   0.891  0.0865  0.4736 -0.7220
   81RES   C10222662   6.875   1.379   0.850  0.4802  0.5248  0.1531
   81RES   C10322663   6.901   1.236   0.811 -0.5644 -0.4062 -0.1583
   81RES   O10422664   7.041   1.215   0.805  0.1847 -0.4294 -0.2350
   81RES   C10522665   7.068   1.088   0.752 -0.6196  0.1528 -0.1659
   81RES   H10622666   6.690   1.503   0.886 -0.7778  0.3340  1.9319
   81RES   H10722667   6.659   1.346   0.827 -2.6630  2.1839  0.6865
   81RES   H10822668   6.888   1.420   0.749 -0.2796  0.2680 -0.0533
   81RES   H10922669   6.862   1.223   0.710  2.3565 -0.2651 -1.3457
   81RES   H11022670   6.852   1.167   0.881 -0.8620 -0.1037 -0.0684
   81RES   H11122671   7.023   1.026   0.829 -0.4858  0.4035  0.1143
   81RES   H11222672   7.176   1.070   0.756 -0.3952  1.4281 -0.3489
   81RES   H11322673   7.013   1.063   0.661  0.0830  1.6381 -1.0167
   81RES   O11422674   6.971   1.438   0.939  0.3745 -0.2648 -0.1151
   81RES   C11522675   6.948   1.575   0.963 -0.6134 -0.3086  0.0005
   81RES   C11622676   7.059   1.635   1.061  0.0318 -0.2515 -0.9634
   81RES   C11722677   7.092   1.545   1.184  0.0374 -0.7458  0.4126
   81RES   O11822678   7.167   1.606   1.290 -0.3400 -0.4109 -0.2781
   81RES   C11922679   7.089   1.681   1.386 -0.0549 -0.0010  0.7266
   81RES   H12022680   6.949   1.632   0.870  0.6094  1.2417  0.9426
   81RES   H12122681   6.854   1.596   1.014 -0.8896  0.9481 -1.0004
   81RES   H12222682   7.009   1.720   1.109  1.8756 -0.3005  1.1559
   81RES   H12322683   7.009   1.489   1.226 -0.2627  2.4628  4.3827
   81RES   H12422684   7.143   1.455   1.149  0.2282 -0.8411  0.9267
   81RES   H12522685   7.141   1.710   1.477  0.6385 -1.6822  0.8912
   81RES   H12622686   7.003   1.624   1.421  1.1790 -2.1531  0.3641
   81RES   H12722687   7.058   1.773   1.336 -0.2349 -0.4326  0.0257
   81RES   O12822688   7.173   1.694   0.996  0.1609 -0.3024 -0.1670
   81RES   C12922689   7.252   1.606   0.919  0.1316 -0.4688 -0.1177
   81RES   C13022690   7.374   1.688   0.862 -0.3862 -0.4944 -0.8356
   81RES   C13122691   7.424   1.604   0.743  0.0573 -0.1159  0.6891
   81RES   O13222692   7.552   1.637   0.686 -0.7413  0.4560  0.0519
   81RES   C13322693   7.602   1.532   0.607 -0.4155 -0.1013 -0.0368
   81RES   H13422694   7.313   1.536   0.975 -2.0105 -0.6849  2.0185
   81RES   H13522695   7.191   1.566   0.837 -0.6974 -2.4070  1.4178
   81RES   H13622696   7.334   1.785   0.834 -0.5690 -0.1006  0.7363
   81RES   H13722697   7.364   1.615   0.652 -0.6728 -0.5945  1.1143
   81RES   H13822698   7.414   1.497   0.761 -2.0902 -0.2076 -0.8279
   81RES   H13922699   7.551   1.512   0.512 -0.3181  0.7672 -0.2759
   81RES   H14022700   7.704   1.565   0.591 -0.5818 -0.5581 -2.2552
   81RES   H14122701   7.608   1.443   0.669 -0.5792  0.8355  1.3455
   81RES   O14222702   7.482   1.705   0.958  0.4744 -0.5286  0.1084
   81RES   C14322703   7.556   1.823   0.941 -0.2679 -0.5035  0.5432
   81RES   C14422704   7.628   1.866   1.070 -0.1867  0.4308 -0.3779
   81RES   C14522705   7.705   2.000   1.047  0.1168  0.3060  0.0788
   81RES   O14622706   7.747   2.061   1.170 -0.1336  0.4533  0.6446
   81RES   C14722707   0.010   2.181   1.146  0.6004 -0.0731  0.5908
   81RES   H14822708   7.628   1.795   0.864 -1.4748 -1.1623 -0.3764
   81RES   H14922709   7.493   1.903   0.900  0.8076  0.7857  1.3762
   81RES   H15022710   7.554   1.883   1.149  0.0744  0.7721 -0.2064
   81RES   H15122711   7.642   2.079   1.007  0.8772  0.5233 -0.6886
   81RES   H15222712   7.792   1.989   0.983  0.6860  1.7884  0.5740
   81RES   H15322713   0.090   2.152   1.078 -1.0540  0.7711 -1.7912
   81RES   H15422714   0.052   2.210   1.243  0.5016  3.4738 -0.3585
   81RES   H15522715   7.770   2.259   1.096  0.1955  1.7638  3.7707
   81RES   O15622716   7.727   1.773   1.116  0.0904  0.7411 -0.7022
   81RES   C15722717   7.673   1.660   1.191  0.2542 -0.3411  0.0757
   81RES   C15822718   7.678   1.525   1.107 -0.6769  0.2482 -0.6299
   81RES   C15922719   7.579   1.425   1.160  0.0959  0.1668  0.4658
   81RES   O16022720   7.588   1.317   1.073  0.2219 -0.0310 -0.3650
   81RES   C16122721   7.483   1.226   1.106 -0.3833  0.4071 -0.4734
   81RES   H16222722   7.728   1.642   1.284 -0.1544  1.2537  0.6455
   81RES   H16322723   7.574   1.687   1.227  1.6548  1.5076  2.7503
   81RES   H16422724   7.659   1.534   1.000 -1.1128  1.6638 -0.4350
   81RES   H16522725   7.602   1.392   1.261 -0.6570 -0.0730  0.5676
   81RES   H16622726   7.476   1.462   1.151 -0.2850 -0.8708  0.4484
   81RES   H16722727   7.502   1.144   1.037 -1.0950  0.1500 -0.3616
   81RES   H16822728   7.379   1.256   1.092 -0.6265 -0.5448 -0.7176
   81RES   H16922729   7.496   1.178   1.202  1.2835 -1.8687 -1.7827
   81RES   O17022730   7.801   1.459   1.127 -0.2389 -0.1295  0.1253
   81RES   C17122731   0.090   1.510   1.045 -0.2935  0.0108  0.5760
   81RES   C17222732   0.215   1.450   1.105  0.3024  0.1106 -0.6471
   81RES   C17322733   0.350   1.485   1.039 -0.6439 -0.3264  0.4395
   81RES   O17422734   0.459   1.458   1.125 -0.4200 -0.2502  0.0818
   81RES   C17522735   0.578   1.528   1.077 -0.1139 -0.2087 -0.5275
   81RES   H17622736   0.102   1.618   1.046 -1.1273  0.0986  1.0116
   81RES   H17722737   0.066   1.469   0.946 -1.8411 -0.3596  1.0884
   81RES   H17822738   0.214   1.485   1.209  1.0759 -0.9329 -0.2814
   81RES   H17922739   0.348   1.437   0.941  0.3368  0.8700 -0.1757
   81RES   H18022740   0.348   1.593   1.024  0.1408 -0.3090  0.4769
   81RES   H18122741   0.579   1.630   1.114  1.4117 -0.1459 -0.7227
   81RES   H18222742   0.570   1.544   0.969 -2.4808 -0.5974 -0.4582
   81RES   H18322743   0.670   1.472   1.092  0.4405  0.9137  0.2406
   81RES   O18422744   0.211   1.311   1.096  0.4308 -0.0230  0.1864
   81RES   C18522745   0.168   1.241   1.212  0.4136 -0.1049 -0.0270
   81RES   C18622746   0.106   1.102   1.185  0.4083 -0.1650 -0.5714
   81RES   C18722747   0.031   1.048   1.314  0.5509  0.2679  0.6125
   81RES   O18822748   0.119   0.975   1.396  0.9196 -0.4391 -0.2965
   81RES   C18922749   0.055   0.944   1.509  0.3756  0.4601 -0.5461
   81RES   H19022750   0.092   1.295   1.268  1.1178  0.3653  0.4952
   81RES   H19122751   0.244   1.231   1.289 -0.3513  0.9305  0.8811
   81RES   H19222752   0.037   1.117   1.102  0.0611  0.4130 -0.1776
   81RES   H19322753   7.768   0.978   1.288 -0.5397  1.2934  1.2099
   81RES   H19422754   7.802   1.137   1.356 -1.1941 -0.3195  0.0091
   81RES   H19522755   0.006   0.850   1.485  2.0695 -0.2370 -1.2881
   81RES   H19622756   0.128   0.925   1.588 -1.4614  1.3491  1.4473
   81RES   H19722757   7.798   1.007   1.558  0.2441  1.4805 -2.0358
   81RES   O19822758   0.204   1.006   1.158 -0.6119 -0.6677 -0.3377
   81RES   C19922759   0.172   0.884   1.099 -0.1201  0.7515 -0.8170
   81RES   C20022760   0.125   0.910   0.955  0.1835  0.3501  1.0745
   81RES   C20122761   0.047   0.792   0.906  0.0529 -0.4068 -0.1468
   81RES   O20222762   7.762   0.768   0.998 -0.3811 -0.5108 -0.3328
   81RES   C20322763   7.682   0.643   0.967  0.0712 -0.6472  0.2063
   81RES   H20422764   0.093   0.838   1.158 -1.3621  1.9861 -1.4651
   81RES   H20522765   0.256   0.816   1.113 -1.0398 -0.4445 -0.9747
   81RES   H20622766   0.060   0.998   0.955 -1.0041 -0.5122 -0.2040
   81RES   H20722767   0.020   0.812   0.802 -0.9992 -0.6853  0.0669
   81RES   H20822768   0.100   0.697   0.904  0.9145  0.0228  1.4691
   81RES   H20922769   7.608   0.647   0.887  0.5392 -0.1334 -0.2099
   81RES   H21022770   7.628   0.602   1.052 -4.2334  0.5769 -1.7703
   81RES   H21122771   7.753   0.568   0.930 -0.8197 -0.7104 -1.4217
   81RES   O21222772   0.242   0.919   0.869 -0.1416 -0.1736  0.1903
   81RES   C21322773   0.312   1.038   0.898  0.6210  0.7043  0.5869
   81RES   C21422774   0.394   1.094   0.772  0.1044  0.4820  0.3786
   81RES   C21522775   0.481   1.220   0.798 -0.4545  0.5098 -0.0551
   81RES   O21622776   0.596   1.209   0.726 -1.0634 -0.3765  0.1532
   81RES   C21722777   0.715   1.173   0.797 -0.4543  0.4577 -0.5950
   81RES   H21822778   0.381   1.019   0.981 -0.5754 -1.2457  1.1845
   81RES   H21922779   0.244   1.114   0.935 -0.1941  0.7702 -1.0079
   81RES   H22022780   0.453   1.007   0.743  2.5772  1.4117  2.4872
   81RES   H22122781   0.448   1.312   0.750 -2.1979 -0.8553 -1.5625
   81RES   H22222782   0.500   1.243   0.903  0.4546  1.2062 -0.3649
   81RES   H22322783   0.807   1.173   0.740  0.2053 -1.7111  0.4018
   81RES   H22422784   0.731   1.066   0.814  1.6824  0.5440 -1.9844
   81RES   H22522785   0.734   1.232   0.887 -2.0965  1.1497 -0.6742
   81RES   O22622786   0.286   1.140   0.684  0.1035 -0.2405  0.4543
   81RES   C22722787   0.305   1.125   0.547  0.0895 -0.3746  0.3982
   81RES   C22822788   0.198   1.207   0.466 -0.1727 -0.3260 -0.2502
   81RES   C22922789   0.206   1.351   0.496  0.7899 -1.1092 -0.6765
   81RES   O23022790   0.090   1.420   0.447 -0.0663  0.2472 -0.3173
   81RES   C23122791   0.050   1.400   0.311  0.1752 -0.7374  0.2726
   81RES   H23222792   0.307   1.019   0.522 -0.5693 -0.3132  0.0995
   81RES   H23322793   0.403   1.172   0.534 -1.0239  1.2872 -2.1399
   81RES   H23422794   0.097   1.171   0.489 -0.3174  0.2156 -0.0373
   81RES   H23522795   0.282   1.398   0.434 -0.5491  0.1754 -1.3603
   81RES   H23622796   0.225   1.386   0.597  1.0209  0.0279 -1.1070
   81RES   H23722797   7.795   1.475   0.276 -3.1796 -3.0816  1.8667
   81RES   H23822798   7.804   1.316   0.281 -0.8628 -0.2962  1.1702
   81RES   H23922799   0.138   1.420   0.250 -0.1088  0.9211  0.3806
   81RES   O24022800   0.228   1.187   0.327 -0.9722 -0.0480 -0.6999
   81RES   C24122801   0.190   1.054   0.275 -0.4119  0.1532  0.0048
   81RES   C24222802   0.201   1.044   0.120 -0.0190  0.6302  0.1591
   81RES   C24322803   0.160   0.904   0.069  0.0018 -0.4839 -0.3077
   81RES   O24422804   0.245   0.870   7.774 -0.2325  0.5833 -0.0143
   81RES   C24522805   0.197   0.755   7.698  0.2670 -0.1990 -0.0301
   81RES   H24622806   0.088   1.029   0.305 -0.1962 -2.2436 -1.1416
   81RES   H24722807   0.252   0.977   0.322 -0.4422  0.2553  0.2104
   81RES   H24822808   0.307   1.063   0.101  0.0569 -1.4981 -1.7596
   81RES   H24922809   0.180   0.825   0.141  0.3117 -1.1277 -1.1033
   81RES   H25022810   0.053   0.908   0.045 -0.7424  1.9674  2.9679
   81RES   H25122811   0.194   0.664   7.757 -1.0032 -0.8049 -0.9921
   81RES   H25222812   0.250   0.743   7.604  0.1215 -1.1012  0.0041
   81RES   H25322813   0.094   0.777   7.668  0.3542 -1.6315 -1.4332
   81RES   O25422814   0.123   1.153   0.072 -0.2873 -0.5296 -0.4070
   81RES   C25522815   0.172   1.204   7.765 -0.2151  0.3118 -0.0300
   81RES   C25622816   0.104   1.333   7.733 -0.4116 -1.2018  0.1775
   81RES   C25722817   0.159   1.374   7.598  0.2742 -0.3456 -0.3175
   81RES   O25822818   0.158   1.520   7.572  0.8797 -0.5806 -0.1440
   81RES   C25922819   0.235   1.594   7.655  0.0424  0.2687  0.2038
   81RES   H26022820   0.276   1.231   7.778 -0.4601  1.9197 -1.3198
   81RES   H26122821   0.166   1.143   7.675 -0.6361  0.4588 -0.1061
   81RES   H26222822   0.121   1.406   7.812 -1.3196 -1.8480  0.9637
   81RES   H26322823   0.258   1.336   7.571  0.2540 -1.4445  1.1094
   81RES   H26422824   0.098   1.336   7.516 -0.3668  0.6880 -0.3349
   81RES   H26522825   0.327   1.553   7.698  1.0914  1.1623 -1.1366
   81RES   H26622826   0.175   1.637   7.735  0.7774  1.4482  0.1308
   81RES   H26722827   0.267   1.685   7.605 -0.4580  0.0167 -0.5754
   81RES   O26822828   7.784   1.324   7.697  0.8059 -0.2423  0.1689
   81RES   C26922829   7.704   1.294   7.810 -1.1504  0.1882 -1.1441
   81RES   C27022830   7.562   1.352   7.775 -0.0122 -0.5846 -0.2948
   81RES   C27122831   7.564   1.506   7.802  0.0738 -1.3837 -0.6044
   81RES   O27222832   7.607   1.558   0.112  0.2668 -0.1600 -0.1745
   81RES   C27322833   7.509   1.545   0.214 -0.0519 -0.8068 -0.0329
   81RES   H27422834   7.749   1.341   0.081  0.6313 -2.0381 -0.8246
   81RES   H27522835   7.706   1.188   0.016  1.0290  0.8137  1.9106
   81RES   H27622836   7.538   1.333   7.670 -1.2641 -0.6505 -0.0002
   81RES   H27722837   7.481   1.557   7.754 -1.7491 -1.2774  2.4979
   81RES   H27822838   7.656   1.534   7.751  0.9217 -3.3260 -0.2202
   81RES   H27922839   7.497   1.445   0.254  1.1294 -0.2650  1.7217
   81RES   H28022840   7.409   1.579   0.185 -0.6798 -2.4801  0.1054
   81RES   H28122841   7.543   1.599   0.303 -0.9220  1.2980 -0.9285
   81RES   H28222842   7.496   1.301   0.027  0.4179 -1.8951 -0.8133
   82RES     O122843   2.823   1.664   5.220  0.4121 -0.8289 -0.2978
   82RES     C222844   2.709   1.737   5.281  0.1424 -0.0696  0.9201
   82RES     C322845   2.620   1.787   5.169  0.7237  1.0909  0.3600
   82RES     C422846   2.483   1.838   5.216 -0.1795  0.4676 -0.1008
   82RES     O522847   2.370   1.788   5.152 -0.3501 -0.0499 -0.2515
   82RES     C622848   2.251   1.828   5.219  0.4327 -0.1099 -0.1408
   82RES     H722849   2.651   1.672   5.346  1.1110 -0.6294  1.2457
   82RES     H822850   2.746   1.826   5.332  0.8993  0.2136 -0.1141
   82RES     H922851   2.612   1.704   5.099  3.0466  1.4449 -0.3686
   82RES    H1022852   2.501   1.945   5.214  0.8875  0.3943  3.1347
   82RES    H1122853   2.475   1.804   5.319 -1.7838  2.0449  0.3313
   82RES    H1222854   2.268   1.814   5.325 -1.1198  1.7964  0.3760
   82RES    H1322855   2.236   1.936   5.213 -0.7095 -0.2607  0.0117
   82RES    H1422856   2.166   1.776   5.175 -1.1674  3.8714 -1.9809
   82RES    H1522857   2.877   1.738   5.196 -0.7987  0.7332  1.5917
   82RES    O1622858   2.695   1.888   5.097 -0.3788  0.1174 -0.3141
   82RES    C1722859   2.651   1.905   4.960  0.5758 -0.0119 -0.2875
   82RES    C1822860   2.729   2.022   4.895  0.5722 -0.0285  0.1793
   82RES    C1922861   2.708   2.021   4.743  0.9841  0.2939 -0.2976
   82RES    O2022862   2.803   2.109   4.691  0.2530  0.7695  0.8745
   82RES    C2122863   2.786   2.136   4.557  0.2462  0.5927 -0.4420
   82RES    H2222864   2.546   1.933   4.951  0.4828  0.0406  0.8833
   82RES    H2322865   2.652   1.807   4.912  1.3424 -0.3926  0.4821
   82RES    H2422866   2.830   1.994   4.925 -0.5279 -0.0880  4.1038
   82RES    H2522867   2.722   1.924   4.695  0.6940  0.4906 -0.7862
   82RES    H2622868   2.613   2.070   4.720  0.9572  0.3523 -0.0628
   82RES    H2722869   2.814   2.050   4.496 -0.4765 -0.6909  1.0358
   82RES    H2822870   2.841   2.230   4.542 -0.8371  1.5961  1.6878
   82RES    H2922871   2.684   2.167   4.533 -0.1283  0.3878  0.8808
   82RES    O3022872   2.681   2.151   4.934 -0.5084  0.1746 -0.0877
   82RES    C3122873   2.773   2.232   5.000  0.3865  0.2737  0.2780
   82RES    C3222874   2.814   2.189   5.143  0.0836 -1.0590 -0.5812
   82RES    C3322875   2.862   2.308   5.221 -0.1848 -0.4083  0.0529
   82RES    O3422876   2.957   2.403   5.164  0.2949 -0.3081  0.0539
   82RES    C3522877   3.094   2.356   5.143  0.4210 -0.4385 -0.1381
   82RES    H3622878   2.864   2.234   4.939  0.0161 -0.9234 -0.3298
   82RES    H3722879   2.724   2.329   5.010 -3.6993 -1.8206  1.6176
   82RES    H3822880   2.731   2.131   5.183 -0.7570  1.0040  0.7514
   82RES    H3922881   2.912   2.284   5.315  0.0479 -1.8498 -0.4152
   82RES    H4022882   2.783   2.371   5.262 -0.0814 -1.0401  1.2509
   82RES    H4122883   3.149   2.347   5.237 -0.9233 -0.0151  0.6929
   82RES    H4222884   3.147   2.431   5.085  1.1827  0.6535  1.9210
   82RES    H4322885   3.090   2.263   5.086  1.7796 -1.4602  1.3980
   82RES    O4422886   2.929   2.110   5.123 -0.6800  0.1690 -0.1134
   82RES    C4522887   2.965   2.024   5.235 -0.2004  0.2602  0.9955
   82RES    C4622888   3.068   1.923   5.201 -0.0426  0.3947  0.2460
   82RES    C4722889   3.140   1.869   5.325  1.1485  0.3409  0.9069
   82RES    O4822890   3.043   1.808   5.425  0.2441 -0.0137 -0.0040
   82RES    C4922891   3.107   1.745   5.536 -0.5389 -0.1101 -0.2568
   82RES    H5022892   2.867   1.989   5.268 -2.2163  2.8345 -1.9545
   82RES    H5122893   3.005   2.086   5.314  0.3936  0.5710  0.4523
   82RES    H5222894   3.150   1.966   5.143  0.6801  0.9144  1.6084
   82RES    H5322895   3.225   1.803   5.308 -1.4462 -3.5755  2.4198
   82RES    H5422896   3.193   1.947   5.379  3.5897 -0.6340 -0.0228
   82RES    H5522897   3.029   1.708   5.603 -0.1869 -2.1297 -0.9351
   82RES    H5622898   3.182   1.803   5.590 -0.8525 -1.1313  1.3060
   82RES    H5722899   3.163   1.660   5.499 -0.0769  0.7711 -1.6083
   82RES    O5822900   3.005   1.825   5.122 -0.1082 -0.2499 -0.7901
   82RES    C5922901   3.058   1.795   4.995  0.3568 -0.4214 -0.4338
   82RES    C6022902   3.185   1.709   5.024  0.0070 -0.3205  0.1326
   82RES    C6122903   3.170   1.590   5.127  0.3328 -0.7741 -0.1715
   82RES    O6222904   3.255   1.484   5.086 -0.0831 -0.9306  0.3441
   82RES    C6322905   3.199   1.356   5.125 -0.2201  0.8061  0.3546
   82RES    H6422906   3.084   1.883   4.935  0.5999 -1.5154 -1.9696
   82RES    H6522907   2.977   1.741   4.947  1.5665 -0.2278 -2.7918
   82RES    H6622908   3.208   1.656   4.931 -0.3013 -1.3956  0.6703
   82RES    H6722909   3.207   1.623   5.224  0.3287  0.0546 -0.4503
   82RES    H6822910   3.064   1.563   5.128  0.1297 -0.0307 -0.9330
   82RES    H6922911   3.091   1.350   5.144  0.3559 -1.8836  3.3067
   82RES    H7022912   3.251   1.338   5.219  1.4858 -0.3734 -0.7941
   82RES    H7122913   3.238   1.279   5.058  0.4691  0.7642  0.8037
   82RES    O7222914   3.292   1.796   5.052 -0.4779 -0.0152 -0.3247
   82RES    C7322915   3.429   1.744   5.037  0.7111 -0.3646  0.7717
   82RES    C7422916   3.467   1.716   4.889  0.2613 -0.0887  0.2877
   82RES    C7522917   3.616   1.654   4.891 -0.8810  0.1720  0.8405
   82RES    O7622918   3.644   1.603   4.762  0.1348  0.4849 -0.1939
   82RES    C7722919   3.779   1.572   4.747  0.0826  0.1849 -0.3948
   82RES    H7822920   3.502   1.817   5.070 -0.6706  0.8537  1.2176
   82RES    H7922921   3.439   1.651   5.093  0.8328 -0.2964  0.8618
   82RES    H8022922   3.411   1.634   4.843  0.1888  0.4607 -0.6324
   82RES    H8122923   3.617   1.566   4.956 -3.0725 -0.6963 -0.2745
   82RES    H8222924   3.700   1.709   4.935 -0.6626  0.2661  0.3114
   82RES    H8322925   3.839   1.663   4.751 -1.3145  1.0323  2.5830
   82RES    H8422926   3.796   1.528   4.649 -1.0379  1.6726 -1.2577
   82RES    H8522927   3.804   1.499   4.824  0.8313 -0.0006 -0.8042
   82RES    O8622928   3.463   1.833   4.808  0.3466  0.3256  0.1455
   82RES    C8722929   3.340   1.890   4.774 -0.7049 -0.2097  0.2447
   82RES    C8822930   3.377   1.978   4.654  0.6324  0.1390 -0.3086
   82RES    C8922931   3.267   2.084   4.628 -0.3111 -0.5315  0.4154
   82RES    O9022932   3.273   2.133   4.490  0.5315 -0.5218  0.0738
   82RES    C9122933   3.159   2.208   4.458 -0.5586 -0.0922 -0.4988
   82RES    H9222934   3.274   1.809   4.745 -0.1517 -0.8275  0.6985
   82RES    H9322935   3.304   1.951   4.857 -1.1158  0.7137 -0.6077
   82RES    H9422936   3.387   1.928   4.558  1.1471 -1.0385  0.3449
   82RES    H9522937   3.170   2.035   4.642  0.5707 -1.8546  2.0712
   82RES    H9622938   3.274   2.161   4.704 -0.6090 -0.6540  0.5662
   82RES    H9722939   3.116   2.246   4.551  1.0333 -2.5072  1.3159
   82RES    H9822940   3.184   2.295   4.397 -0.6678  0.9640  0.9279
   82RES    H9922941   3.077   2.156   4.410  0.4636 -0.9659 -1.3223
   82RES   O10022942   3.485   2.059   4.692  0.4233  0.2476 -0.1775
   82RES   C10122943   3.618   2.019   4.670 -0.8084 -0.0915 -0.1406
   82RES   C10222944   3.655   2.003   4.521 -0.2114 -0.4515  0.6740
   82RES   C10322945   3.790   1.933   4.521 -0.5699  0.0452  0.2464
   82RES   O10422946   3.859   1.928   4.390  0.1403 -0.5178  0.1220
   82RES   C10522947   3.998   1.891   4.407  0.4994 -0.1859  0.1835
   82RES   H10622948   3.651   1.935   4.731  0.4529 -0.1803 -0.9158
   82RES   H10722949   3.677   2.103   4.708 -0.5945  0.0158 -0.6996
   82RES   H10822950   3.581   1.932   4.482 -0.1331  0.2349 -0.7604
   82RES   H10922951   3.785   1.831   4.560  0.3901  0.9435  2.7933
   82RES   H11022952   3.859   1.971   4.596 -0.4454  1.3087 -0.4912
   82RES   H11122953   4.056   1.960   4.468  1.6405  0.2417 -1.3626
   82RES   H11222954   4.055   1.888   4.314  2.4581  0.3871  1.3294
   82RES   H11322955   4.000   1.796   4.460  1.0599  0.5223  1.4657
   82RES   O11422956   3.662   2.127   4.448 -0.0426 -0.7775 -0.0743
   82RES   C11522957   3.543   2.200   4.428 -0.3414  0.1163 -0.1013
   82RES   C11622958   3.575   2.311   4.321  0.2179 -0.0187 -0.0449
   82RES   C11722959   3.454   2.376   4.245 -0.5821  0.2932 -0.3160
   82RES   O11822960   3.502   2.422   4.115 -0.2931  0.2192  0.0435
   82RES   C11922961   3.406   2.489   4.040  0.0015 -0.3485 -0.3341
   82RES   H12022962   3.473   2.135   4.375 -1.1122  0.8123  0.0492
   82RES   H12122963   3.508   2.230   4.527  0.8245 -1.4742  0.8165
   82RES   H12222964   3.644   2.271   4.247  0.1739  0.6641 -0.4483
   82RES   H12322965   3.379   2.298   4.230 -0.1454 -0.1556 -0.1652
   82RES   H12422966   3.402   2.456   4.298 -0.0087  0.9747 -0.7741
   82RES   H12522967   3.440   2.520   3.942 -1.3232  3.0999  0.2162
   82RES   H12622968   3.361   2.574   4.090 -0.7126 -1.1871  0.4789
   82RES   H12722969   3.328   2.417   4.018  0.6073 -0.3515 -2.5077
   82RES   O12822970   3.640   2.423   4.387  0.3394  0.4662 -0.4227
   82RES   C12922971   3.738   2.416   4.484 -0.0499 -0.6359  0.3212
   82RES   C13022972   3.867   2.360   4.420  0.9354 -0.1808 -1.0847
   82RES   C13122973   3.962   2.294   4.524  0.6861 -0.4284  0.1675
   82RES   O13222974   3.985   2.375   4.645 -0.2812 -0.3307  0.2442
   82RES   C13322975   4.071   2.488   4.627  0.1494 -0.0569  0.1076
   82RES   H13422976   3.768   2.516   4.514  1.2318 -1.7328  2.8426
   82RES   H13522977   3.703   2.369   4.576  0.2961 -1.1416  0.1950
   82RES   H13622978   3.837   2.282   4.350  2.7039 -1.2330 -0.7216
   82RES   H13722979   4.053   2.266   4.472 -0.0414 -1.7332 -0.4324
   82RES   H13822980   3.926   2.203   4.572  1.7488 -0.3418  1.1539
   82RES   H13922981   4.122   2.507   4.721 -0.2414 -1.3600  0.6006
   82RES   H14022982   4.141   2.474   4.544  1.8122  0.6254  1.3832
   82RES   H14122983   4.005   2.571   4.604 -0.4035 -1.3059 -3.1711
   82RES   O14222984   3.944   2.464   4.352 -0.7516 -0.1719 -0.4058
   82RES   C14322985   3.885   2.507   4.231  0.0543 -0.6079 -0.3811
   82RES   C14422986   3.982   2.576   4.140 -0.1878  0.3603 -0.2520
   82RES   C14522987   4.084   2.477   4.081  0.3990  0.3624 -0.5215
   82RES   O14622988   4.149   2.532   3.966 -0.2364 -0.3202  0.6716
   82RES   C14722989   4.253   2.444   3.917  0.5066 -0.2776  0.4854
   82RES   H14822990   3.848   2.420   4.176  2.1543 -0.8931 -1.3895
   82RES   H14922991   3.801   2.573   4.252 -0.1449 -1.1619  0.5714
   82RES   H15022992   3.926   2.604   4.051  0.1676  0.8018 -0.3393
   82RES   H15122993   4.035   2.383   4.055 -2.0302  0.3723  3.5219
   82RES   H15222994   4.162   2.453   4.153  0.4959  1.1679 -0.3546
   82RES   H15322995   4.328   2.437   3.996  0.7535 -2.9476  0.0407
   82RES   H15422996   4.295   2.485   3.825  0.1678 -0.0174  0.4447
   82RES   H15522997   4.209   2.347   3.896  1.4662 -0.7724  0.7564
   82RES   O15622998   4.048   2.691   4.204  0.6617  0.7024 -0.8063
   82RES   C15722999   4.075   2.792   4.112  0.5683  0.5379 -0.3943
   82RES   C15823000   4.187   2.876   4.180 -0.1095 -0.5943  0.5182
   82RES   C15923001   4.189   3.010   4.125 -0.6305  0.2365  0.2501
   82RES   O16023002   4.258   3.101   4.213 -0.4455 -0.8789  0.4607
   82RES   C16123003   4.281   3.227   4.146 -0.1772 -0.4461  0.4093
   82RES   H16223004   4.105   2.761   4.012 -1.1617 -0.1619 -0.7040
   82RES   H16323005   3.983   2.846   4.092 -1.6004 -3.1151 -0.5997
   82RES   H16423006   4.158   2.887   4.285  0.3718 -0.3824  0.6307
   82RES   H16523007   4.237   3.016   4.028 -0.1900  1.2608  0.5248
   82RES   H16623008   4.084   3.035   4.111 -1.6198 -2.2294  2.5807
   82RES   H16723009   4.238   3.306   4.208 -0.7659  0.0767 -0.6510
   82RES   H16823010   4.242   3.226   4.044 -3.3567  0.1700  1.5406
   82RES   H16923011   4.388   3.240   4.157 -0.6814  3.1457  1.6630
   82RES   O17023012   4.305   2.807   4.153  0.1778 -0.2383  0.2274
   82RES   C17123013   4.411   2.834   4.239  0.0178  0.7976  0.1280
   82RES   C17223014   4.534   2.750   4.211 -0.2203 -0.1973 -0.0092
   82RES   C17323015   4.655   2.779   4.306 -0.1926  0.2726 -0.5995
   82RES   O17423016   4.742   2.669   4.318  0.0757 -0.0035  0.5733
   82RES   C17523017   4.843   2.688   4.409 -0.0841  0.1007 -0.0166
   82RES   H17623018   4.374   2.820   4.340  2.5537  0.5415  1.0599
   82RES   H17723019   4.435   2.941   4.234 -1.2387  1.2175  2.4561
   82RES   H17823020   4.499   2.648   4.225  0.4758 -0.7213 -1.9289
   82RES   H17923021   4.713   2.870   4.288  1.8068 -1.0912 -1.2204
   82RES   H18023022   4.614   2.795   4.405 -0.4917  1.0359 -0.8370
   82RES   H18123023   4.917   2.760   4.375  0.1081 -0.1579 -0.1425
   82RES   H18223024   4.890   2.593   4.434 -1.9506 -0.5471  1.1667
   82RES   H18323025   4.800   2.725   4.502  1.8401  0.6756  0.6532
   82RES   O18423026   4.589   2.759   4.081 -0.4402  0.6123 -0.3646
   82RES   C18523027   4.525   2.679   3.985 -0.1017 -0.5953  0.3859
   82RES   C18623028   4.615   2.664   3.860 -0.0390 -0.8342  0.0479
   82RES   C18723029   4.547   2.622   3.730 -0.2539 -0.1665 -0.0847
   82RES   O18823030   4.619   2.674   3.618  0.0758 -0.1930  0.4305
   82RES   C18923031   4.568   2.654   3.482 -0.1252 -0.0475 -0.5003
   82RES   H19023032   4.439   2.741   3.959 -0.4075 -1.5464 -0.9237
   82RES   H19123033   4.500   2.577   4.016  1.4862 -1.3893 -0.9125
   82RES   H19223034   4.660   2.762   3.843 -0.7983  0.1506  3.2559
   82RES   H19323035   4.447   2.666   3.732 -1.5142 -2.9373  1.7063
   82RES   H19423036   4.517   2.518   3.723  1.0740 -0.5915  0.3771
   82RES   H19523037   4.596   2.738   3.418  0.2527 -0.7748 -1.2958
   82RES   H19623038   4.627   2.565   3.458  2.6707  1.1229  1.6871
   82RES   H19723039   4.460   2.655   3.470 -0.3065 -0.0242  1.0736
   82RES   O19823040   4.709   2.564   3.890  0.1539 -0.1090  0.1396
   82RES   C19923041   4.825   2.617   3.959  0.5463 -0.2818 -0.0453
   82RES   C20023042   4.925   2.500   4.001 -0.3418  0.2671 -0.0816
   82RES   C20123043   5.016   2.536   4.106  0.3086  0.2658 -0.7001
   82RES   O20223044   5.117   2.630   4.069  0.1271  0.2242 -0.5551
   82RES   C20323045   5.191   2.686   4.177  0.3381  0.4383  0.5938
   82RES   H20423046   4.792   2.670   4.049 -0.1274 -0.1859 -0.3475
   82RES   H20523047   4.881   2.686   3.896 -0.1309  1.5183  1.2624
   82RES   H20623048   4.873   2.418   4.052  0.0515  1.7011  2.7166
   82RES   H20723049   4.953   2.564   4.190  1.5481 -1.8558  1.0014
   82RES   H20823050   5.059   2.445   4.148  2.6503  1.4168 -0.5542
   82RES   H20923051   5.114   2.714   4.248  0.1526 -0.2781  0.6790
   82RES   H21023052   5.232   2.773   4.127 -0.1652 -0.3899 -1.3083
   82RES   H21123053   5.267   2.616   4.212 -0.0532  0.4668  1.4993
   82RES   O21223054   4.992   2.452   3.888 -0.4009 -0.2093  0.3207
   82RES   C21323055   4.931   2.341   3.833 -0.5075 -0.0328  0.2948
   82RES   C21423056   5.003   2.302   3.701 -0.0002 -0.3589  0.1343
   82RES   C21523057   4.924   2.205   3.619  0.0451 -0.1151 -1.0131
   82RES   O21623058   4.978   2.205   3.495  0.3179  0.5411 -0.1549
   82RES   C21723059   4.884   2.175   3.389  0.5011 -0.4707  0.0376
   82RES   H21823060   4.834   2.375   3.797 -1.7239 -2.0206  1.6290
   82RES   H21923061   4.922   2.253   3.896  0.3872 -0.8736 -0.7309
   82RES   H22023062   5.027   2.386   3.636 -1.9521 -1.0715 -1.5620
   82RES   H22123063   4.931   2.108   3.668  0.6238  0.1806 -0.4898
   82RES   H22223064   4.820   2.238   3.618 -0.2772 -1.1478 -1.6790
   82RES   H22323065   4.935   2.140   3.299  1.2515 -1.0211  0.6734
   82RES   H22423066   4.834   2.268   3.363  1.7182  0.3634  0.6658
   82RES   H22523067   4.809   2.098   3.411  1.0627 -1.4603 -1.3915
   82RES   O22623068   5.132   2.229   3.734  0.1679 -0.3220  0.6008
   82RES   C22723069   5.244   2.253   3.654  0.6529 -0.3328  0.2413
   82RES   C22823070   5.371   2.193   3.704  0.3849 -0.3289  0.1183
   82RES   C22923071   5.482   2.181   3.592  0.2762  0.0564  0.5243
   82RES   O23023072   5.542   2.048   3.603  0.1540  0.4491  0.5912
   82RES   C23123073   5.626   2.017   3.720 -0.2581 -0.3030 -0.5634
   82RES   H23223074   5.260   2.360   3.641  3.1104 -0.7133  0.0650
   82RES   H23323075   5.216   2.218   3.554 -0.6408  0.5831  0.2635
   82RES   H23423076   5.344   2.092   3.735 -2.2857  0.6144  1.0415
   82RES   H23523077   5.562   2.253   3.605 -0.2398  0.7833 -0.2656
   82RES   H23623078   5.437   2.200   3.495  0.1333 -0.9097  0.3980
   82RES   H23723079   5.663   1.915   3.709 -2.4489 -1.1299 -0.5941
   82RES   H23823080   5.563   2.029   3.808 -0.6111 -0.8888 -0.7360
   82RES   H23923081   5.717   2.076   3.729  1.3132 -2.7761  0.2283
   82RES   O24023082   5.429   2.270   3.809  0.0751 -0.3752 -0.3513
   82RES   C24123083   5.382   2.233   3.939  0.2047 -0.0665 -0.0070
   82RES   C24223084   5.455   2.316   4.048 -0.1017 -0.3160 -0.1729
   82RES   C24323085   5.406   2.302   4.195  0.0550  0.4239 -0.4715
   82RES   O24423086   5.453   2.409   4.270 -0.4032 -0.1267 -0.0723
   82RES   C24523087   5.415   2.408   4.410 -0.2432 -0.4371  0.1865
   82RES   H24623088   5.402   2.129   3.964  1.9261  0.4532  0.8480
   82RES   H24723089   5.274   2.245   3.951  0.4410 -0.1420  2.4901
   82RES   H24823090   5.436   2.419   4.016  0.3121  0.2947  1.5294
   82RES   H24923091   5.297   2.305   4.197  0.0651  1.0139 -0.7923
   82RES   H25023092   5.440   2.208   4.238 -0.4515  0.1526 -0.6602
   82RES   H25123093   5.431   2.310   4.455  0.0202 -0.7991 -0.6911
   82RES   H25223094   5.312   2.437   4.433  0.3800  2.1383 -0.1772
   82RES   H25323095   5.478   2.486   4.451  0.1369  0.1216 -1.4338
   82RES   O25423096   5.591   2.269   4.054  0.3988 -0.2920 -0.1960
   82RES   C25523097   5.684   2.343   3.984  0.3583  0.2718 -0.3274
   82RES   C25623098   5.741   2.446   4.074 -0.2599 -0.5161  0.6911
   82RES   C25723099   5.897   2.458   4.077 -0.9449 -0.1129  0.2938
   82RES   O25823100   5.944   2.515   4.198 -0.3378 -0.2298  0.3244
   82RES   C25923101   6.083   2.490   4.220 -0.4311  0.3983  0.2327
   82RES   H26023102   5.761   2.273   3.950  0.0463 -1.1369  1.7955
   82RES   H26123103   5.647   2.392   3.894 -0.9196  1.4708  0.8440
   82RES   H26223104   5.717   2.429   4.179 -1.2723  0.6342  0.6523
   82RES   H26323105   5.942   2.359   4.068  2.7675  1.4736  0.4347
   82RES   H26423106   5.928   2.503   3.982  1.2282 -0.3382  0.8622
   82RES   H26523107   6.119   2.516   4.319 -1.1000 -0.5386  0.7305
   82RES   H26623108   6.153   2.528   4.145  1.3636 -0.0837  1.6261
   82RES   H26723109   6.090   2.381   4.222 -1.1745  0.3489  0.1672
   82RES   O26823110   5.684   2.570   4.027  0.1546 -0.0368 -0.0377
   82RES   C26923111   5.708   2.684   4.106 -0.6291  0.5641 -0.1292
   82RES   C27023112   5.634   2.800   4.047 -0.2283 -0.0536  0.0644
   82RES   C27123113   5.638   2.927   4.133 -0.7977  0.2831  0.7774
   82RES   O27223114   5.571   2.915   4.258  0.4754 -0.3671 -0.1763
   82RES   C27323115   5.571   3.041   4.328  0.2733  0.0406  0.0292
   82RES   H27423116   5.808   2.715   4.134  0.3931 -0.4301 -2.4887
   82RES   H27523117   5.656   2.658   4.199 -0.1619  0.5884  0.1370
   82RES   H27623118   5.689   2.823   3.955  0.7515  1.9097  1.1220
   82RES   H27723119   5.586   3.009   4.084  1.0886  1.0568 -0.0008
   82RES   H27823120   5.741   2.952   4.158 -1.0165  0.7124  1.2709
   82RES   H27923121   5.675   3.068   4.345  1.0911 -2.1542 -1.1784
   82RES   H28023122   5.520   3.036   4.424  0.7743  2.4029  0.4407
   82RES   H28123123   5.520   3.110   4.260 -0.6649 -0.1880  0.4920
   82RES   H28223124   5.529   2.773   4.034 -0.9813  3.2488 -1.3075
   83RES     O123125   0.146   5.470   6.278 -0.2760  0.1009  0.1068
   83RES     C223126   0.259   5.480   6.208 -0.4379 -0.5257 -0.0593
   83RES     C323127   0.253   5.363   6.109 -0.2780 -0.6080  0.2565
   83RES     C423128   0.364   5.370   6.000  0.5910  0.4162  0.1298
   83RES     O523129   0.336   5.283   5.892  0.2379  0.5605  0.6927
   83RES     C623130   0.452   5.215   5.851  0.0387  0.3461 -0.5953
   83RES     H723131   0.259   5.580   6.164  3.0283 -0.1453  0.5988
   83RES     H823132   0.346   5.481   6.274 -0.7206 -0.9215  0.3150
   83RES     H923133   0.158   5.352   6.057  1.1058 -1.5063 -2.1802
   83RES    H1023134   0.453   5.349   6.059  0.3694  1.4916  0.8551
   83RES    H1123135   0.369   5.468   5.953  0.1978 -0.2311 -1.3022
   83RES    H1223136   0.406   5.134   5.795  2.5626 -0.8004 -1.1006
   83RES    H1323137   0.527   5.267   5.790 -1.0907  0.7273 -1.6761
   83RES    H1423138   0.503   5.165   5.933 -1.4968  1.6227  1.1713
   83RES    H1523139   0.151   5.394   6.334 -0.8593  1.4744  2.0348
   83RES    O1623140   0.283   5.250   6.197  0.4298  0.3955  0.1234
   83RES    C1723141   0.199   5.138   6.161 -0.4153  0.2416  0.1024
   83RES    C1823142   0.253   5.003   6.209  0.3732  0.0080 -0.0925
   83RES    C1923143   0.155   4.890   6.164  0.1375 -0.3765  0.3238
   83RES    O2023144   0.167   4.776   6.250 -0.3894  0.1434 -0.3597
   83RES    C2123145   0.061   4.690   6.246  0.6282 -0.6732  0.2304
   83RES    H2223146   0.201   5.136   6.052  2.5019  1.2105  0.1141
   83RES    H2323147   0.097   5.160   6.193 -0.9152  0.4071 -1.5216
   83RES    H2423148   0.282   4.989   6.313  1.2204  0.3415 -0.2787
   83RES    H2523149   0.053   4.921   6.189 -0.5168 -2.7400  0.6715
   83RES    H2623150   0.169   4.869   6.059 -2.1748 -0.1084 -0.0802
   83RES    H2723151   0.077   4.597   6.300  0.2699 -0.9237 -0.0910
   83RES    H2823152   0.029   4.673   6.143  0.7438 -0.7136  0.2015
   83RES    H2923153   7.789   4.733   6.293  0.4199  2.3919 -2.7260
   83RES    O3023154   0.369   4.992   6.132  0.2321  0.1822  0.6001
   83RES    C3123155   0.458   4.889   6.172  1.0072  0.3967 -0.3626
   83RES    C3223156   0.609   4.886   6.143 -0.5638  0.5880  0.1333
   83RES    C3323157   0.641   4.845   6.001  0.7813  0.8002  0.3865
   83RES    O3423158   0.782   4.836   5.974  0.1310 -0.2659  0.0617
   83RES    C3523159   0.815   4.796   5.845  0.1968 -0.1002 -0.2661
   83RES    H3623160   0.457   4.876   6.280 -0.2859 -0.1650 -0.4408
   83RES    H3723161   0.421   4.797   6.129 -0.1375  0.3326  0.7427
   83RES    H3823162   0.654   4.984   6.162  2.1418 -0.0504 -2.4836
   83RES    H3923163   0.601   4.917   5.930 -1.3422 -0.0479  0.6741
   83RES    H4023164   0.589   4.753   5.974 -1.6671  2.0640  0.7055
   83RES    H4123165   0.771   4.701   5.817 -0.7096  0.6725 -1.4855
   83RES    H4223166   0.924   4.795   5.845  0.2179 -3.1980  0.1288
   83RES    H4323167   0.795   4.878   5.776  0.1327 -1.5324 -1.9848
   83RES    O4423168   0.652   4.784   6.243  0.2470 -0.5058 -0.0626
   83RES    C4523169   0.781   4.792   6.291 -0.3979 -0.0254  0.2654
   83RES    C4623170   0.794   4.692   6.411  0.1667 -0.5128  0.4672
   83RES    C4723171   0.948   4.685   6.434  0.8521  0.2406  0.0509
   83RES    O4823172   0.972   4.580   6.523  0.3626 -0.1889 -0.2729
   83RES    C4923173   1.107   4.581   6.568 -0.0483 -0.3433  0.3149
   83RES    H5023174   0.807   4.896   6.312 -0.5444 -0.5090  2.9664
   83RES    H5123175   0.853   4.759   6.216 -0.4733  2.4244 -0.9693
   83RES    H5223176   0.763   4.588   6.399  0.3846 -0.5266  0.0049
   83RES    H5323177   1.013   4.668   6.349  1.1866  1.2209  0.1076
   83RES    H5423178   0.981   4.781   6.472  0.5436  0.1550  0.5456
   83RES    H5523179   1.124   4.504   6.643 -1.9540  1.3324  2.5177
   83RES    H5623180   1.136   4.675   6.613 -0.6403  0.5615 -1.1472
   83RES    H5723181   1.179   4.555   6.491 -0.3390 -0.0361 -0.0666
   83RES    O5823182   0.752   4.758   6.527 -0.6292 -0.2281 -0.1199
   83RES    C5923183   0.620   4.779   6.562  0.3764  0.1825 -0.0917
   83RES    C6023184   0.550   4.651   6.598 -0.4796  0.6818  0.0043
   83RES    C6123185   0.396   4.686   6.618 -0.1487  0.5802  0.6081
   83RES    O6223186   0.324   4.584   6.549 -0.3610  0.5132 -0.2767
   83RES    C6323187   0.315   4.465   6.624 -0.2786  0.5280 -0.6869
   83RES    H6423188   0.574   4.836   6.482  2.2367 -0.8785 -1.9772
   83RES    H6523189   0.639   4.850   6.643  0.4616 -1.6076  1.4959
   83RES    H6623190   0.552   4.580   6.515 -0.8706 -0.0796  0.6328
   83RES    H6723191   0.374   4.693   6.724 -0.3504  2.9529  0.4338
   83RES    H6823192   0.372   4.775   6.561 -0.9580 -1.5582 -2.5761
   83RES    H6923193   0.268   4.478   6.721  1.4867  0.4458  0.2087
   83RES    H7023194   0.408   4.415   6.653 -0.5443  0.7923  0.6683
   83RES    H7123195   0.245   4.396   6.577 -1.5992  0.9524  0.6392
   83RES    O7223196   0.598   4.597   6.720  0.2560  0.2868 -0.0478
   83RES    C7323197   0.713   4.510   6.717  0.9346 -0.6198  0.1605
   83RES    C7423198   0.756   4.473   6.851  0.2240 -0.4904  0.2806
   83RES    C7523199   0.895   4.408   6.865  0.5539 -0.3545  0.4531
   83RES    O7623200   0.967   4.472   6.978 -0.0986 -0.1143  0.1728
   83RES    C7723201   1.110   4.439   6.986  0.9130  0.1666 -0.4888
   83RES    H7823202   0.693   4.419   6.660  0.2654 -1.0805  1.1022
   83RES    H7923203   0.789   4.570   6.668 -3.3481  3.3632 -2.0429
   83RES    H8023204   0.768   4.561   6.914  1.5636 -1.1896  1.0423
   83RES    H8123205   0.959   4.412   6.777 -1.4679  0.7404 -0.9766
   83RES    H8223206   0.885   4.300   6.879  2.5332 -0.0663  5.3243
   83RES    H8323207   1.127   4.331   6.988 -1.7439 -0.2851 -0.7471
   83RES    H8423208   1.151   4.481   7.078  1.0159 -0.4818 -0.2363
   83RES    H8523209   1.168   4.486   6.906 -0.5531  0.5027 -1.3711
   83RES    O8623210   0.670   4.369   6.906  0.1217  0.0622 -0.3057
   83RES    C8723211   0.656   4.370   7.047  0.5009  0.8464 -0.6075
   83RES    C8823212   0.558   4.269   7.094  0.0358 -0.3186  0.1819
   83RES    C8923213   0.597   4.194   7.224 -0.3272  0.4895 -0.3283
   83RES    O9023214   0.554   4.253   7.344 -0.2373  0.1432 -0.4478
   83RES    C9123215   0.569   4.169   7.461 -0.4764  0.8566 -0.5790
   83RES    H9223216   0.753   4.344   7.090  0.5300  0.7495 -0.7332
   83RES    H9323217   0.620   4.468   7.081  0.6723  1.1024 -1.1505
   83RES    H9423218   0.565   4.199   7.012  1.3600 -1.2608  1.0770
   83RES    H9523219   0.571   4.088   7.231  0.8266  0.2614  0.9356
   83RES    H9623220   0.705   4.189   7.239 -0.3826 -3.4931 -0.6002
   83RES    H9723221   0.509   4.078   7.453 -1.0861  1.2402 -0.4365
   83RES    H9823222   0.670   4.130   7.472 -1.5118 -1.2787  1.7947
   83RES    H9923223   0.555   4.218   7.557 -1.0696 -0.9784  0.2936
   83RES   O10023224   0.422   4.317   7.096 -0.4131  0.2786  0.2769
   83RES   C10123225   0.357   4.299   6.969 -0.1815 -0.2701 -0.2087
   83RES   C10223226   0.321   4.159   6.928  1.1485 -0.5229  0.2794
   83RES   C10323227   0.263   4.151   6.780  0.0520  0.5838 -0.7813
   83RES   O10423228   0.250   4.012   6.750 -0.4057  0.1183  0.2586
   83RES   C10523229   0.227   3.990   6.615  0.2552 -0.2131  0.5492
   83RES   H10623230   0.415   4.353   6.894  0.6794 -2.7396 -1.3697
   83RES   H10723231   0.265   4.357   6.961  1.3149  1.9196 -2.0876
   83RES   H10823232   0.407   4.091   6.934  3.0097  1.6968 -0.6891
   83RES   H10923233   0.334   4.206   6.718  0.5417  0.4258 -0.3656
   83RES   H11023234   0.164   4.195   6.765  0.6954  1.4668 -2.5458
   83RES   H11123235   0.221   3.884   6.592 -0.0785 -0.4307  1.6042
   83RES   H11223236   0.312   4.018   6.553 -1.6304 -0.9300 -2.4425
   83RES   H11323237   0.137   4.038   6.578  0.6921 -0.5870 -1.0104
   83RES   O11423238   0.216   4.101   7.008 -0.2412 -0.4171  0.2731
   83RES   C11523239   0.227   4.089   7.147  0.4228 -0.5109  0.5679
   83RES   C11623240   0.123   3.996   7.203 -0.7271  1.3352 -0.9496
   83RES   C11723241   0.136   3.979   7.359 -0.3102  0.1653  0.0550
   83RES   O11823242   0.046   3.888   7.407  0.3266 -0.1460  0.1852
   83RES   C11923243   0.039   3.895   7.553 -0.0524  0.2052 -0.1582
   83RES   H12023244   0.328   4.051   7.165  0.6379 -1.2040 -1.9125
   83RES   H12123245   0.216   4.191   7.183 -1.4306 -0.5804  0.2501
   83RES   H12223246   0.141   3.899   7.157  1.6279  0.4099  1.7796
   83RES   H12323247   0.234   3.954   7.399 -0.5289 -1.7198 -0.5164
   83RES   H12423248   0.118   4.085   7.380 -1.0613 -0.0442  0.4950
   83RES   H12523249   7.816   3.993   7.579  0.3522  0.6812 -1.2705
   83RES   H12623250   0.129   3.881   7.613 -2.0190 -2.2179  2.3935
   83RES   H12723251   7.782   3.824   7.588  0.0328 -0.4610 -1.3120
   83RES   O12823252   7.816   4.047   7.167  0.3566 -0.0476 -0.0841
   83RES   C12923253   7.756   3.981   7.056  0.3485 -0.0705 -0.4770
   83RES   C13023254   7.631   4.067   7.020 -0.3887 -0.3490  0.0747
   83RES   C13123255   7.536   3.976   6.937 -0.5220 -0.1439 -0.2638
   83RES   O13223256   7.619   3.900   6.849  0.3952 -0.0404 -0.3876
   83RES   C13323257   7.653   3.948   6.722 -0.1795  0.0572  0.1291
   83RES   H13423258   0.005   3.971   6.970  2.3349  1.2150  0.8634
   83RES   H13523259   7.716   3.884   7.083 -0.5263  0.5347  0.4303
   83RES   H13623260   7.581   4.098   7.112  0.6324  0.6436  0.3008
   83RES   H13723261   7.458   4.029   6.881  0.4009 -1.5561 -2.9538
   83RES   H13823262   7.479   3.924   7.014 -1.5068  1.3832  0.0795
   83RES   H13923263   7.689   3.859   6.671  1.1865  0.1277  0.9431
   83RES   H14023264   7.571   4.000   6.672  0.5618  2.1299  1.0161
   83RES   H14123265   7.736   4.018   6.724  0.0888 -0.2675  1.4025
   83RES   O14223266   7.678   4.162   6.925  0.2007  0.1599 -0.4876
   83RES   C14323267   7.699   4.289   6.985  0.2585  0.6932 -0.1392
   83RES   C14423268   7.741   4.395   6.886  0.3385 -0.4494  0.0944
   83RES   C14523269   7.814   4.514   6.954 -0.6304 -0.0985  0.0818
   83RES   O14623270   0.075   4.579   6.861  0.4716 -0.2324 -0.3076
   83RES   C14723271   0.016   4.656   6.759  0.4852  0.6809  0.8391
   83RES   H14823272   7.602   4.313   7.028 -0.4485 -2.9666  0.4601
   83RES   H14923273   7.773   4.273   7.063 -0.8325  0.5710  0.8799
   83RES   H15023274   7.798   4.352   6.804  0.1697  1.0286 -0.8197
   83RES   H15123275   0.056   4.485   7.041 -2.2343  1.2469  1.6541
   83RES   H15223276   7.747   4.584   7.003  0.6389  1.3670 -0.2265
   83RES   H15323277   0.097   4.721   6.728  0.5124  0.8085  1.1702
   83RES   H15423278   7.743   4.704   6.798 -1.9273 -2.4208 -0.6704
   83RES   H15523279   7.799   4.596   6.674  1.8577  1.6785 -0.4318
   83RES   O15623280   7.616   4.442   6.837 -0.3675 -0.1509  0.0237
   83RES   C15723281   7.551   4.342   6.756 -0.7957  0.2858  0.1504
   83RES   C15823282   7.461   4.409   6.651 -0.0121 -0.3205 -0.0454
   83RES   C15923283   7.532   4.515   6.570  0.0722  0.1089  0.0779
   83RES   O16023284   7.454   4.533   6.454 -0.2484 -0.5987 -0.3353
   83RES   C16123285   7.516   4.620   6.362 -0.4085 -0.6807 -1.0158
   83RES   H16223286   7.626   4.278   6.712 -1.7069 -1.0253  0.4868
   83RES   H16323287   7.489   4.276   6.818 -2.0964 -0.3471 -1.7867
   83RES   H16423288   7.418   4.333   6.586 -1.5977 -0.7721  1.4680
   83RES   H16523289   7.549   4.602   6.633  0.0671  0.5285 -0.4917
   83RES   H16623290   7.630   4.480   6.537  0.3755  0.0283  1.0524
   83RES   H16723291   7.443   4.660   6.291  0.9159 -0.5013 -2.2903
   83RES   H16823292   7.586   4.572   6.294  1.7156 -0.2578  0.7965
   83RES   H16923293   7.568   4.703   6.410  1.0368 -0.9223 -2.1543
   83RES   O17023294   7.350   4.471   6.716  0.9313 -0.6076 -0.0337
   83RES   C17123295   7.238   4.481   6.629  0.1918  0.4442 -0.1682
   83RES   C17223296   7.120   4.511   6.734 -0.3938 -0.6434 -0.3238
   83RES   C17323297   7.120   4.662   6.766  0.3165 -0.6919 -0.7731
   83RES   O17423298   6.991   4.698   6.822 -0.5334  0.2108  0.3496
   83RES   C17523299   6.945   4.622   6.928 -0.6712  0.3697 -0.3646
   83RES   H17623300   7.211   4.391   6.574  1.0402 -1.1954  2.0319
   83RES   H17723301   7.231   4.566   6.561  0.8879  0.9103  0.3309
   83RES   H17823302   7.026   4.481   6.688  0.2167 -0.3720 -1.7476
   83RES   H17923303   7.208   4.686   6.825 -1.5547  0.7828  1.5410
   83RES   H18023304   7.123   4.717   6.672  2.3265 -1.3759 -1.1353
   83RES   H18123305   6.918   4.521   6.898  0.0947 -0.5309  1.8691
   83RES   H18223306   6.853   4.674   6.957  1.2407  3.3580  0.6269
   83RES   H18323307   7.015   4.633   7.011 -0.2198  1.4395 -0.8824
   83RES   O18423308   7.133   4.439   6.855  0.2349  0.3858  0.0828
   83RES   C18523309   7.088   4.301   6.851  0.1736 -0.1061  0.4284
   83RES   C18623310   7.168   4.217   6.951  0.3323  0.2099 -0.5721
   83RES   C18723311   7.120   4.073   6.935  0.3386 -0.4248 -0.5049
   83RES   O18823312   7.230   3.996   6.983 -0.0825  0.3976 -0.2856
   83RES   C18923313   7.213   3.859   6.960  0.4942 -0.2560  0.2617
   83RES   H19023314   7.106   4.265   6.750 -0.8748 -0.0455  0.2095
   83RES   H19123315   6.983   4.287   6.875  0.1378 -0.0424  0.3146
   83RES   H19223316   7.269   4.231   6.913  0.2091 -0.0125 -0.9854
   83RES   H19323317   7.107   4.044   6.831  1.1870  1.2412 -1.0814
   83RES   H19423318   7.026   4.052   6.988 -0.8547  1.2471 -1.8950
   83RES   H19523319   7.272   3.806   7.035  4.0762  1.1791 -1.3877
   83RES   H19623320   7.110   3.827   6.974  0.2254  1.0015  1.2350
   83RES   H19723321   7.254   3.823   6.865  0.1799  2.2266 -0.8483
   83RES   O19823322   7.134   4.263   7.079  0.5813 -0.1595  0.4452
   83RES   C19923323   7.211   4.229   7.196 -0.2593 -0.5611  0.5640
   83RES   C20023324   7.346   4.301   7.195  0.2444  0.2223 -0.3061
   83RES   C20123325   7.425   4.254   7.312  0.1896 -0.4446 -0.4656
   83RES   O20223326   7.565   4.290   7.283 -0.8402  0.2462 -0.0331
   83RES   C20323327   7.649   4.224   7.371 -0.7328  0.3693  0.2403
   83RES   H20423328   7.242   4.125   7.194  2.9501  0.3689 -1.4334
   83RES   H20523329   7.150   4.254   7.283 -0.0362 -3.5376  1.6198
   83RES   H20623330   7.402   4.271   7.106  0.4354 -0.0782 -0.0858
   83RES   H20723331   7.410   4.309   7.405  0.6059  1.0025 -1.2376
   83RES   H20823332   7.422   4.148   7.336 -2.2338 -0.2297  0.3905
   83RES   H20923333   7.753   4.236   7.338 -0.9263 -1.2305 -1.0259
   83RES   H21023334   7.622   4.120   7.386  0.4104  0.2688  1.7327
   83RES   H21123335   7.643   4.265   7.472 -1.5116  0.9670 -0.0406
   83RES   O21223336   7.312   4.440   7.191 -0.1352  0.5623 -0.1784
   83RES   C21323337   7.393   4.523   7.113  0.0239 -0.6898  0.1745
   83RES   C21423338   7.360   4.672   7.112 -0.5829  0.1353  0.3020
   83RES   C21523339   7.414   4.752   6.990 -0.5520  0.2520 -0.5361
   83RES   O21623340   7.328   4.863   6.951 -0.0975  0.2586 -0.0209
   83RES   C21723341   7.322   4.971   7.046  0.6183 -0.0469 -0.0723
   83RES   H21823342   7.397   4.492   7.009 -0.5263 -1.5616  0.4121
   83RES   H21923343   7.497   4.503   7.139  0.4310 -1.4466 -1.9392
   83RES   H22023344   7.252   4.677   7.115 -0.7446  0.0987 -3.3422
   83RES   H22123345   7.514   4.787   7.016  0.1664 -0.7895 -1.8485
   83RES   H22223346   7.437   4.687   6.906  0.1987 -1.1100  0.7185
   83RES   H22323347   7.417   4.998   7.092  0.5092 -0.4674  0.4103
   83RES   H22423348   7.261   4.938   7.130  0.2475  0.0144 -0.3152
   83RES   H22523349   7.264   5.050   6.999 -0.3507  0.6182  2.1741
   83RES   O22623350   7.431   4.728   7.220  0.3863  0.4744 -0.2448
   83RES   C22723351   7.354   4.716   7.333  0.1806  0.5013  0.0062
   83RES   C22823352   7.411   4.798   7.444  0.1452 -0.3944 -0.2750
   83RES   C22923353   7.305   4.843   7.550  0.5234  0.1773 -0.0380
   83RES   O23023354   7.354   4.942   7.639 -0.3336  0.2438  0.2867
   83RES   C23123355   7.253   5.034   7.683 -0.2844 -0.1792 -0.0152
   83RES   H23223356   7.327   4.616   7.367  0.9348  1.0172  2.1706
   83RES   H23323357   7.256   4.763   7.319 -2.5515 -4.1238  2.1630
   83RES   H23423358   7.455   4.893   7.416 -1.1947  0.7801  1.4920
   83RES   H23523359   7.270   4.757   7.608 -0.9051  0.1185 -0.9586
   83RES   H23623360   7.222   4.879   7.489 -0.6449 -1.9860  0.2083
   83RES   H23723361   7.191   5.063   7.598  0.4187  0.7611 -0.2170
   83RES   H23823362   7.285   5.125   7.733 -0.6976  0.4643 -0.9180
   83RES   H23923363   7.188   4.988   7.757  1.9717  0.4838  2.4212
   83RES   O24023364   7.505   4.717   7.510 -0.3804  0.4149  0.9755
   83RES   C24123365   7.637   4.733   7.458 -0.2902  0.7494  0.0854
   83RES   C24223366   7.713   4.609   7.507 -0.2516 -0.3297 -0.5448
   83RES   C24323367   0.026   4.589   7.427 -0.0267 -0.0810 -0.3166
   83RES   O24423368   0.071   4.457   7.458  0.1141 -0.4166  0.2380
   83RES   C24523369   0.181   4.412   7.380  0.5357 -0.3641 -0.1897
   83RES   H24623370   7.683   4.829   7.483 -0.7092  0.5762  1.5517
   83RES   H24723371   7.637   4.739   7.349  1.4623 -0.2962  0.0044
   83RES   H24823372   7.640   4.528   7.506 -1.8849  1.0857  1.4193
   83RES   H24923373   0.007   4.584   7.320  1.0732  0.2598 -0.5374
   83RES   H25023374   0.106   4.662   7.434 -0.0386 -0.0493 -0.5035
   83RES   H25123375   0.259   4.487   7.372 -1.3242  1.3907 -2.5447
   83RES   H25223376   0.152   4.398   7.276  1.0280 -0.2554 -0.3396
   83RES   H25323377   0.220   4.315   7.411 -1.7231 -1.0484  0.6307
   83RES   O25423378   7.739   4.644   7.643 -0.4232 -0.6299 -0.0331
   83RES   C25523379   7.748   4.533   7.736 -0.3995  0.0177  0.3554
   83RES   C25623380   7.618   4.441   7.756 -0.8829 -0.0549 -0.0513
   83RES   C25723381   7.664   4.301   7.792  0.0402 -0.3306 -0.3561
   83RES   O25823382   7.561   4.211   0.015 -0.2951 -0.1117 -0.3083
   83RES   C25923383   7.602   4.071   0.025  0.1112 -0.2308  0.1178
   83RES   H26023384   0.009   4.468   7.697  0.8703  0.3287  2.2861
   83RES   H26123385   7.776   4.573   0.017 -0.7766 -1.2177  0.9829
   83RES   H26223386   7.568   4.433   7.660  1.5479  1.2073 -1.4836
   83RES   H26323387   7.711   4.251   7.707  0.4432  1.8118 -1.4126
   83RES   H26423388   7.742   4.318   0.049  0.7619  0.7435 -1.3373
   83RES   H26523389   7.688   4.069   0.093 -0.5221 -0.4128  0.9323
   83RES   H26623390   7.635   4.031   7.747 -0.8907 -0.2920 -0.2085
   83RES   H26723391   7.525   4.009   0.073  0.7261 -1.0670  0.0221
   83RES   O26823392   7.542   4.483   0.053 -0.1931  0.7008  0.2720
   83RES   C26923393   7.452   4.575   0.009 -0.4759 -0.0136  0.0392
   83RES   C27023394   7.348   4.585   0.125 -0.3612  0.1069 -0.2282
   83RES   C27123395   7.273   4.718   0.092 -1.2024  0.1152 -0.0992
   83RES   O27223396   7.206   4.756   0.211 -0.4122 -0.0707  0.1283
   83RES   C27323397   7.082   4.805   0.194 -0.3220 -0.0918  0.1462
   83RES   H27423398   7.400   4.566   7.731  1.1191 -0.9601 -0.7626
   83RES   H27523399   7.502   4.671   0.000  0.4624 -0.5055 -0.0285
   83RES   H27623400   7.275   4.505   0.131  0.3256 -0.5756 -0.8947
   83RES   H27723401   7.201   4.702   0.012 -0.4116 -1.2396 -0.5703
   83RES   H27823402   7.336   4.799   0.056 -1.1148 -0.0640 -0.3467
   83RES   H27923403   7.021   4.719   0.166 -0.6771 -0.1794  1.1637
   83RES   H28023404   7.085   4.875   0.111  0.0015  1.2793  1.3005
   83RES   H28123405   7.055   4.851   0.289  1.1626 -0.8855  0.9840
   83RES   H28223406   7.402   4.599   0.219 -1.0120 -0.7414  0.2832
   84RES     O123407   4.599   0.561   7.630  0.4688 -0.2990 -0.0241
   84RES     C223408   4.652   0.430   7.630 -0.1188  0.3291  0.1511
   84RES     C323409   4.528   0.344   7.646  0.2965 -0.2238 -0.3173
   84RES     C423410   4.565   0.203   7.683 -0.5142 -0.6195 -0.6213
   84RES     O523411   4.463   0.108   7.652  0.6533  0.0944  0.2750
   84RES     C623412   4.514   7.792   7.678 -0.5510 -0.3197  0.5206
   84RES     H723413   4.707   0.409   7.539  0.4832  0.3944  0.5003
   84RES     H823414   4.716   0.422   7.718  0.1316  0.1959 -0.0447
   84RES     H923415   4.474   0.336   7.552 -1.0137  1.8650  0.2223
   84RES    H1023416   4.593   0.196   7.788  0.1833  0.9439 -0.6847
   84RES    H1123417   4.653   0.171   7.627 -0.1367 -1.5874  0.5166
   84RES    H1223418   4.429   7.724   7.673  0.6606 -1.7296 -2.6463
   84RES    H1323419   4.561   7.757   7.586  0.3665  0.0193  0.8622
   84RES    H1423420   4.571   7.768   7.767  0.2947 -1.4421 -0.3132
   84RES    H1523421   4.537   0.572   7.701  0.4751  0.4327 -0.1322
   84RES    O1623422   4.453   0.382   7.761  0.2678  0.2479  0.1208
   84RES    C1723423   4.317   0.416   7.741  0.4321 -0.0291 -0.0207
   84RES    C1823424   4.264   0.503   0.036 -0.8610  0.4920 -0.0451
   84RES    C1923425   4.306   0.434   0.170  0.1008  0.2086 -0.4730
   84RES    O2023426   4.227   0.503   0.270 -0.1166  0.4325  0.1851
   84RES    C2123427   4.297   0.546   0.387 -0.2548  0.0625  1.1080
   84RES    H2223428   4.263   0.322   7.736  2.4384 -1.1105 -1.9785
   84RES    H2323429   4.310   0.470   7.646  1.2894  0.8876  0.4171
   84RES    H2423430   4.155   0.502   0.029 -0.7657  1.7314 -2.2713
   84RES    H2523431   4.289   0.327   0.171  0.2042  0.1979  0.2380
   84RES    H2623432   4.411   0.438   0.199 -0.0373 -3.0372  0.6717
   84RES    H2723433   4.242   0.605   0.460 -0.3350  0.7327  0.5155
   84RES    H2823434   4.373   0.616   0.352  0.1354 -0.4715  0.8742
   84RES    H2923435   4.327   0.463   0.450 -1.8442 -0.9314  0.6009
   84RES    O3023436   4.319   0.635   0.013 -0.6969 -0.2690 -0.4536
   84RES    C3123437   4.221   0.730   7.806  0.2630  0.2515  0.6068
   84RES    C3223438   4.181   0.743   7.660 -0.5834  0.6602  0.1890
   84RES    C3323439   4.139   0.887   7.623 -0.9580  0.0238 -0.2116
   84RES    O3423440   4.181   0.912   7.494 -0.9514 -0.3489  1.0304
   84RES    C3523441   4.096   0.999   7.424 -0.1361 -0.5926 -0.1432
   84RES    H3623442   4.137   0.723   0.059  2.4969  0.3097  3.3606
   84RES    H3723443   4.264   0.824   0.024  2.8200  0.3137 -2.5190
   84RES    H3823444   4.275   0.723   7.610 -1.8738 -0.8626 -1.6822
   84RES    H3923445   4.185   0.961   7.688 -2.9810  0.0938  1.1917
   84RES    H4023446   4.030   0.897   7.630 -0.7989  0.6902  1.4850
   84RES    H4123447   4.144   1.017   7.328  2.2187 -0.3481  1.0425
   84RES    H4223448   4.075   1.091   7.479 -0.8590 -2.0213  2.0310
   84RES    H4323449   4.003   0.950   7.396 -1.3442  1.1534  0.6914
   84RES    O4423450   4.087   0.648   7.624  0.7493 -0.4515  0.5559
   84RES    C4523451   4.060   0.629   7.486 -0.2306  0.8763  0.2914
   84RES    C4623452   3.939   0.530   7.471 -0.0458 -0.6723 -0.0230
   84RES    C4723453   3.885   0.523   7.331  0.1256 -0.3993  0.0295
   84RES    O4823454   3.748   0.478   7.328 -0.0618 -0.9201  0.1386
   84RES    C4923455   3.704   0.443   7.197 -0.2545 -0.1006 -0.0969
   84RES    H5023456   4.146   0.577   7.443  0.6784 -0.0557  3.0879
   84RES    H5123457   4.029   0.718   7.432  3.8766  2.9927  1.1965
   84RES    H5223458   3.858   0.575   7.528  0.5022  0.6877 -0.2962
   84RES    H5323459   3.880   0.623   7.288 -3.0714 -0.8365 -0.7733
   84RES    H5423460   3.948   0.473   7.259 -1.8527 -1.1841 -1.1905
   84RES    H5523461   3.613   0.383   7.206  0.5310 -1.6033 -1.8706
   84RES    H5623462   3.776   0.376   7.151 -2.0039 -0.7743 -1.9400
   84RES    H5723463   3.689   0.531   7.134 -1.5255  1.2994  2.0797
   84RES    O5823464   3.963   0.395   7.502 -0.1988 -0.1111 -0.0860
   84RES    C5923465   3.956   0.374   7.646 -0.2516 -0.9152  0.0481
   84RES    C6023466   3.804   0.349   7.698 -0.4075  0.2669  0.8435
   84RES    C6123467   3.777   0.440   7.815 -0.2815 -0.0725  0.1520
   84RES    O6223468   3.654   0.408   0.047  0.6172  0.3682  0.0683
   84RES    C6323469   3.616   0.482   0.162 -0.2442 -0.2279 -0.2561
   84RES    H6423470   4.005   0.456   7.698  1.9143 -3.1674  1.6398
   84RES    H6523471   4.021   0.287   7.658 -0.2263 -1.1352 -1.4784
   84RES    H6623472   3.725   0.358   7.623  2.1665 -0.3084 -2.0737
   84RES    H6723473   3.860   0.428   0.067 -0.3697  0.2868  0.3210
   84RES    H6823474   3.766   0.542   7.779 -1.9465  0.6494  2.6272
   84RES    H6923475   3.619   0.589   0.143  1.4101 -0.4635 -1.5427
   84RES    H7023476   3.691   0.460   0.238 -1.0858 -3.7251 -0.3427
   84RES    H7123477   3.522   0.447   0.203  0.5750 -0.3296  1.5785
   84RES    O7223478   3.800   0.210   7.741  0.4056 -0.0662 -0.5548
   84RES    C7323479   3.752   0.124   7.644 -0.2588  0.0066 -0.6442
   84RES    C7423480   3.783   7.797   7.681 -0.4230 -0.4240  0.0168
   84RES    C7523481   3.697   7.750   7.801  0.1667  0.4647 -0.2252
   84RES    O7623482   3.690   7.608   7.797  0.0161 -0.3665 -0.2866
   84RES    C7723483   3.621   7.561   0.094  0.3516  0.6414 -0.5393
   84RES    H7823484   3.648   0.148   7.618 -0.4006 -0.3520 -0.4057
   84RES    H7923485   3.814   0.142   7.557  1.4591 -0.3671  0.4911
   84RES    H8023486   3.752   7.740   7.592 -1.8969  1.7081 -0.8920
   84RES    H8123487   3.595   7.784   7.788 -0.0645 -0.1116  0.0303
   84RES    H8223488   3.737   7.790   0.077  0.1340  1.9944 -0.8541
   84RES    H8323489   3.668   7.575   0.191 -1.8143 -2.4752  1.0337
   84RES    H8423490   3.632   7.454   0.075  2.1468  0.5901  0.7543
   84RES    H8523491   3.514   7.581   0.092  0.3415  0.9698  1.5568
   84RES    O8623492   3.926   7.785   7.713 -0.9450 -0.6381  0.2553
   84RES    C8723493   3.970   7.655   7.685  0.2375 -0.2548  0.3264
   84RES    C8823494   4.120   7.652   7.667 -0.4034 -0.4047 -0.3398
   84RES    C8923495   4.182   7.512   7.669 -0.0923  0.7455  0.4865
   84RES    O9023496   4.326   7.504   7.663  0.1634 -0.5317 -0.2743
   84RES    C9123497   4.382   7.482   7.543 -0.4571 -0.0816 -0.2143
   84RES    H9223498   3.949   7.589   7.768  0.6332 -0.2387  0.4411
   84RES    H9323499   3.932   7.609   7.594 -1.7910  1.9460  0.0072
   84RES    H9423500   4.172   7.702   7.749 -3.2536  1.9281  0.1361
   84RES    H9523501   4.160   7.469   7.766 -2.0271  0.6249  0.0038
   84RES    H9623502   4.131   7.449   7.596 -0.0141 -1.6540  2.4445
   84RES    H9723503   4.362   7.576   7.492 -1.7607 -0.6438 -0.7724
   84RES    H9823504   4.489   7.457   7.539 -0.2247  0.7886  0.4588
   84RES    H9923505   4.338   7.402   7.484  0.6952 -0.8674 -0.0405
   84RES   O10023506   4.162   7.710   7.539 -0.0539  0.1732  0.3589
   84RES   C10123507   4.131   0.031   7.508 -0.0028  0.6324 -0.4937
   84RES   C10223508   4.218   0.081   7.382 -0.6360 -0.2062 -0.4927
   84RES   C10323509   4.225   0.231   7.375 -0.4598  0.2203 -0.2046
   84RES   O10423510   4.316   0.273   7.280  0.1516  0.3690 -0.2007
   84RES   C10523511   4.331   0.413   7.268 -0.0324 -0.4205 -0.5849
   84RES   H10623512   4.150   0.096   7.594 -1.4084  0.7412 -0.2444
   84RES   H10723513   4.023   0.044   7.495 -0.3703  0.8951  2.4949
   84RES   H10823514   4.312   0.036   7.412 -1.4507 -1.9122 -0.4523
   84RES   H10923515   4.266   0.257   7.473  0.6309 -0.4204 -0.4797
   84RES   H11023516   4.136   0.290   7.356  0.2927  0.7100 -2.2522
   84RES   H11123517   4.429   0.427   7.222 -0.3735  1.5595 -0.7458
   84RES   H11223518   4.323   0.464   7.363 -0.3663  1.0254 -1.3676
   84RES   H11323519   4.256   0.456   7.201  0.4461 -2.1691 -2.3174
   84RES   O11423520   4.142   0.041   7.273 -0.1890  0.7742 -0.3376
   84RES   C11523521   4.198   7.753   7.189 -0.8248 -0.8155  0.1619
   84RES   C11623522   4.311   7.801   7.101  0.1586 -0.5403 -0.9651
   84RES   C11723523   4.450   7.784   7.167  0.1540 -0.4753 -0.2095
   84RES   O11823524   4.475   7.643   7.191  0.3620 -0.2847 -0.0008
   84RES   C11923525   4.614   7.612   7.182 -0.7884  0.1498  0.0749
   84RES   H12023526   4.220   7.669   7.255 -1.3513 -0.0512  1.3108
   84RES   H12123527   4.115   7.723   7.126 -1.7122 -1.4454  1.6125
   84RES   H12223528   4.297   0.088   7.070 -2.4551 -1.1919 -2.1427
   84RES   H12323529   4.524   0.013   7.101 -0.6041 -0.2918 -0.9348
   84RES   H12423530   4.457   0.028   7.257 -0.0445 -2.5525  1.2444
   84RES   H12523531   4.675   7.675   7.247  0.1631  0.4943 -1.1416
   84RES   H12623532   4.645   7.616   7.077  1.5008  0.5391  0.7380
   84RES   H12723533   4.626   7.511   7.220 -1.9271 -0.0023  0.0336
   84RES   O12823534   4.306   7.731   6.980  0.1366 -0.5394 -0.4877
   84RES   C12923535   4.391   7.748   6.869  0.4721  0.2899 -0.1585
   84RES   C13023536   4.332   7.674   6.746  0.2571 -0.1332  0.3171
   84RES   C13123537   4.416   7.672   6.613 -0.1140  0.2579  0.5664
   84RES   O13223538   4.432   7.815   6.580  0.0057  0.2429  0.3925
   84RES   C13323539   4.545   0.018   6.501 -0.2175  0.1863  0.3474
   84RES   H13423540   4.390   0.037   6.843 -0.9058  0.1878 -0.5925
   84RES   H13523541   4.495   7.718   6.881  0.1173 -0.5377  0.8964
   84RES   H13623542   4.325   7.575   6.792  0.9469 -1.4808 -2.4007
   84RES   H13723543   4.369   7.615   6.533 -1.9350 -0.4169  2.0693
   84RES   H13823544   4.517   7.633   6.625  0.6269  1.9386 -0.0476
   84RES   H13923545   4.546   0.109   6.441  0.4102  0.7703  1.2348
   84RES   H14023546   4.630   0.020   6.569  1.8768 -0.3107 -2.1691
   84RES   H14123547   4.550   7.762   6.420 -0.6080  0.6810 -0.1299
   84RES   O14223548   4.201   7.732   6.734  0.0841 -0.1933  0.8583
   84RES   C14323549   4.104   7.658   6.661  0.2254 -0.2814 -0.2822
   84RES   C14423550   3.984   7.739   6.626 -0.5129 -0.4322  0.4550
   84RES   C14523551   3.849   7.663   6.608  0.4874 -0.2845 -0.8070
   84RES   O14623552   3.855   7.561   6.516  0.2161  0.2327 -0.6824
   84RES   C14723553   3.788   7.587   6.396  0.0658 -0.3627  0.5819
   84RES   H14823554   4.144   7.613   6.570 -1.2205 -1.2158 -0.4633
   84RES   H14923555   4.087   7.560   6.704 -0.9664 -0.3359 -0.8671
   84RES   H15023556   3.973   7.800   6.716 -0.5626  0.6636 -0.2899
   84RES   H15123557   3.758   7.721   6.593  0.9253  1.0512  1.3684
   84RES   H15223558   3.825   7.610   6.701 -0.4105 -2.6371 -2.3524
   84RES   H15323559   3.686   7.623   6.411 -0.9087 -0.0931 -5.5440
   84RES   H15423560   3.788   7.501   6.329 -0.2330  0.7258 -0.8448
   84RES   H15523561   3.842   7.667   6.344 -2.6526  0.6667 -0.7777
   84RES   O15623562   3.990   0.009   6.509  0.0419  0.0964 -0.5261
   84RES   C15723563   4.089   0.110   6.514 -0.1183 -1.3124 -0.3245
   84RES   C15823564   4.079   0.194   6.391 -0.5357  0.4434  0.0283
   84RES   C15923565   4.180   0.313   6.400  0.1311  0.7709 -0.3858
   84RES   O16023566   4.193   0.384   6.527 -0.1541 -0.3455  0.0665
   84RES   C16123567   4.087   0.468   6.569  0.4432 -0.0578 -0.1101
   84RES   H16223568   4.049   0.169   6.597  0.1475  1.8272 -2.3195
   84RES   H16323569   4.191   0.082   6.538  0.1209 -1.3132 -1.3332
   84RES   H16423570   4.089   0.131   6.302 -1.4285 -1.1281  1.0199
   84RES   H16523571   4.280   0.274   6.386 -0.1487 -0.1385  0.0788
   84RES   H16623572   4.168   0.377   6.313 -2.0758 -0.6965 -1.2004
   84RES   H16723573   3.998   0.411   6.595  1.4763 -1.5941  0.1969
   84RES   H16823574   4.068   0.546   6.496 -0.8935 -0.0524  0.2282
   84RES   H16923575   4.118   0.519   6.660  0.2493 -0.3103  0.0999
   84RES   O17023576   3.947   0.246   6.392  0.2912 -0.4458 -0.0418
   84RES   C17123577   3.875   0.215   6.272  0.1909  0.2588 -0.9712
   84RES   C17223578   3.752   0.307   6.257  0.0672  0.3888 -0.6278
   84RES   C17323579   3.633   0.236   6.190  0.1719 -0.6725  0.2441
   84RES   O17423580   3.680   0.171   6.065 -0.1374 -0.3593 -0.6224
   84RES   C17523581   3.661   0.254   5.951  0.0268  0.0389 -0.0299
   84RES   H17623582   3.845   0.110   6.265 -0.8557  0.3522  1.5369
   84RES   H17723583   3.934   0.241   6.185  2.2670  0.0408  0.3233
   84RES   H17823584   3.723   0.338   6.357  0.5089 -1.0726 -0.0441
   84RES   H17923585   3.590   0.159   6.255 -2.1557  1.5538  1.4150
   84RES   H18023586   3.556   0.305   6.157  1.5289  0.7916  0.0614
   84RES   H18123587   3.702   0.355   5.954 -0.8505  0.3851  0.7894
   84RES   H18223588   3.556   0.253   5.920 -0.1632 -0.2128  0.6126
   84RES   H18323589   3.718   0.210   5.870 -0.7317 -0.1204 -0.4872
   84RES   O18423590   3.790   0.419   6.171 -0.1526 -0.2091 -0.7784
   84RES   C18523591   3.767   0.552   6.222  0.4063  1.1323  0.3525
   84RES   C18623592   3.624   0.607   6.200 -0.1950 -0.3458  0.3971
   84RES   C18723593   3.623   0.764   6.206  0.0175 -0.1096  0.3203
   84RES   O18823594   3.529   0.815   6.110 -0.2319 -0.0682  0.5875
   84RES   C18923595   3.528   0.956   6.104 -0.3593 -0.2003  0.3713
   84RES   H19023596   3.839   0.616   6.171  0.5106 -0.5432 -1.6816
   84RES   H19123597   3.781   0.567   6.329  0.2352 -1.5348  0.7806
   84RES   H19223598   3.585   0.575   6.104 -2.2518  1.6906  0.5161
   84RES   H19323599   3.724   0.799   6.184 -0.9078  1.6830 -1.1806
   84RES   H19423600   3.597   0.794   6.308 -3.4875 -0.4798 -0.3988
   84RES   H19523601   3.590   1.003   6.180 -3.8026  1.5246  2.2415
   84RES   H19623602   3.581   0.967   6.010 -1.3400 -2.8308 -0.5404
   84RES   H19723603   3.431   1.003   6.085 -1.0252 -1.0592  1.5446
   84RES   O19823604   3.530   0.542   6.293 -0.2501  0.4975 -0.2490
   84RES   C19923605   3.398   0.589   6.289  0.2810  0.3631  0.3180
   84RES   C20023606   3.305   0.488   6.359  0.3200 -0.4354  0.2586
   84RES   C20123607   3.159   0.523   6.322 -0.5330  0.1620 -0.3771
   84RES   O20223608   3.065   0.424   6.361  0.0052  0.0297  0.3283
   84RES   C20323609   2.940   0.444   6.299 -0.4325  0.8517  0.0668
   84RES   H20423610   3.370   0.608   6.185 -0.4598  0.7931  0.5932
   84RES   H20523611   3.401   0.682   6.345  0.5846  0.5577 -0.0157
   84RES   H20623612   3.334   0.391   6.318 -0.0483  0.1288 -1.3290
   84RES   H20723613   3.141   0.620   6.368  0.0199 -0.4005  1.0524
   84RES   H20823614   3.151   0.536   6.214 -0.6069 -0.6093 -0.4639
   84RES   H20923615   2.901   0.539   6.337  1.5781  2.1079 -0.9367
   84RES   H21023616   2.864   0.379   6.343  0.7862 -0.3725  0.3914
   84RES   H21123617   2.924   0.443   6.191 -3.6128 -0.8447  0.4838
   84RES   O21223618   3.323   0.503   6.500  0.0674  0.2056 -0.3225
   84RES   C21323619   3.292   0.395   6.581  0.0902 -0.2748 -0.1914
   84RES   C21423620   3.406   0.294   6.576 -0.4521 -0.0182  0.3233
   84RES   C21523621   3.359   0.154   6.618  0.5554  0.0920  0.1422
   84RES   O21623622   3.449   0.048   6.585  0.6322 -0.1603 -0.5104
   84RES   C21723623   3.397   7.728   6.603  0.5151  0.0563  0.2108
   84RES   H21823624   3.200   0.342   6.558 -0.3989  0.7306 -0.5396
   84RES   H21923625   3.292   0.431   6.684  0.9438  0.5796 -0.4795
   84RES   H22023626   3.442   0.297   6.474 -1.9457  0.9403 -0.1870
   84RES   H22123627   3.332   0.154   6.724 -2.1955 -1.7670 -0.5145
   84RES   H22223628   3.265   0.135   6.567  0.8898  0.5789 -0.6685
   84RES   H22323629   3.403   7.674   6.508  1.1215 -0.3585  0.4813
   84RES   H22423630   3.294   7.718   6.636  0.7844 -2.7954  0.3453
   84RES   H22523631   3.467   7.690   6.677  0.0471 -0.7627  0.2414
   84RES   O22623632   3.511   0.339   6.666  0.1042  0.2496 -0.2051
   84RES   C22723633   3.636   0.262   6.671 -0.2498 -0.1506  0.0759
   84RES   C22823634   3.729   0.327   6.781 -0.2852 -0.2939 -0.2581
   84RES   C22923635   3.848   0.233   6.821 -0.2667  0.0611  0.0549
   84RES   O23023636   3.925   0.291   6.932  0.5219 -0.4782 -0.3131
   84RES   C23123637   4.061   0.253   6.943 -0.1963 -0.3735  0.8872
   84RES   H23223638   3.681   0.260   6.572 -0.3712  1.4193 -0.0215
   84RES   H23323639   3.622   0.158   6.700  1.2162 -0.5424 -0.5586
   84RES   H23423640   3.671   0.337   6.873  1.3191 -1.2358  0.8867
   84RES   H23523641   3.918   0.221   6.738 -1.5294 -0.3770 -0.9626
   84RES   H23623642   3.809   0.134   6.841 -2.6212  1.1339  0.9901
   84RES   H23723643   4.060   0.151   6.905 -2.1638  0.5954 -1.8433
   84RES   H23823644   4.097   0.259   7.046  3.4035  1.3429 -0.3582
   84RES   H23923645   4.124   0.307   6.873  0.5064 -0.3022  1.5651
   84RES   O24023646   3.785   0.453   6.745  0.1837  0.0225  0.5202
   84RES   C24123647   3.700   0.566   6.760 -0.0363 -0.4641  0.8469
   84RES   C24223648   3.747   0.688   6.674  0.2624 -0.0998 -0.3237
   84RES   C24323649   3.619   0.757   6.622 -0.1083  0.0297 -0.0495
   84RES   O24423650   3.645   0.877   6.540 -0.4089 -0.4268  0.2963
   84RES   C24523651   3.531   0.955   6.540 -0.3505  0.4727  0.3477
   84RES   H24623652   3.683   0.591   6.864 -2.3523 -1.3624  0.7137
   84RES   H24723653   3.601   0.539   6.723 -1.8635  3.3358  2.6663
   84RES   H24823654   3.794   0.657   6.581 -1.2160 -1.0500 -0.7726
   84RES   H24923655   3.558   0.696   6.556  1.5582 -1.0533 -0.6206
   84RES   H25023656   3.559   0.785   6.709 -2.8942 -2.3878 -1.0894
   84RES   H25123657   3.498   0.974   6.642  1.1444 -1.8433  1.3208
   84RES   H25223658   3.449   0.901   6.494 -0.3207  0.1140  0.7137
   84RES   H25323659   3.559   1.041   6.479 -1.9116 -0.1800 -1.2981
   84RES   O25423660   3.825   0.783   6.746  0.3073  0.0778  0.0075
   84RES   C25523661   3.960   0.735   6.774  0.8967 -0.2486 -0.3429
   84RES   C25623662   3.999   0.787   6.914 -0.2102  0.3406  0.4954
   84RES   C25723663   4.131   0.727   6.965 -1.0349  0.5603  0.2111
   84RES   O25823664   4.153   0.716   7.103  0.8672 -0.0280 -0.1251
   84RES   C25923665   4.290   0.718   7.145  0.2436  0.3587  0.4157
   84RES   H26023666   3.955   0.626   6.781  1.6385 -0.1922  1.4708
   84RES   H26123667   4.037   0.769   6.705  1.3038  0.4086  0.4299
   84RES   H26223668   3.913   0.755   6.974  1.3907 -1.9805  1.5962
   84RES   H26323669   4.153   0.628   6.925  0.4587  1.8955 -2.4530
   84RES   H26423670   4.207   0.796   6.927  1.4764 -1.6179  1.0706
   84RES   H26523671   4.332   0.819   7.148  0.6626  0.3224 -2.4616
   84RES   H26623672   4.348   0.637   7.101  0.9031  0.9132  0.2581
   84RES   H26723673   4.287   0.686   7.249 -2.5797  2.6851  1.1240
   84RES   O26823674   4.000   0.930   6.904  0.1184  0.0428 -0.2304
   84RES   C26923675   4.053   1.002   7.016  0.0443 -0.4726 -0.9280
   84RES   C27023676   4.047   1.151   6.977  0.1352 -0.5783  0.2492
   84RES   C27123677   4.110   1.246   7.080 -0.2032 -0.1099 -0.0002
   84RES   O27223678   4.090   1.375   7.032  0.0076 -0.2704  0.2975
   84RES   C27323679   4.149   1.463   7.117  0.2208  0.0590  0.6744
   84RES   H27423680   4.150   0.975   7.057  0.7233  0.5861 -1.8248
   84RES   H27523681   3.981   0.987   7.096  1.6045 -0.7941  0.4461
   84RES   H27623682   4.098   1.167   6.882 -0.5901  0.3682  0.0067
   84RES   H27723683   4.216   1.230   7.099 -0.0933  0.9158  0.2587
   84RES   H27823684   4.052   1.234   7.171 -1.2673  2.2885 -0.3244
   84RES   H27923685   4.094   1.469   7.212 -0.9626  1.7568 -0.0917
   84RES   H28023686   4.150   1.567   7.084  1.5813 -0.0908  0.2508
   84RES   H28123687   4.254   1.445   7.140 -0.0041 -1.3019  0.6742
   84RES   H28223688   3.944   1.182   6.957  1.1281  1.4916 -1.8839
   85RES     O123689   7.656   3.926   2.722  0.2996 -0.3722  0.3962
   85RES     C223690   7.710   3.797   2.732  0.4119  0.1894 -0.5421
   85RES     C323691   7.741   3.743   2.595 -0.4937  0.5800 -0.0097
   85RES     C423692   7.804   3.607   2.618 -0.1038  0.3672  0.6500
   85RES     O523693   0.069   3.587   2.501  0.2762 -0.3680 -0.4974
   85RES     C623694   0.108   3.451   2.476 -0.3086 -0.0680  0.2130
   85RES     H723695   7.791   3.793   2.805  0.3396 -1.2590 -0.5377
   85RES     H823696   7.636   3.736   2.783  3.1509 -2.5683  0.2961
   85RES     H923697   7.799   3.810   2.531 -0.4848  0.1728 -0.4312
   85RES    H1023698   7.730   3.531   2.642 -0.1621  0.3556  0.4318
   85RES    H1123699   0.056   3.598   2.702 -0.5970 -1.1596  0.9100
   85RES    H1223700   0.134   3.458   2.371  2.1486 -0.3870  0.7546
   85RES    H1323701   0.191   3.423   2.542 -0.8983 -0.6824  0.7059
   85RES    H1423702   0.037   3.369   2.489 -0.3682 -0.2635 -1.2554
   85RES    H1523703   7.589   3.917   2.656  0.3112 -1.5290  0.5344
   85RES    O1623704   7.612   3.718   2.539 -0.2017 -0.2295 -0.2224
   85RES    C1723705   7.609   3.683   2.403 -0.2386 -0.2524 -0.3170
   85RES    C1823706   7.460   3.673   2.350 -0.3407 -0.0642  0.0697
   85RES    C1923707   7.459   3.644   2.200  0.0454  0.5819  0.1689
   85RES    O2023708   7.324   3.648   2.150  0.3483  0.2992  0.7156
   85RES    C2123709   7.320   3.678   2.012  0.4273  0.2040 -0.5426
   85RES    H2223710   7.670   3.594   2.389  0.0993 -0.1263  0.3035
   85RES    H2323711   7.655   3.764   2.347  0.2754  1.1044  2.0311
   85RES    H2423712   7.403   3.762   2.378 -2.2195 -0.7646 -1.4022
   85RES    H2523713   7.511   3.729   2.156  2.0772 -1.4279 -1.4622
   85RES    H2623714   7.519   3.558   2.169 -1.6942 -0.2623 -0.9949
   85RES    H2723715   7.221   3.674   1.968  0.0038  1.5184  0.2516
   85RES    H2823716   7.386   3.618   1.950  1.2506  1.2071 -0.6526
   85RES    H2923717   7.358   3.780   2.009 -1.1701  0.7983 -1.2182
   85RES    O3023718   7.406   3.554   2.406  0.3692  0.1371  0.5984
   85RES    C3123719   7.275   3.564   2.454 -0.0101 -0.6998 -0.0633
   85RES    C3223720   7.263   3.629   2.593  0.1471 -0.1881  0.1640
   85RES    C3323721   7.130   3.582   2.662  0.4753  0.0476  0.5120
   85RES    O3423722   7.017   3.576   2.580  0.1359  0.0179 -0.0990
   85RES    C3523723   6.897   3.543   2.652 -0.8975 -0.2305 -1.0233
   85RES    H3623724   7.200   3.620   2.397  0.5651  0.6587  0.4830
   85RES    H3723725   7.233   3.464   2.460  1.4186 -1.2837  0.2626
   85RES    H3823726   7.342   3.603   2.663 -0.9206  0.6188  1.6832
   85RES    H3923727   7.112   3.657   2.739 -1.0382 -0.2857  0.5034
   85RES    H4023728   7.140   3.485   2.711  1.7056  0.3088  0.7843
   85RES    H4123729   6.893   3.445   2.699 -1.6875  0.2480 -0.0681
   85RES    H4223730   6.806   3.556   2.593 -1.0149  1.5561 -0.5033
   85RES    H4323731   6.884   3.617   2.732 -0.1471  0.4977 -1.5660
   85RES    O4423732   7.252   3.770   2.579 -0.2525 -0.3027 -0.4876
   85RES    C4523733   7.318   3.842   2.677 -0.4208  0.2027 -0.1851
   85RES    C4623734   7.258   3.981   2.663 -0.2018  0.3875 -0.1288
   85RES    C4723735   7.301   4.067   2.784  0.7055  0.1404  0.8093
   85RES    O4823736   7.217   4.178   2.809  0.0635 -0.4981 -0.2915
   85RES    C4923737   7.202   4.215   2.944 -0.4502 -0.5041  0.4061
   85RES    H5023738   7.426   3.837   2.662 -0.5605  0.1160 -1.1686
   85RES    H5123739   7.295   3.807   2.777  0.7583 -0.3553 -0.0987
   85RES    H5223740   7.150   3.974   2.672 -0.3320  0.8580 -1.2321
   85RES    H5323741   7.310   4.014   2.878 -0.2359 -0.7874  0.3755
   85RES    H5423742   7.404   4.101   2.771  0.1238  0.5477 -3.5135
   85RES    H5523743   7.291   4.212   3.007  1.2706  1.1801 -1.8499
   85RES    H5623744   7.122   4.156   2.988 -1.4181  3.0719  3.7895
   85RES    H5723745   7.170   4.320   2.947 -0.1309 -0.3307 -1.7018
   85RES    O5823746   7.311   4.044   2.548  0.8106  0.2238 -0.3987
   85RES    C5923747   7.229   4.046   2.434 -0.4736  0.1224  0.5935
   85RES    C6023748   7.121   4.163   2.431  0.0082  0.4615  0.3581
   85RES    C6123749   6.989   4.123   2.358  0.1649  0.2176 -0.1116
   85RES    O6223750   6.883   4.213   2.385  0.5950  0.1862 -0.4682
   85RES    C6323751   6.765   4.169   2.315 -0.3120  0.3912  0.1305
   85RES    H6423752   7.192   3.945   2.420  1.1770 -0.3430 -0.6598
   85RES    H6523753   7.301   4.058   2.352 -3.0257  2.3445 -1.3918
   85RES    H6623754   7.117   4.184   2.538 -0.0436  1.6181  0.1384
   85RES    H6723755   7.011   4.109   2.252  0.8005  1.8083 -0.2165
   85RES    H6823756   6.956   4.027   2.398  4.6678 -1.3714  0.0815
   85RES    H6923757   6.692   4.242   2.351 -0.8361 -0.2123  0.2944
   85RES    H7023758   6.734   4.068   2.340 -0.8482 -0.3708 -3.4662
   85RES    H7123759   6.768   4.180   2.207 -0.7402  0.3255  0.1132
   85RES    O7223760   7.172   4.274   2.364  0.0057 -0.0515  0.5914
   85RES    C7323761   7.138   4.395   2.426  0.0511 -1.0560  0.1949
   85RES    C7423762   7.228   4.417   2.551 -0.5172  0.1858  0.6591
   85RES    C7523763   7.153   4.509   2.652 -0.4815  0.4212 -0.4083
   85RES    O7623764   7.233   4.538   2.769 -0.3766 -0.0330 -0.3617
   85RES    C7723765   7.151   4.627   2.849  0.2852 -0.0734 -0.3898
   85RES    H7823766   7.158   4.476   2.356 -1.5545  0.5352  1.5546
   85RES    H7923767   7.031   4.403   2.446 -0.1656 -0.5794 -1.0932
   85RES    H8023768   7.250   4.326   2.607 -1.2450 -0.5116 -0.1545
   85RES    H8123769   7.069   4.453   2.693 -1.9177  1.6639 -1.6099
   85RES    H8223770   7.115   4.595   2.597 -0.6668 -0.5259 -1.7963
   85RES    H8323771   7.208   4.680   2.925 -0.5246  1.6454 -0.9413
   85RES    H8423772   7.087   4.568   2.914 -0.5150 -0.2870 -1.3545
   85RES    H8523773   7.096   4.710   2.804 -1.5543 -2.0118 -1.8204
   85RES    O8623774   7.351   4.478   2.514 -0.0165  0.2994 -0.5749
   85RES    C8723775   7.445   4.395   2.438 -0.4502  0.0769  0.6471
   85RES    C8823776   7.590   4.435   2.470  0.2915  0.3431 -0.0711
   85RES    C8923777   7.695   4.345   2.397 -0.4093 -0.3669 -0.3839
   85RES    O9023778   0.004   4.366   2.452 -0.5173  0.1764 -0.6285
   85RES    C9123779   0.100   4.263   2.426  0.4328 -0.5465  0.3981
   85RES    H9223780   7.427   4.288   2.451 -2.6953  0.5915  2.2082
   85RES    H9323781   7.433   4.399   2.330  1.6121  0.0270  0.4008
   85RES    H9423782   7.606   4.438   2.578  1.2576 -0.1096 -0.1976
   85RES    H9523783   7.663   4.244   2.418 -1.7275  0.4285  1.5439
   85RES    H9623784   7.692   4.366   2.289  0.1151 -1.6706 -0.6528
   85RES    H9723785   0.101   4.235   2.321 -4.1356 -0.7248  0.2926
   85RES    H9823786   0.197   4.301   2.457 -0.2815 -0.0228  2.0175
   85RES    H9923787   0.082   4.166   2.472  2.4333 -0.2774  1.8289
   85RES   O10023788   7.597   4.563   2.411 -0.3226  0.2238 -0.6095
   85RES   C10123789   7.701   4.650   2.447 -0.1299 -0.9419 -0.1432
   85RES   C10223790   7.673   4.803   2.436  0.2571  0.2288 -0.0241
   85RES   C10323791   7.795   4.887   2.434  0.3164  0.2597  0.1256
   85RES   O10423792   7.787   5.013   2.363 -0.0788 -0.1110  0.0235
   85RES   C10523793   7.688   5.104   2.418 -0.2527 -0.3341 -0.2990
   85RES   H10623794   7.763   4.627   2.360 -0.1110 -1.6872  0.0680
   85RES   H10723795   7.755   4.625   2.538 -1.3156 -0.6520  0.6518
   85RES   H10823796   7.622   4.817   2.340 -0.5815 -3.2184 -0.1830
   85RES   H10923797   0.059   4.827   2.392  0.7570  0.7770  0.2374
   85RES   H11023798   0.002   4.898   2.540  3.1448 -1.6250 -0.2507
   85RES   H11123799   7.709   5.125   2.523  0.0573  1.4133 -0.7033
   85RES   H11223800   7.584   5.076   2.401  0.2708 -0.7174 -3.0205
   85RES   H11323801   7.710   5.200   2.373  1.6218 -0.1868  0.8864
   85RES   O11423802   7.593   4.847   2.541  0.2512 -0.3352 -0.6969
   85RES   C11523803   7.458   4.795   2.541 -0.3741 -0.1235  0.2068
   85RES   C11623804   7.362   4.913   2.576 -0.4654  0.7096 -0.6155
   85RES   C11723805   7.217   4.870   2.544 -0.6123 -0.3143 -0.3858
   85RES   O11823806   7.131   4.973   2.495  0.4615 -0.2182  0.2379
   85RES   C11923807   6.992   4.961   2.526 -0.0705  0.3884 -0.5205
   85RES   H12023808   7.438   4.763   2.439 -0.8575 -1.1953  0.6263
   85RES   H12123809   7.431   4.708   2.602  0.2276  0.0021  0.6585
   85RES   H12223810   7.378   4.995   2.505  4.0303 -0.3319 -0.9761
   85RES   H12323811   7.209   4.771   2.500 -1.3853 -0.6270  0.4582
   85RES   H12423812   7.183   4.859   2.647  0.6104 -1.9640 -0.1395
   85RES   H12523813   6.968   4.978   2.631 -0.7999  2.4522 -0.9986
   85RES   H12623814   6.951   4.864   2.500 -0.5022  0.4478 -0.0664
   85RES   H12723815   6.938   5.046   2.482 -0.2251  0.1200 -0.8462
   85RES   O12823816   7.366   4.968   2.706  0.5941  0.0310 -0.4056
   85RES   C12923817   7.452   5.084   2.730  0.2325  0.5205 -0.2769
   85RES   C13023818   7.531   5.066   2.866  0.3289  0.2255 -0.1372
   85RES   C13123819   7.631   5.185   2.877 -0.4885 -0.5636  0.7233
   85RES   O13223820   7.694   5.176   3.007  0.3849  0.0122  0.0008
   85RES   C13323821   7.778   5.284   3.029  0.9012 -0.0204 -1.4992
   85RES   H13423822   7.525   5.089   2.649 -0.3429 -1.4202 -0.9457
   85RES   H13523823   7.391   5.175   2.734 -2.6538 -1.2648 -1.4549
   85RES   H13623824   7.465   5.052   2.951 -0.2841  0.1591 -0.6208
   85RES   H13723825   7.573   5.277   2.871  1.9301  1.0291  0.8874
   85RES   H13823826   7.699   5.209   2.795 -0.4380  0.6141  1.1051
   85RES   H13923827   7.808   5.261   3.132  0.7571 -0.4071 -1.5403
   85RES   H14023828   0.048   5.289   2.965  1.7574 -0.1778 -0.3642
   85RES   H14123829   7.729   5.380   3.018  0.1992  0.0141  1.3761
   85RES   O14223830   7.610   4.945   2.857 -0.3717  0.0448 -0.5072
   85RES   C14323831   7.540   4.834   2.906 -0.2523  0.1363 -0.6165
   85RES   C14423832   7.624   4.709   2.852  0.9493 -0.9817  0.0777
   85RES   C14523833   7.529   4.580   2.847  0.1073 -0.3746  0.0641
   85RES   O14623834   7.602   4.460   2.825  0.1204  0.0300  0.0450
   85RES   C14723835   7.520   4.346   2.853 -0.2392  0.5136  0.7032
   85RES   H14823836   7.517   4.835   3.013  0.4922 -2.2863 -0.3879
   85RES   H14923837   7.437   4.827   2.872 -0.4517 -0.4817  0.0894
   85RES   H15023838   7.653   4.736   2.751 -0.8057  0.0804 -0.1780
   85RES   H15123839   7.460   4.600   2.764 -0.2115  2.0196  0.8604
   85RES   H15223840   7.474   4.580   2.941 -0.7449 -1.1086 -0.4227
   85RES   H15323841   7.575   4.252   2.858  0.9510  1.0768 -1.0238
   85RES   H15423842   7.437   4.335   2.784 -0.4221  0.5014  0.9265
   85RES   H15523843   7.482   4.360   2.953 -1.0521  0.4828  0.4015
   85RES   O15623844   7.725   4.676   2.940 -0.0632 -0.6805  0.0230
   85RES   C15723845   0.029   4.744   2.925  0.2879  1.0861  0.4312
   85RES   C15823846   0.120   4.714   3.041  0.2856 -0.0312  0.1119
   85RES   C15923847   0.148   4.562   3.053 -0.3432 -0.6693 -0.1827
   85RES   O16023848   0.269   4.550   3.118  0.0385 -0.0226  0.1177
   85RES   C16123849   0.303   4.423   3.177  0.0408 -0.4076 -0.5714
   85RES   H16223850   0.083   4.712   2.837 -0.1299  0.7228  0.3052
   85RES   H16323851   0.001   4.850   2.924  0.6184  1.1698  0.2847
   85RES   H16423852   0.214   4.766   3.025 -1.1666  2.4851 -0.5871
   85RES   H16523853   0.070   4.507   3.106 -0.4122 -1.0207 -0.6424
   85RES   H16623854   0.170   4.509   2.960 -0.5882  1.9221 -1.7503
   85RES   H16723855   0.403   4.426   3.219  0.4374 -0.3971 -1.5015
   85RES   H16823856   0.299   4.350   3.095 -0.3604 -1.0618  0.0238
   85RES   H16923857   0.230   4.381   3.247 -0.3091 -1.8354 -1.7630
   85RES   O17023858   0.065   4.750   3.166  0.4938 -0.0192 -0.6070
   85RES   C17123859   0.079   4.888   3.194 -0.6898 -0.0370 -0.5522
   85RES   C17223860   7.799   4.923   3.305  0.2808  0.3938  0.5498
   85RES   C17323861   7.657   4.972   3.259  0.5495 -0.3577  0.7187
   85RES   O17423862   7.557   4.975   3.354 -0.5862  0.4524 -0.0314
   85RES   C17523863   7.440   5.043   3.296 -0.3349 -0.2586  0.1225
   85RES   H17623864   0.064   4.946   3.103 -2.4825  0.8026  0.2573
   85RES   H17723865   0.180   4.904   3.232 -2.3888  0.7160  4.0335
   85RES   H17823866   7.777   4.830   3.356 -1.1784  0.4902  0.1169
   85RES   H17923867   7.672   5.070   3.214 -0.1344  0.5605  2.4528
   85RES   H18023868   7.628   4.909   3.175  0.7471 -0.3923  0.6756
   85RES   H18123869   7.455   5.150   3.284 -3.0541  0.3745  1.8313
   85RES   H18223870   7.341   5.034   3.341  0.1572 -3.2719  0.7474
   85RES   H18323871   7.428   5.008   3.194 -0.7842 -1.2165  0.4905
   85RES   O18423872   0.037   5.020   3.397 -0.5491  0.7237  0.2338
   85RES   C18523873   0.125   4.973   3.500  0.2845  0.1213  0.3756
   85RES   C18623874   0.178   5.086   3.590 -0.3730 -0.4334  0.5294
   85RES   C18723875   0.225   5.036   3.729 -0.1032 -0.7104  0.2946
   85RES   O18823876   0.271   5.142   3.813  0.0255 -0.2285 -0.3097
   85RES   C18923877   0.293   5.093   3.943  0.0080  0.4007 -0.3255
   85RES   H19023878   0.207   4.914   3.458  0.6243  0.2072  0.9193
   85RES   H19123879   0.062   4.905   3.557  0.9658  0.1919  1.2235
   85RES   H19223880   0.256   5.136   3.533 -0.3044  0.0841  1.0758
   85RES   H19323881   0.308   4.967   3.710 -0.8900 -1.4810 -0.3617
   85RES   H19423882   0.147   4.974   3.773 -0.8498 -1.1522 -1.6096
   85RES   H19523883   0.364   5.159   3.992  0.4455  0.7793 -1.4462
   85RES   H19623884   0.204   5.090   4.006  0.2793 -1.6802 -0.0192
   85RES   H19723885   0.335   4.994   3.926 -1.2896 -0.5610  1.8161
   85RES   O19823886   0.080   5.189   3.623 -0.2450  0.0544  0.4765
   85RES   C19923887   0.069   5.305   3.537 -0.6031 -0.3666  0.2537
   85RES   C20023888   7.798   5.402   3.610  0.5738  0.1086 -1.3557
   85RES   C20123889   0.020   5.430   3.754 -0.4484  0.5267  0.3256
   85RES   O20223890   7.785   5.558   3.795 -0.0885  0.2456  0.0850
   85RES   C20323891   7.816   5.573   3.936 -0.1144 -0.5688 -0.4539
   85RES   H20423892   0.035   5.281   3.437 -1.1755 -0.7002  0.5260
   85RES   H20523893   0.174   5.333   3.528 -0.5168 -1.4044 -2.2157
   85RES   H20623894   0.000   5.497   3.559  0.1041  1.5576  1.0810
   85RES   H20723895   7.801   5.347   3.816  1.9684 -2.6337 -2.2876
   85RES   H20823896   0.126   5.418   3.777 -0.6527 -0.1849  0.9144
   85RES   H20923897   7.792   5.678   3.951 -0.1570 -0.4623 -1.2389
   85RES   H21023898   0.097   5.539   3.971 -0.7469 -1.9489  0.0327
   85RES   H21123899   7.748   5.515   3.998  0.3968 -1.5452 -0.7992
   85RES   O21223900   7.669   5.351   3.613  0.0479 -0.0197  0.5608
   85RES   C21323901   7.590   5.395   3.502 -0.4489  0.3673  0.0785
   85RES   C21423902   7.506   5.518   3.537 -0.7063 -0.2866  1.2325
   85RES   C21523903   7.378   5.515   3.452 -0.3182 -0.7218 -0.1901
   85RES   O21623904   7.284   5.422   3.513 -0.4243  0.1034 -0.1088
   85RES   C21723905   7.171   5.397   3.427  0.4551  0.8550  1.1425
   85RES   H21823906   7.522   5.311   3.488  2.5106 -1.8638 -1.3140
   85RES   H21923907   7.653   5.400   3.413 -0.4914 -0.0451  0.0222
   85RES   H22023908   7.483   5.519   3.643 -3.0051 -0.3606  0.7489
   85RES   H22123909   7.316   5.604   3.451 -0.4180 -0.7839 -2.2483
   85RES   H22223910   7.394   5.490   3.347 -0.3307  1.7363 -0.7863
   85RES   H22323911   7.108   5.484   3.411  0.9625  0.5319 -2.9672
   85RES   H22423912   7.110   5.316   3.467  1.0398 -0.8523 -1.2878
   85RES   H22523913   7.200   5.355   3.331 -1.3666  0.2773  0.8258
   85RES   O22623914   7.583   5.629   3.495  0.4122 -0.2196 -0.8814
   85RES   C22723915   7.557   5.756   3.556  0.1357 -0.0774  0.6969
   85RES   C22823916   7.666   5.865   3.526  0.1330 -0.2916  0.6302
   85RES   C22923917   7.652   5.932   3.384 -0.3395 -0.3362 -0.7162
   85RES   O23023918   7.761   6.024   3.350 -0.0078  0.4602  0.2714
   85RES   C23123919   7.732   6.119   3.252 -0.6028 -0.1093  0.0717
   85RES   H23223920   7.564   5.729   3.661  2.7011  0.5820  0.7295
   85RES   H23323921   7.457   5.789   3.528 -0.2728 -2.6997 -1.1223
   85RES   H23423922   7.760   5.813   3.509  0.0785 -0.6970  1.5699
   85RES   H23523923   7.562   5.992   3.374 -0.5437 -0.4231  0.6140
   85RES   H23623924   7.644   5.846   3.317  0.8932 -1.5694  0.6738
   85RES   H23723925   7.712   6.080   3.152  1.3052 -1.1739  0.0715
   85RES   H23823926   7.816   6.186   3.234 -0.3933 -0.7933 -1.5706
   85RES   H23923927   7.638   6.173   3.263 -0.4582 -0.1105  1.3053
   85RES   O24023928   7.684   5.965   3.630  0.7445 -0.0068  0.4020
   85RES   C24123929   7.791   5.935   3.726  0.1645  0.1395 -0.4990
   85RES   C24223930   0.118   5.966   3.675 -0.0007 -0.6672  0.1193
   85RES   C24323931   0.214   6.006   3.791  0.0946  0.3954  0.9218
   85RES   O24423932   0.222   6.143   3.817 -0.2694  0.3271  0.2012
   85RES   C24523933   0.297   6.190   3.930  0.3598  0.4635  0.0394
   85RES   H24623934   7.781   5.833   3.763  2.2472 -0.5042 -1.6363
   85RES   H24723935   7.770   6.005   3.806  1.3398  0.0631 -0.1191
   85RES   H24823936   0.114   6.031   3.587  0.2825 -1.3198 -0.3781
   85RES   H24923937   0.182   5.964   3.886 -0.5555  0.6645  0.8303
   85RES   H25023938   0.317   5.971   3.786  0.8043  2.3978  0.9787
   85RES   H25123939   0.248   6.149   4.018  0.9062 -0.8563 -0.2671
   85RES   H25223940   0.287   6.298   3.941  2.8729  0.6154  0.9871
   85RES   H25323941   0.402   6.161   3.938 -0.0826 -1.1988  0.0595
   85RES   O25423942   0.160   5.839   3.619 -0.2966  0.1506  0.7799
   85RES   C25523943   0.253   5.840   3.516 -0.1588 -0.0604 -0.6796
   85RES   C25623944   0.295   5.696   3.484 -0.8429 -0.0303 -0.2026
   85RES   C25723945   0.337   5.603   3.600 -0.3487  0.2020 -0.3941
   85RES   O25823946   0.401   5.494   3.541 -0.0679  0.1630 -0.0254
   85RES   C25923947   0.444   5.397   3.631  0.4912 -0.2516  0.8670
   85RES   H26023948   0.203   5.887   3.432 -1.2177 -0.4079 -0.2584
   85RES   H26123949   0.325   5.907   3.562  1.6149 -0.1693 -3.2058
   85RES   H26223950   0.375   5.696   3.410 -0.4910  2.9457  0.1069
   85RES   H26323951   0.404   5.655   3.668 -1.7370 -0.3137  1.4189
   85RES   H26423952   0.252   5.563   3.655  0.2807  1.1396  1.3236
   85RES   H26523953   0.348   5.363   3.670  0.4058  1.3985  2.1127
   85RES   H26623954   0.506   5.439   3.709  2.1800 -1.0218 -0.0369
   85RES   H26723955   0.496   5.323   3.570 -0.0893  0.0491  0.0039
   85RES   O26823956   0.185   5.634   3.417 -0.6441  0.0518 -0.1944
   85RES   C26923957   0.187   5.660   3.273  0.0949 -0.3224  0.0099
   85RES   C27023958   0.051   5.615   3.213 -0.5575  0.2866 -0.7378
   85RES   C27123959   0.022   5.681   3.082 -0.8812  0.0883  0.4374
   85RES   O27223960   7.722   5.633   3.031  0.7370 -0.2811 -0.1385
   85RES   C27323961   7.695   5.672   2.896  0.8142 -0.2102 -0.4290
   85RES   H27423962   0.270   5.612   3.221  0.4746 -0.3631  0.6556
   85RES   H27523963   0.199   5.767   3.258  1.8147 -0.5836 -0.5651
   85RES   H27623964   0.056   5.507   3.197 -1.5021  0.3386 -1.4219
   85RES   H27723965   0.096   5.649   3.009  0.3907  1.8047  0.9300
   85RES   H27823966   0.010   5.789   3.086  1.1768  0.3799 -0.8440
   85RES   H27923967   7.684   5.781   2.901  0.6237 -0.2400 -0.2467
   85RES   H28023968   7.595   5.656   2.857  0.6162  2.9203 -1.3943
   85RES   H28123969   7.761   5.656   2.810  1.1535  1.1352 -0.4394
   85RES   H28223970   7.792   5.632   3.288  0.1135 -0.2664  0.0852
   86RES     O123971   6.627   7.408   3.020 -0.4051  0.2436 -0.3546
   86RES     C223972   6.508   7.442   2.959 -0.7254  0.0420 -0.5136
   86RES     C323973   6.481   7.595   2.942 -0.4030  0.2597  0.8204
   86RES     C423974   6.395   7.621   2.824  0.2234 -0.7621  0.4424
   86RES     O523975   6.376   7.763   2.817  0.3453 -0.2050 -0.0118
   86RES     C623976   6.347   7.807   2.688  0.5393 -0.3240 -0.4526
   86RES     H723977   6.513   7.400   2.858  2.3384 -1.0308  0.0352
   86RES     H823978   6.426   7.387   3.005 -0.4238 -1.2280 -1.4661
   86RES     H923979   6.581   7.638   2.930 -2.3762  5.3868  1.2355
   86RES    H1023980   6.308   7.556   2.830 -0.1839 -0.3899 -1.2236
   86RES    H1123981   6.440   7.573   2.737  0.8918  0.0197  0.3434
   86RES    H1223982   6.275   7.747   2.632  1.3936 -2.3004  0.4916
   86RES    H1323983   6.328   0.097   2.692  2.2097 -0.0373  0.1576
   86RES    H1423984   6.441   7.807   2.633  0.5954 -0.7112 -0.3618
   86RES    H1523985   6.646   7.445   3.104 -0.2249 -1.6316  0.4715
   86RES    O1623986   6.420   7.637   3.059  0.6810  0.3315 -0.5974
   86RES    C1723987   6.451   7.771   3.108 -0.3008  0.2613  0.1287
   86RES    C1823988   6.408   7.788   3.257  0.4803 -0.1695 -0.0670
   86RES    C1923989   6.254   7.775   3.262  1.1442 -0.2908  0.1568
   86RES    O2023990   6.210   7.807   3.397 -0.3453 -0.3405 -0.4698
   86RES    C2123991   6.099   7.724   3.431  0.9077  0.6154  0.1556
   86RES    H2223992   6.408   0.027   3.040 -0.3974 -0.3604 -0.4840
   86RES    H2323993   6.557   7.789   3.094  0.0396 -2.1407 -0.5787
   86RES    H2423994   6.435   0.070   3.294  0.2470  0.2082 -0.8917
   86RES    H2523995   6.206   0.040   3.208  1.2883  0.9637  1.9055
   86RES    H2623996   6.217   7.677   3.231 -1.6422  0.7041  0.1544
   86RES    H2723997   6.013   7.743   3.367  0.2976  0.7152  0.9928
   86RES    H2823998   6.079   7.745   3.536 -0.2361  2.0562 -0.3347
   86RES    H2923999   6.123   7.619   3.414 -0.7374  0.0825  1.0011
   86RES    O3024000   6.462   7.676   3.331  0.2599  0.5872 -0.2660
   86RES    C3124001   6.597   7.682   3.367 -0.1267  0.3296 -0.4802
   86RES    C3224002   6.635   7.570   3.460  0.1416 -0.9515  0.1960
   86RES    C3324003   6.775   7.586   3.523  0.1494 -0.5185 -0.2189
   86RES    O3424004   6.785   7.497   3.633  0.3058  0.1979  0.9672
   86RES    C3524005   6.910   7.515   3.698  0.0987  0.0248 -0.3855
   86RES    H3624006   6.667   7.683   3.283  0.1107 -0.3067 -0.2853
   86RES    H3724007   6.607   7.772   3.428 -2.6110 -0.7541  1.6119
   86RES    H3824008   6.566   7.572   3.544 -0.2183  1.9556 -0.1177
   86RES    H3924009   6.789   7.688   3.558 -0.1830 -0.5050 -0.1205
   86RES    H4024010   6.846   7.570   3.442 -0.2762 -1.6664 -0.3759
   86RES    H4124011   6.975   7.477   3.620 -0.3684 -1.9145  0.1347
   86RES    H4224012   6.913   7.442   3.779  3.0644  1.5159  0.9320
   86RES    H4324013   6.930   7.612   3.745 -0.1408 -0.6103  1.0660
   86RES    O4424014   6.645   7.442   3.390 -0.0635  0.0395  0.3037
   86RES    C4524015   6.531   7.383   3.330  0.1610 -0.7122 -0.9649
   86RES    C4624016   6.407   7.367   3.420 -0.2336  0.4251  0.3522
   86RES    C4724017   6.289   7.342   3.324 -1.0453 -0.9032 -0.4778
   86RES    O4824018   6.162   7.367   3.384 -0.2206  0.0928  0.4032
   86RES    C4924019   6.119   7.246   3.455  0.0903  0.6904 -0.0386
   86RES    H5024020   6.558   7.286   3.287 -0.5969 -2.1047  1.6001
   86RES    H5124021   6.513   7.454   3.250 -0.0288 -1.1170 -1.2800
   86RES    H5224022   6.383   7.447   3.490  1.2225 -0.6826  2.1636
   86RES    H5324023   6.291   7.417   3.244  2.5196 -0.2223  0.1440
   86RES    H5424024   6.291   7.243   3.278 -1.2898 -1.9484  1.6978
   86RES    H5524025   6.189   7.219   3.534  1.1483 -1.1883 -1.5662
   86RES    H5624026   6.105   7.156   3.395  2.1820 -0.6853  1.4673
   86RES    H5724027   6.025   7.281   3.497 -0.7418 -1.8904  0.2990
   86RES    O5824028   6.439   7.244   3.493 -0.6795  0.0372  0.6308
   86RES    C5924029   6.503   7.270   3.615 -0.0395 -0.1041 -0.7514
   86RES    C6024030   6.449   7.185   3.737 -0.8408  0.5093 -0.1168
   86RES    C6124031   6.450   7.029   3.717 -0.3204 -0.2811  0.2977
   86RES    O6224032   6.424   6.954   3.835  0.0403  0.3046 -0.0445
   86RES    C6324033   6.519   6.950   3.944 -0.4556  0.3567 -0.3038
   86RES    H6424034   6.513   7.377   3.637 -1.2172 -0.5214  2.0745
   86RES    H6524035   6.610   7.252   3.601  0.3941  0.3473  1.6332
   86RES    H6624036   6.515   7.210   3.820  0.7022  2.3857 -1.8840
   86RES    H6724037   6.371   6.996   3.649 -1.2775 -1.7064  2.0556
   86RES    H6824038   6.549   7.003   3.678 -0.3138 -0.3367  0.3521
   86RES    H6924039   6.622   6.917   3.929 -1.2278 -1.6535 -1.3139
   86RES    H7024040   6.469   6.883   4.015  2.7862  0.8935  2.6655
   86RES    H7124041   6.519   7.050   3.988  2.2202  0.0584  0.4934
   86RES    O7224042   6.316   7.226   3.758  0.1373  0.4085 -0.1953
   86RES    C7324043   6.300   7.353   3.829  0.1589  0.5388  0.1064
   86RES    C7424044   6.176   7.423   3.776 -0.4429  0.0885  0.0124
   86RES    C7524045   6.149   7.557   3.857  0.4352  0.2206 -0.7175
   86RES    O7624046   6.051   7.640   3.797  0.5057 -0.3628  0.1338
   86RES    C7724047   6.038   7.763   3.860 -0.6748  0.0151  0.6208
   86RES    H7824048   6.290   7.322   3.933  0.2345 -1.4796 -0.4597
   86RES    H7924049   6.388   7.417   3.824  1.4638 -1.2874 -1.2753
   86RES    H8024050   6.176   7.460   3.673  0.4268 -1.1811 -0.4631
   86RES    H8124051   6.245   7.607   3.860  1.0797 -1.0192 -0.3650
   86RES    H8224052   6.122   7.540   3.961 -1.2131 -1.4036 -1.3882
   86RES    H8324053   5.969   0.006   3.801 -0.3874 -1.3487 -1.1778
   86RES    H8424054   6.129   0.006   3.867 -1.7946  2.1670 -2.2371
   86RES    H8524055   6.000   7.735   3.958  2.2061  1.9445  2.3688
   86RES    O8624056   6.067   7.332   3.800 -0.5251 -0.4371  0.3221
   86RES    C8724057   5.939   7.374   3.775  0.1918 -0.0139  1.0464
   86RES    C8824058   5.837   7.281   3.849  0.2154 -0.4380  0.0616
   86RES    C8924059   5.732   7.360   3.932  0.2357 -0.8272  0.7419
   86RES    O9024060   5.655   7.269   4.000 -0.3249  0.5861 -0.8620
   86RES    C9124061   5.543   7.334   4.051  0.4178 -0.0906  0.1148
   86RES    H9224062   5.906   7.471   3.812  0.7292 -0.5584  3.0135
   86RES    H9324063   5.916   7.376   3.668  1.5447 -0.7765  0.7320
   86RES    H9424064   5.879   7.215   3.925 -0.1563  0.6953  1.2693
   86RES    H9524065   5.783   7.424   4.004  3.4362 -1.5004 -0.8644
   86RES    H9624066   5.665   7.406   3.859  1.0275 -2.5586 -1.1187
   86RES    H9724067   5.489   7.407   3.990 -3.9593 -0.9371  2.7584
   86RES    H9824068   5.478   7.248   4.069  0.3899 -0.0904  0.0230
   86RES    H9924069   5.566   7.376   4.149  1.6556 -0.7844  0.1307
   86RES   O10024070   5.771   7.200   3.752  0.4337  0.4704  0.3828
   86RES   C10124071   5.846   7.100   3.696 -0.5157  0.2041  0.1355
   86RES   C10224072   5.855   6.963   3.767 -1.1283 -0.8301 -0.9394
   86RES   C10324073   5.970   6.881   3.720 -0.4309  0.0187  0.3223
   86RES   O10424074   5.995   6.761   3.797 -0.3726 -0.5168  0.3577
   86RES   C10524075   6.115   6.699   3.760  0.1359  0.9369 -0.5689
   86RES   H10624076   5.948   7.136   3.680 -0.4583  0.1284  0.3316
   86RES   H10724077   5.811   7.093   3.593  0.7510 -0.6093 -0.2636
   86RES   H10824078   5.869   6.984   3.873  0.3343 -2.0078 -0.8793
   86RES   H10924079   6.060   6.940   3.733  1.1057 -1.5290 -2.5973
   86RES   H11024080   5.966   6.865   3.612 -0.1464 -2.7665  0.6742
   86RES   H11124081   6.126   6.709   3.652 -1.3500  0.3785 -0.7794
   86RES   H11224082   6.105   6.595   3.789  0.7381  1.3648  1.2044
   86RES   H11324083   6.200   6.748   3.808  0.5234  0.0324 -0.3147
   86RES   O11424084   5.733   6.896   3.759  0.0083 -0.1228 -0.3611
   86RES   C11524085   5.633   6.949   3.836  0.2184 -0.5235 -0.1263
   86RES   C11624086   5.509   6.851   3.824  0.5404  0.2291  0.1150
   86RES   C11724087   5.424   6.868   3.949 -0.0971  0.9130  0.6570
   86RES   O11824088   5.332   6.760   3.952  0.7457  0.2904 -0.2845
   86RES   C11924089   5.204   6.778   3.895  0.0469 -0.2543 -0.0138
   86RES   H12024090   5.667   6.946   3.939 -1.2518  0.6112  0.3970
   86RES   H12124091   5.596   7.050   3.820 -1.2547 -0.5618  2.9063
   86RES   H12224092   5.554   6.752   3.812  0.7379  0.3313  0.0007
   86RES   H12324093   5.483   6.849   4.038  0.9035  0.3806 -0.1060
   86RES   H12424094   5.369   6.961   3.962 -0.0880  0.8239  1.3535
   86RES   H12524095   5.205   6.794   3.787  1.3131  1.5898  0.2541
   86RES   H12624096   5.167   6.871   3.936 -2.5990 -1.9267  1.5339
   86RES   H12724097   5.129   6.706   3.927 -0.5168 -0.6876 -2.1719
   86RES   O12824098   5.427   6.882   3.709 -0.4897  0.7646  0.4410
   86RES   C12924099   5.448   6.790   3.601 -0.3062 -0.2835 -0.0965
   86RES   C13024100   5.357   6.822   3.482  0.1208 -0.0005 -0.6729
   86RES   C13124101   5.330   6.691   3.402 -0.0965  0.0804 -0.8936
   86RES   O13224102   5.463   6.632   3.373  0.9027  0.4948  0.2511
   86RES   C13324103   5.450   6.533   3.276  0.0455 -0.0969 -0.8761
   86RES   H13424104   5.553   6.771   3.580  0.2469  3.1810 -0.6120
   86RES   H13524105   5.415   6.691   3.632 -0.9794 -0.9006 -2.6277
   86RES   H13624106   5.258   6.846   3.523  0.6072 -0.3059  0.7007
   86RES   H13724107   5.267   6.706   3.314 -0.6017  0.2134 -0.5151
   86RES   H13824108   5.284   6.620   3.470 -1.1443  1.0677 -0.5505
   86RES   H13924109   5.374   6.467   3.320  0.1837  0.6855  0.5876
   86RES   H14024110   5.424   6.549   3.172 -0.2857 -1.8283 -1.0692
   86RES   H14124111   5.547   6.485   3.275  0.5839  1.0092 -2.6617
   86RES   O14224112   5.401   6.919   3.390 -0.5046 -0.7863 -0.0779
   86RES   C14324113   5.441   7.045   3.433 -0.1861 -1.4357 -0.3717
   86RES   C14424114   5.513   7.114   3.313  0.1672  0.3522  0.5871
   86RES   C14524115   5.411   7.147   3.211 -0.4178 -0.4673 -0.3552
   86RES   O14624116   5.454   7.268   3.142 -0.0167 -0.0191  0.1985
   86RES   C14724117   5.349   7.335   3.074 -0.0631  0.8157  0.9698
   86RES   H14824118   5.359   7.102   3.477  1.5089  0.9336 -0.1946
   86RES   H14924119   5.506   7.029   3.519  1.6855  0.4585 -1.3921
   86RES   H15024120   5.552   7.202   3.363  0.6943  0.6285 -0.3060
   86RES   H15124121   5.309   7.164   3.246  0.5030  1.6539  1.3841
   86RES   H15224122   5.396   7.072   3.133  1.7777 -1.2040 -0.1056
   86RES   H15324123   5.305   7.261   3.006 -0.1612  0.8482  0.9973
   86RES   H15424124   5.378   7.420   3.013  0.1306  0.9319  1.2238
   86RES   H15524125   5.280   7.366   3.152 -0.8138 -0.2933  0.7736
   86RES   O15624126   5.605   7.033   3.240 -0.3769  0.1863 -0.5549
   86RES   C15724127   5.719   7.013   3.319 -0.2516 -0.0128 -0.0342
   86RES   C15824128   5.832   6.971   3.224 -0.9520 -0.6982 -0.9152
   86RES   C15924129   5.921   6.856   3.284  0.2180 -0.0801  0.7525
   86RES   O16024130   5.970   6.760   3.181 -0.4628 -0.8832 -0.1092
   86RES   C16124131   6.033   6.640   3.224  0.1560 -0.0449  0.1226
   86RES   H16224132   5.752   7.098   3.379  2.8272  0.5846 -2.4694
   86RES   H16324133   5.684   6.928   3.377  0.5399 -0.2385  0.1127
   86RES   H16424134   5.776   6.934   3.138 -1.6103 -1.6615 -0.0964
   86RES   H16524135   6.003   6.898   3.342  0.8689  0.4373 -0.5179
   86RES   H16624136   5.868   6.791   3.354 -0.6823 -1.3154 -1.0447
   86RES   H16724137   6.073   6.592   3.134  2.7491  1.8241  0.2056
   86RES   H16824138   5.973   6.563   3.271  0.2913  0.0432  0.4383
   86RES   H16924139   6.124   6.661   3.280 -1.1760 -0.3137  2.4572
   86RES   O17024140   5.908   7.087   3.187  1.0704 -0.1129  0.1488
   86RES   C17124141   5.848   7.165   3.085  0.0085 -0.9909 -1.0416
   86RES   C17224142   5.951   7.263   3.023  0.3588 -0.0323 -0.3535
   86RES   C17324143   5.881   7.396   2.978  0.1170  0.6279 -0.0672
   86RES   O17424144   5.974   7.498   2.937 -0.1991  0.3728  0.5128
   86RES   C17524145   6.055   7.567   3.041  0.6515  0.3328  0.0631
   86RES   H17624146   5.779   7.227   3.142  1.9728  1.0530 -0.8176
   86RES   H17724147   5.804   7.100   3.010 -1.4752 -0.7663 -0.3879
   86RES   H17824148   6.012   7.282   3.112 -0.4481  2.0882 -0.2078
   86RES   H17924149   5.824   7.373   2.887  0.1659 -2.6256  0.6581
   86RES   H18024150   5.818   7.442   3.053  0.8692 -0.9254  1.5324
   86RES   H18124151   6.151   7.596   3.000 -0.1151  0.4944 -1.6571
   86RES   H18224152   6.066   7.500   3.126 -0.6196 -0.2309 -0.2057
   86RES   H18324153   6.004   7.659   3.073 -0.6670 -1.5641  3.7511
   86RES   O18424154   6.021   7.207   2.916 -0.6118 -0.1059  0.2655
   86RES   C18524155   6.149   7.164   2.965 -0.0827 -0.0909  0.4172
   86RES   C18624156   6.215   7.105   2.848 -0.0036  0.2300 -0.0038
   86RES   C18724157   6.234   6.948   2.872 -0.2522  0.1284  0.2947
   86RES   O18824158   6.330   6.925   2.968 -0.3945  0.4315 -0.2873
   86RES   C18924159   6.357   6.791   2.996  0.4234  0.9674  0.8090
   86RES   H19024160   6.134   7.096   3.049 -1.8797  0.3256  0.4547
   86RES   H19124161   6.209   7.243   3.010  0.9507 -1.7792  2.0895
   86RES   H19224162   6.145   7.098   2.765 -2.7732  1.0264  2.1691
   86RES   H19324163   6.266   6.891   2.785  0.1641 -1.9795  1.7911
   86RES   H19424164   6.133   6.913   2.894 -0.3844 -0.7476 -1.5927
   86RES   H19524165   6.433   6.783   3.073  1.4399 -0.9231 -0.3493
   86RES   H19624166   6.274   6.746   3.050  1.3737 -0.2681  1.2437
   86RES   H19724167   6.383   6.727   2.912  1.8633  2.0589  0.4055
   86RES   O19824168   6.328   7.172   2.798 -0.4384  0.3759  0.4105
   86RES   C19924169   6.371   7.111   2.669 -0.9543 -0.5457  0.7264
   86RES   C20024170   6.454   7.217   2.593 -0.1163  0.7792  0.3949
   86RES   C20124171   6.350   7.312   2.520 -0.3411 -0.2790 -0.3572
   86RES   O20224172   6.419   7.438   2.498 -0.4216  0.4556 -0.0399
   86RES   C20324173   6.337   7.531   2.431 -0.0023  0.5570  0.1555
   86RES   H20424174   6.287   7.085   2.605 -0.3100  0.7732 -0.6954
   86RES   H20524175   6.411   7.011   2.686 -0.0637 -0.5097 -1.0764
   86RES   H20624176   6.514   7.274   2.664  0.7232 -0.4331  0.6823
   86RES   H20724177   6.310   7.259   2.434 -0.9929 -0.4056  0.0194
   86RES   H20824178   6.265   7.325   2.586  0.7897  0.9619  0.8921
   86RES   H20924179   6.373   7.633   2.446 -0.9952  0.8505  0.5728
   86RES   H21024180   6.240   7.529   2.481 -0.3526  1.5569 -0.4728
   86RES   H21124181   6.317   7.505   2.327 -0.2055 -2.6049  0.9513
   86RES   O21224182   6.520   7.154   2.486  0.1250 -0.1889 -0.2401
   86RES   C21324183   6.646   7.210   2.454 -0.2969 -0.5654  0.2950
   86RES   C21424184   6.696   7.147   2.322 -0.1075  0.1489  0.6170
   86RES   C21524185   6.851   7.144   2.305 -0.0292 -0.8901  0.0517
   86RES   O21624186   6.906   7.012   2.341 -0.2477  0.4187  1.3442
   86RES   C21724187   6.961   7.007   2.467 -0.1117  0.0859  0.5247
   86RES   H21824188   6.722   7.182   2.527 -0.9884 -1.9880  0.5022
   86RES   H21924189   6.642   7.318   2.438  1.3050 -0.6415 -0.7157
   86RES   H22024190   6.655   7.046   2.317 -0.1122  0.2508 -1.5484
   86RES   H22124191   6.879   7.141   2.200  1.5950  2.1970  0.3288
   86RES   H22224192   6.891   7.238   2.346 -2.5988 -0.9834  2.9449
   86RES   H22324193   7.050   6.945   2.464 -0.5767 -0.5800 -5.5907
   86RES   H22424194   6.889   6.966   2.537 -0.4007 -0.5390 -0.1312
   86RES   H22524195   6.989   7.102   2.513 -2.6334  1.3132 -0.3713
   86RES   O22624196   6.647   7.216   2.213  0.3795  0.0537  0.3374
   86RES   C22724197   6.527   7.179   2.159  0.1444 -0.4067 -0.3907
   86RES   C22824198   6.561   7.093   2.040 -0.1352 -0.5490  0.3709
   86RES   C22924199   6.431   7.025   1.982  0.4241  0.2736  0.1775
   86RES   O23024200   6.467   6.898   1.928 -0.0795  0.0039 -0.1935
   86RES   C23124201   6.354   6.820   1.886  0.2248 -0.1134  0.0523
   86RES   H23224202   6.472   7.264   2.120  1.0533 -0.0872 -0.9961
   86RES   H23324203   6.461   7.120   2.223  0.9990 -1.2713 -0.3009
   86RES   H23424204   6.634   7.018   2.069 -2.6257 -2.1070  2.8283
   86RES   H23524205   6.378   7.089   1.911  0.0913  1.5543  1.5429
   86RES   H23624206   6.368   7.010   2.070  0.7504 -0.1562  0.3401
   86RES   H23724207   6.310   6.870   1.800  0.8503  1.1996  0.4867
   86RES   H23824208   6.282   6.804   1.966 -2.9238  0.7662 -2.5167
   86RES   H23924209   6.385   6.719   1.858 -3.0158 -0.9698 -0.6774
   86RES   O24024210   6.636   7.178   1.950 -0.0189 -0.3791 -0.3549
   86RES   C24124211   6.699   7.115   1.839 -0.7142 -0.0533  0.1144
   86RES   C24224212   6.748   7.212   1.725 -0.6389  0.2570 -0.3630
   86RES   C24324213   6.645   7.327   1.698 -0.0751 -0.3963 -0.5871
   86RES   O24424214   6.652   7.365   1.560 -0.6550  0.0868  0.2402
   86RES   C24524215   6.551   7.460   1.531  0.0369 -0.1266  0.6256
   86RES   H24624216   6.625   7.051   1.790  2.5698 -1.6978 -2.9244
   86RES   H24724217   6.784   7.050   1.860  0.3857  1.0811 -0.7859
   86RES   H24824218   6.776   7.146   1.642  0.1839 -1.3527  1.1739
   86RES   H24924219   6.545   7.289   1.716  0.2758 -1.3195 -0.5476
   86RES   H25024220   6.660   7.405   1.772  4.1110 -2.8632  1.3956
   86RES   H25124221   6.456   7.447   1.581 -0.5510  0.7138 -0.2544
   86RES   H25224222   6.521   7.456   1.426 -1.9485  3.6730  0.9499
   86RES   H25324223   6.589   7.560   1.552  0.5970 -0.0887 -0.4784
   86RES   O25424224   6.872   7.280   1.759 -0.7290 -0.6225 -0.3557
   86RES   C25524225   6.952   7.340   1.654  0.1474 -0.9630  0.4048
   86RES   C25624226   7.093   7.365   1.707 -0.5294  0.1776 -0.1363
   86RES   C25724227   7.195   7.425   1.606  0.2866 -0.0811 -0.2824
   86RES   O25824228   7.337   7.426   1.655  0.1863  0.3211 -0.2885
   86RES   C25924229   7.373   7.552   1.710  0.0338 -0.6788  0.4167
   86RES   H26024230   6.952   7.272   1.569  0.2330 -1.1518  0.5559
   86RES   H26124231   6.916   7.435   1.614  0.5864 -1.3325 -0.9002
   86RES   H26224232   7.128   7.266   1.737  0.2519  0.8412  1.2258
   86RES   H26324233   7.210   7.355   1.524  2.0070 -0.5384  0.3916
   86RES   H26424234   7.158   7.518   1.563  0.6469  0.7085  1.0634
   86RES   H26524235   7.314   7.557   1.801 -0.1397 -0.5817  0.3011
   86RES   H26624236   7.345   7.626   1.635 -0.3859 -1.4148 -0.1665
   86RES   H26724237   7.480   7.564   1.724  0.0523  0.5581 -0.7048
   86RES   O26824238   7.083   7.454   1.815 -0.3117 -0.4822 -0.5411
   86RES   C26924239   7.092   7.391   1.941  0.3676  0.4477  0.0639
   86RES   C27024240   7.094   7.512   2.046 -0.4558 -0.8675 -0.1888
   86RES   C27124241   7.123   7.472   2.193  0.4142 -0.2218  0.6850
   86RES   O27224242   7.145   7.589   2.256 -0.5937  0.0606  0.0760
   86RES   C27324243   7.206   7.576   2.382  0.5042  0.5566  0.3177
   86RES   H27424244   7.191   7.347   1.939  0.2001  0.1195 -2.8613
   86RES   H27524245   7.011   7.320   1.957  2.0353 -1.9623 -1.9878
   86RES   H27624246   7.171   7.585   2.020  1.6462 -2.4512  1.4179
   86RES   H27724247   7.211   7.407   2.199  1.6781  1.4570  0.7670
   86RES   H27824248   7.040   7.412   2.232  2.4420 -1.9956  2.4368
   86RES   H27924249   7.235   7.677   2.414  1.4017  1.1422 -2.2204
   86RES   H28024250   7.275   7.492   2.382 -0.9314 -0.6411 -0.1354
   86RES   H28124251   7.129   7.545   2.452 -0.7009  2.6163 -0.0591
   86RES   H28224252   7.005   7.575   2.042  1.0876  1.2988 -1.5247
   87RES     O124253   6.216   1.635   1.548 -0.2416  0.2309 -0.2233
   87RES     C224254   6.217   1.506   1.495 -0.2725 -0.0885 -0.5247
   87RES     C324255   6.123   1.518   1.372 -0.0978  0.1211  0.4680
   87RES     C424256   6.087   1.382   1.310 -0.5529  0.2331  0.5144
   87RES     O524257   6.049   1.405   1.173  0.0970 -0.2145 -0.3861
   87RES     C624258   6.029   1.287   1.093 -0.3396 -0.4000 -0.1673
   87RES     H724259   6.313   1.472   1.457 -0.9037 -1.4874 -0.9097
   87RES     H824260   6.185   1.433   1.570 -0.8053  0.6787  0.0142
   87RES     H924261   6.174   1.581   1.298 -0.7665 -1.1719 -1.1080
   87RES    H1024262   6.018   1.314   1.362  0.6362 -0.3868  1.2959
   87RES    H1124263   6.183   1.330   1.310  0.7984  2.6605 -1.1633
   87RES    H1224264   6.022   1.325   0.991  3.3366 -0.8274 -0.6477
   87RES    H1324265   6.113   1.218   1.087 -0.9391 -1.1773  0.3097
   87RES    H1424266   5.938   1.228   1.101  1.0812 -2.5648  0.5666
   87RES    H1524267   6.127   1.664   1.537 -0.1322  0.6485 -0.0499
   87RES    O1624268   6.008   1.579   1.430  0.5081  0.3780  0.4756
   87RES    C1724269   5.929   1.649   1.334 -0.7568 -0.4362  1.0357
   87RES    C1824270   5.989   1.785   1.278  0.2715 -0.1114  0.0279
   87RES    C1924271   5.899   1.861   1.177 -0.6043 -0.2308 -0.1734
   87RES    O2024272   5.768   1.878   1.228 -0.0724 -0.7831  0.0168
   87RES    C2124273   5.753   1.993   1.314 -0.4155  0.1998 -0.3110
   87RES    H2224274   5.832   1.670   1.380 -0.2130 -3.4080  3.7180
   87RES    H2324275   5.912   1.578   1.253 -0.7789  0.9830 -0.2134
   87RES    H2424276   6.076   1.757   1.220 -0.3721  0.2318 -1.1212
   87RES    H2524277   5.944   1.953   1.140 -1.6630  0.1948 -0.4252
   87RES    H2624278   5.889   1.794   1.092  1.2974 -1.6346  0.6798
   87RES    H2724279   5.778   2.097   1.292 -0.4169  0.5493  1.3035
   87RES    H2824280   5.777   1.957   1.414 -2.3628  1.2063  0.5374
   87RES    H2924281   5.644   1.996   1.310 -0.3712  1.3224 -0.9827
   87RES    O3024282   6.012   1.864   1.400  0.0219  0.7531 -0.7298
   87RES    C3124283   6.128   1.941   1.397 -0.0027 -0.3341 -0.0915
   87RES    C3224284   6.121   2.057   1.498 -0.0738 -0.3085 -0.8794
   87RES    C3324285   6.231   2.163   1.471 -0.4228  0.1437 -0.3365
   87RES    O3424286   6.197   2.248   1.366  0.1802 -0.1294  0.2980
   87RES    C3524287   6.281   2.361   1.352  0.1772  0.1853  0.1130
   87RES    H3624288   6.226   1.893   1.390  0.3297  0.5723 -2.0263
   87RES    H3724289   6.126   1.987   1.298 -0.6101 -1.8843 -0.8122
   87RES    H3824290   6.025   2.106   1.488  0.0175  0.0968  0.1108
   87RES    H3924291   6.331   2.123   1.462 -0.2236  0.6990 -0.6377
   87RES    H4024292   6.230   2.228   1.559 -0.9837  0.7642 -0.7972
   87RES    H4124293   6.281   2.396   1.248  0.6076 -1.0868 -0.3257
   87RES    H4224294   6.380   2.345   1.394 -0.0999 -1.5966  0.1302
   87RES    H4324295   6.223   2.438   1.403 -1.9391 -0.1524 -1.6862
   87RES    O4424296   6.130   2.025   1.635 -0.4023  0.0744 -0.5574
   87RES    C4524297   6.044   1.925   1.687 -0.3603 -0.0853  0.3813
   87RES    C4624298   6.063   1.927   1.836 -0.1222 -0.8531  0.2470
   87RES    C4724299   5.940   1.867   1.920  0.0887  0.0968 -0.0581
   87RES    O4824300   5.817   1.950   1.901  0.1372 -0.6858 -0.0255
   87RES    C4924301   5.703   1.906   1.976 -0.0465  0.4123 -0.2648
   87RES    H5024302   6.078   1.831   1.644 -0.2023 -0.2792  0.9182
   87RES    H5124303   5.945   1.957   1.654  0.4699  0.9844 -1.1151
   87RES    H5224304   6.050   2.027   1.879 -0.4022 -1.1688  0.9110
   87RES    H5324305   5.929   1.761   1.899  2.3114  0.2006 -2.0411
   87RES    H5424306   5.968   1.875   2.025  0.5202 -0.2710 -0.1464
   87RES    H5524307   5.655   1.821   1.928 -0.9992  1.3776 -1.0685
   87RES    H5624308   5.628   1.979   2.008  0.0038  0.1074  0.5577
   87RES    H5724309   5.749   1.860   2.063 -2.0516  0.8918  1.0800
   87RES    O5824310   6.179   1.866   1.888 -0.0547 -0.4416  0.0805
   87RES    C5924311   6.304   1.916   1.847 -0.5090  0.3453 -0.6038
   87RES    C6024312   6.334   2.067   1.869  0.2864 -0.3205 -0.1242
   87RES    C6124313   6.461   2.118   1.787 -0.5334 -0.0282  0.3557
   87RES    O6224314   6.465   2.259   1.772 -0.5676 -0.0624 -0.7828
   87RES    C6324315   6.577   2.313   1.694  0.9549  0.5486 -0.6956
   87RES    H6424316   6.317   1.885   1.743 -2.7108 -0.2459 -0.7129
   87RES    H6524317   6.379   1.856   1.899 -0.1225  3.2937  2.4295
   87RES    H6624318   6.250   2.126   1.832  0.7592  0.3412 -0.1503
   87RES    H6724319   6.557   2.073   1.814 -1.8521 -3.0138  0.2806
   87RES    H6824320   6.446   2.087   1.683  0.5484 -1.6853  0.6605
   87RES    H6924321   6.553   2.419   1.687  0.0441  0.5049  1.3589
   87RES    H7024322   6.580   2.275   1.592  0.1017 -0.7567 -0.2405
   87RES    H7124323   6.672   2.315   1.749 -0.3397 -0.8984  1.6506
   87RES    O7224324   6.349   2.078   2.012  0.1423  0.2764  0.3927
   87RES    C7324325   6.404   2.197   2.061  0.9895 -0.4649  0.4490
   87RES    C7424326   6.330   2.326   2.029  0.2621 -0.0057  0.2043
   87RES    C7524327   6.418   2.451   2.032 -0.0625  0.2718 -0.6847
   87RES    O7624328   6.455   2.488   2.164 -0.0347 -0.2188 -0.0170
   87RES    C7724329   6.564   2.421   2.219  0.4602 -0.2416  0.5789
   87RES    H7824330   6.413   2.185   2.169 -2.6718 -0.9680  0.7462
   87RES    H7924331   6.509   2.199   2.032  0.7880  0.5565 -0.2247
   87RES    H8024332   6.299   2.323   1.925 -1.0541  0.2747  0.5830
   87RES    H8124333   6.363   2.533   1.984  0.4956  0.2324 -1.3997
   87RES    H8224334   6.501   2.428   1.965 -0.2666  0.8828 -1.1524
   87RES    H8324335   6.538   2.344   2.291  0.3186 -0.9021 -0.1828
   87RES    H8424336   6.606   2.506   2.273  1.1156  0.6338 -1.2571
   87RES    H8524337   6.630   2.380   2.142 -1.1391  0.7667 -1.3742
   87RES    O8624338   6.214   2.348   2.103 -0.2876 -0.4779 -0.3439
   87RES    C8724339   6.109   2.252   2.072  0.3919  0.0259 -0.5767
   87RES    C8824340   6.012   2.257   2.196  0.3491 -1.0745 -0.7855
   87RES    C8924341   5.866   2.213   2.163 -0.3606 -0.4029  0.1872
   87RES    O9024342   5.782   2.239   2.279  0.3503 -0.3225  0.3253
   87RES    C9124343   5.657   2.178   2.260 -0.0684  0.4449  0.4548
   87RES    H9224344   6.060   2.270   1.977 -1.0407 -0.7274  0.0060
   87RES    H9324345   6.136   2.147   2.060 -0.2708 -0.4419  1.7047
   87RES    H9424346   6.010   2.358   2.237 -3.6543 -1.1703 -0.5985
   87RES    H9524347   5.829   2.269   2.077  2.4020  1.5612  0.2214
   87RES    H9624348   5.870   2.106   2.141  1.5520 -0.4227  0.5516
   87RES    H9724349   5.578   2.226   2.318  0.1134  2.0964 -0.6443
   87RES    H9824350   5.632   2.176   2.154 -0.3994 -0.0827  0.5374
   87RES    H9924351   5.669   2.073   2.288 -0.2593 -0.2378 -1.8955
   87RES   O10024352   6.070   2.164   2.288 -0.5301  0.3028  0.3008
   87RES   C10124353   6.084   2.206   2.421  0.7231  0.2261  0.5737
   87RES   C10224354   6.104   2.090   2.515 -0.3462  1.1468  0.5182
   87RES   C10324355   6.083   2.133   2.656 -0.2295 -0.6811  0.0383
   87RES   O10424356   5.981   2.066   2.717  0.2338  0.3002 -0.5648
   87RES   C10524357   5.849   2.088   2.660  0.1182 -0.4287  0.2699
   87RES   H10624358   5.990   2.255   2.447  0.9513  1.7972 -1.4583
   87RES   H10724359   6.166   2.275   2.443  0.9732  0.6064 -1.3975
   87RES   H10824360   6.027   2.015   2.499 -2.2586  3.0392  0.5713
   87RES   H10924361   6.054   2.237   2.672 -0.1389 -1.1055  3.3324
   87RES   H11024362   6.172   2.123   2.718  0.0374 -0.2555 -0.2728
   87RES   H11124363   5.850   2.068   2.553  0.0791 -0.6204  0.3046
   87RES   H11224364   5.821   2.193   2.672  0.5499 -0.4187  1.2575
   87RES   H11324365   5.772   2.034   2.715 -2.1165  0.8217 -1.5878
   87RES   O11424366   6.237   2.051   2.500  0.1182  0.5900 -0.6678
   87RES   C11524367   6.279   1.992   2.382  0.0735 -0.6327 -0.2591
   87RES   C11624368   6.414   1.926   2.415 -0.3682  0.2157  0.2958
   87RES   C11724369   6.514   2.021   2.485  0.0406 -0.1204  0.5454
   87RES   O11824370   6.649   1.996   2.450 -0.8695  0.1823 -0.0525
   87RES   C11924371   6.746   2.087   2.499  0.8084 -0.1007 -0.1370
   87RES   H12024372   6.210   1.914   2.351 -0.3709 -0.9434  1.4661
   87RES   H12124373   6.283   2.068   2.304  0.5706  0.9429  1.2601
   87RES   H12224374   6.452   1.885   2.322  0.0605 -0.1331  0.6256
   87RES   H12324375   6.494   2.119   2.442  0.3123 -0.5592 -0.6296
   87RES   H12424376   6.511   2.034   2.593  1.7481  1.9664  0.3672
   87RES   H12524377   6.728   2.119   2.602 -1.8935  0.8348 -0.8711
   87RES   H12624378   6.723   2.179   2.446  1.1679  0.3872  0.5406
   87RES   H12724379   6.842   2.037   2.484  1.2529  0.2206  1.4931
   87RES   O12824380   6.389   1.814   2.497  0.6223 -0.4146 -0.0119
   87RES   C12924381   6.505   1.723   2.505  0.6344 -0.6862 -0.6437
   87RES   C13024382   6.469   1.574   2.514  0.0722 -0.0426  0.3577
   87RES   C13124383   6.544   1.499   2.618  0.4961 -0.0161 -0.4763
   87RES   O13224384   6.474   1.386   2.669  0.5406 -0.1254 -0.0395
   87RES   C13324385   6.564   1.308   2.738 -0.0586 -0.3068 -0.3862
   87RES   H13424386   6.582   1.734   2.429  1.7586 -1.0673  0.4226
   87RES   H13524387   6.556   1.751   2.597 -0.8872 -2.3100  0.7210
   87RES   H13624388   6.365   1.561   2.545 -0.6689 -0.5500 -2.2465
   87RES   H13724389   6.572   1.565   2.700 -0.8922 -0.3696  0.2942
   87RES   H13824390   6.638   1.478   2.567 -1.1480 -1.6064 -2.9289
   87RES   H13924391   6.615   1.365   2.816  0.6438 -1.6044  0.1162
   87RES   H14024392   6.507   1.225   2.779 -1.9819  1.4016  0.4550
   87RES   H14124393   6.638   1.268   2.668  0.2800 -0.3443 -0.0049
   87RES   O14224394   6.482   1.518   2.388  0.1848 -0.0910  0.3684
   87RES   C14324395   6.377   1.555   2.298  0.3024  0.0975 -0.2074
   87RES   C14424396   6.363   1.460   2.176  0.0672  0.2664 -0.3207
   87RES   C14524397   6.281   1.528   2.064  0.2831 -1.2360 -0.8550
   87RES   O14624398   6.259   1.434   1.961 -0.0020  0.4737  0.2829
   87RES   C14724399   6.171   1.477   1.853 -0.3327 -0.1741  0.2061
   87RES   H14824400   6.281   1.557   2.350  0.2342  0.5632 -0.3519
   87RES   H14924401   6.392   1.658   2.266 -1.9710 -0.2973 -2.7735
   87RES   H15024402   6.454   1.429   2.125  1.6275 -1.4679  3.3300
   87RES   H15124403   6.338   1.609   2.019 -1.4700  0.6067  0.1856
   87RES   H15224404   6.191   1.567   2.111  1.1898  0.7811 -0.7339
   87RES   H15324405   6.075   1.516   1.887 -0.2340  0.1630  0.0962
   87RES   H15424406   6.153   1.393   1.785 -1.8603  0.4941 -0.2341
   87RES   H15524407   6.216   1.563   1.804  0.1544 -0.7790 -0.4171
   87RES   O15624408   6.283   1.351   2.217  0.2807 -0.5047 -0.1702
   87RES   C15724409   6.354   1.237   2.269 -0.5395  0.6691  0.0932
   87RES   C15824410   6.249   1.131   2.306  0.0279 -0.2774  0.7588
   87RES   C15924411   6.172   1.101   2.171  0.0998  0.4152 -0.2036
   87RES   O16024412   6.114   0.973   2.172  0.1357 -0.3945  0.5275
   87RES   C16124413   5.980   0.965   2.221 -0.1794  0.3614 -0.4681
   87RES   H16224414   6.422   1.204   2.190  1.9323  0.5670  2.2172
   87RES   H16324415   6.406   1.249   2.364 -0.5674 -0.9360  0.3214
   87RES   H16424416   6.305   1.043   2.336 -1.1713 -1.6993 -1.0324
   87RES   H16524417   6.098   1.177   2.146 -2.7772 -1.6809  1.5920
   87RES   H16624418   6.247   1.094   2.092  0.4480  0.6494  0.1048
   87RES   H16724419   5.980   0.998   2.325  0.4023 -1.1779  0.0351
   87RES   H16824420   5.963   0.857   2.220  0.6699  0.2033  1.1690
   87RES   H16924421   5.906   1.022   2.165 -0.8715  0.6055  0.6963
   87RES   O17024422   6.159   1.173   2.412  0.0562  0.6206  0.0286
   87RES   C17124423   6.212   1.165   2.546 -0.0817  0.4266 -0.3927
   87RES   C17224424   6.093   1.181   2.643 -0.4304 -0.5474 -0.3232
   87RES   C17324425   6.150   1.228   2.781 -1.0480 -0.9486 -0.2635
   87RES   O17424426   6.060   1.307   2.854 -0.3656  0.2973 -0.2534
   87RES   C17524427   6.115   1.381   2.961  0.0613 -0.0192  0.6745
   87RES   H17624428   6.288   1.241   2.560  0.6235 -0.3400 -0.0428
   87RES   H17724429   6.253   1.065   2.557  3.4675  1.7096 -1.2648
   87RES   H17824430   6.032   1.256   2.594  0.8306 -1.1128 -2.8712
   87RES   H17924431   6.185   1.150   2.848 -1.0963 -0.6523  0.1124
   87RES   H18024432   6.236   1.291   2.756 -1.1289 -0.3430  0.9318
   87RES   H18124433   6.198   1.444   2.930  0.8201  0.4348  3.5212
   87RES   H18224434   6.142   1.314   3.043 -0.3821 -0.7029  0.2713
   87RES   H18324435   6.035   1.448   2.992  1.8455  1.7638  1.4624
   87RES   O18424436   6.026   1.053   2.637  0.0260  0.0950 -0.2495
   87RES   C18524437   5.910   1.052   2.724 -0.1820  0.1528 -0.0376
   87RES   C18624438   5.874   0.909   2.771  0.9538  0.5315  0.0439
   87RES   C18724439   5.747   0.912   2.860  0.1399  0.1100 -0.0648
   87RES   O18824440   5.668   0.789   2.847 -0.2220 -0.1690  0.6783
   87RES   C18924441   5.550   0.789   2.918 -0.2143 -0.3187 -0.5991
   87RES   H19024442   5.830   1.105   2.672  2.0894  0.7146 -3.0792
   87RES   H19124443   5.937   1.105   2.815  1.0588 -1.7270  0.7208
   87RES   H19224444   5.860   0.835   2.692  1.4439  2.1606 -1.5809
   87RES   H19324445   5.677   0.992   2.834 -0.4742 -0.3892  0.0381
   87RES   H19424446   5.780   0.929   2.962 -0.7592  1.4389  0.0174
   87RES   H19524447   5.488   0.875   2.891  1.1806  0.5034 -1.2009
   87RES   H19624448   5.485   0.706   2.889 -2.0007  1.2293 -1.2186
   87RES   H19724449   5.555   0.795   3.027 -2.4174 -0.7833 -0.4315
   87RES   O19824450   5.980   0.874   2.860 -0.0127  0.2365  0.7821
   87RES   C19924451   5.993   0.747   2.915 -0.3588  0.2472  0.3887
   87RES   C20024452   6.138   0.692   2.905 -0.4840  0.7559  0.1445
   87RES   C20124453   6.144   0.540   2.947 -0.2120  0.1146  0.0995
   87RES   O20224454   6.235   0.470   2.858 -0.1531 -0.1461 -0.1836
   87RES   C20324455   6.197   0.333   2.854  0.2188 -0.9047  0.5399
   87RES   H20424456   5.936   0.681   2.851 -0.7472  0.6538  0.3161
   87RES   H20524457   5.948   0.748   3.015  2.3957  1.7259  1.6918
   87RES   H20624458   6.166   0.695   2.799 -2.4450  1.9337 -0.3770
   87RES   H20724459   6.163   0.526   3.054 -0.3263 -0.9781 -0.0155
   87RES   H20824460   6.040   0.504   2.947 -0.1727 -0.0375 -1.5059
   87RES   H20924461   6.088   0.332   2.841  0.1513 -2.4631  1.1348
   87RES   H21024462   6.230   0.280   2.943  1.9271  0.0637  0.4962
   87RES   H21124463   6.237   0.297   2.760 -1.9028 -3.5429  0.5790
   87RES   O21224464   6.238   0.764   2.976 -0.0644  0.0815 -0.4593
   87RES   C21324465   6.267   0.895   2.927  0.0767  0.1791  0.6978
   87RES   C21424466   6.419   0.934   2.950  0.0243  0.0265  0.1446
   87RES   C21524467   6.440   1.061   3.029  0.4010 -0.5544 -0.0772
   87RES   O21624468   6.575   1.068   3.079 -0.4803  0.3069 -0.1577
   87RES   C21724469   6.589   1.146   3.194  0.6850  0.0072  0.9351
   87RES   H21824470   6.217   0.965   2.994  0.3341 -0.1790  1.2641
   87RES   H21924471   6.233   0.914   2.825  1.3873 -0.1446  0.1989
   87RES   H22024472   6.469   0.856   3.007  1.9787  0.6040 -0.7547
   87RES   H22124473   6.423   1.149   2.968  2.2247 -1.5813 -2.1387
   87RES   H22224474   6.392   1.055   3.127 -0.5758 -0.3848 -0.5327
   87RES   H22324475   6.523   1.132   3.280  2.2113 -2.0582  1.7936
   87RES   H22424476   6.588   1.254   3.176  0.9296  0.3855  3.0617
   87RES   H22524477   6.693   1.124   3.213  0.9279 -0.2314 -0.6384
   87RES   O22624478   6.479   0.969   2.831  0.0995  0.7581  0.4804
   87RES   C22724479   6.557   0.859   2.774  0.1164  0.6502 -0.4290
   87RES   C22824480   6.626   0.902   2.647  0.5794 -0.8778  0.2497
   87RES   C22924481   6.525   0.944   2.536 -0.0368  0.1131 -0.2288
   87RES   O23024482   6.572   0.954   2.399 -0.2386 -0.4685 -0.2701
   87RES   C23124483   6.531   0.845   2.323 -0.3947  0.4633 -0.7421
   87RES   H23224484   6.482   0.783   2.750 -1.2016  2.4703 -2.2960
   87RES   H23324485   6.623   0.824   2.853 -1.9324  1.0140  1.4959
   87RES   H23424486   6.680   0.814   2.613  0.7751 -0.5829 -0.1996
   87RES   H23524487   6.487   1.043   2.561 -0.8673 -0.7214  1.9008
   87RES   H23624488   6.440   0.876   2.542  0.3802 -0.4177 -0.2377
   87RES   H23724489   6.544   0.747   2.367 -0.7721  0.1056 -1.4297
   87RES   H23824490   6.600   0.835   2.238  1.4819  0.1102  0.7921
   87RES   H23924491   6.428   0.850   2.289 -1.2056 -1.5633  1.3466
   87RES   O24024492   6.720   1.002   2.688 -0.4930  0.0408  0.5307
   87RES   C24124493   6.802   1.033   2.575 -0.2756 -0.3944 -0.5179
   87RES   C24224494   6.933   1.086   2.622 -0.3724  0.0920 -1.0758
   87RES   C24324495   7.023   1.149   2.522 -0.1524  0.2589 -0.2818
   87RES   O24424496   7.153   1.191   2.571 -0.0401  0.3180 -0.1863
   87RES   C24524497   7.216   1.285   2.491  0.3702  0.4739 -0.7897
   87RES   H24624498   6.749   1.099   2.506 -1.4610  0.3143  1.0161
   87RES   H24724499   6.828   0.941   2.523 -0.3234 -1.0264  0.5569
   87RES   H24824500   6.990   1.012   2.679 -0.2803 -1.1791 -2.7916
   87RES   H24924501   7.051   1.072   2.450 -1.6966 -0.1874 -0.4102
   87RES   H25024502   6.964   1.236   2.494 -2.4361 -0.6894  1.4560
   87RES   H25124503   7.319   1.301   2.523  0.4213 -0.3697 -0.5304
   87RES   H25224504   7.158   1.377   2.507  1.2890  1.1376 -1.2225
   87RES   H25324505   7.226   1.257   2.386  0.2139 -1.6904 -0.2433
   87RES   O25424506   6.885   1.192   2.714 -0.1765  0.1842  1.2161
   87RES   C25524507   6.964   1.199   2.833  0.2135 -0.5553 -0.4103
   87RES   C25624508   6.912   1.299   2.931 -0.1394 -0.5131  0.1129
   87RES   C25724509   6.959   1.272   3.079 -0.0756 -0.0827  1.1054
   87RES   O25824510   6.872   1.313   3.190 -0.0874  0.2238 -0.1634
   87RES   C25924511   6.862   1.457   3.190  0.2380 -0.3378 -0.2923
   87RES   H26024512   6.952   1.100   2.877  2.3416 -0.6962 -0.0832
   87RES   H26124513   7.072   1.207   2.816  0.0989  1.7833 -0.2365
   87RES   H26224514   6.804   1.289   2.923  0.0318 -1.5794 -1.0321
   87RES   H26324515   6.975   1.164   3.089  1.9529 -0.2736 -3.3552
   87RES   H26424516   7.058   1.315   3.095  1.0571 -2.2373  0.0507
   87RES   H26524517   6.964   1.496   3.192 -0.3892  1.3311  0.1144
   87RES   H26624518   6.825   1.504   3.281 -0.9294 -2.0124  0.1203
   87RES   H26724519   6.807   1.501   3.106 -0.0408  0.4852  0.3147
   87RES   O26824520   6.964   1.427   2.900  0.1244  0.5923 -0.0576
   87RES   C26924521   6.867   1.516   2.832 -0.3211 -0.1979  0.1702
   87RES   C27024522   6.930   1.649   2.792  0.8605 -0.5423  0.3777
   87RES   C27124523   6.824   1.744   2.741 -0.3501  1.0973 -0.6201
   87RES   O27224524   6.875   1.873   2.734  0.5619 -0.4001  0.5284
   87RES   C27324525   6.854   1.946   2.851 -0.2514 -0.3037 -0.2782
   87RES   H27424526   6.776   1.523   2.890 -0.3023 -0.1758  0.1974
   87RES   H27524527   6.840   1.475   2.735  0.3156 -0.3212  0.0425
   87RES   H27624528   6.983   1.692   2.877  0.4358 -0.0001  0.3743
   87RES   H27724529   6.733   1.742   2.801  0.0782  1.7922  0.0540
   87RES   H27824530   6.801   1.706   2.641  4.1994 -1.8483 -0.6792
   87RES   H27924531   6.910   1.919   2.941  0.6042  0.1213 -0.6789
   87RES   H28024532   6.754   1.976   2.882  0.6404  3.2490 -0.6886
   87RES   H28124533   6.894   2.046   2.835 -1.1228  0.1548  0.3770
   87RES   H28224534   7.003   1.641   2.712  0.1792  0.5570 -0.3693
   88RES     O124535   1.895   4.736   2.721  0.2340 -0.2611 -0.0501
   88RES     C224536   1.760   4.704   2.678 -0.0020 -0.1197 -0.0566
   88RES     C324537   1.781   4.645   2.539  0.1624  0.0612 -0.0584
   88RES     C424538   1.639   4.595   2.482  0.2710  0.5775 -0.3439
   88RES     O524539   1.660   4.548   2.350 -0.9549  0.7594 -0.0282
   88RES     C624540   1.720   4.418   2.351  0.4467  0.3841 -0.1652
   88RES     H724541   1.711   4.644   2.755  0.8146 -0.6040  0.0947
   88RES     H824542   1.712   4.802   2.685  1.3282  0.4356  1.6347
   88RES     H924543   1.858   4.567   2.539 -1.1155 -1.2240  0.2913
   88RES    H1024544   1.556   4.665   2.473 -0.0547  0.2151 -0.1728
   88RES    H1124545   1.616   4.508   2.543 -1.3984  1.7459  0.7423
   88RES    H1224546   1.657   4.338   2.392  0.0962  0.5267 -0.4298
   88RES    H1324547   1.742   4.381   2.251  0.3211  1.8258 -0.7275
   88RES    H1424548   1.820   4.407   2.393 -0.7706  0.3942  2.8606
   88RES    H1524549   1.934   4.782   2.648  2.7940  0.2416  1.5646
   88RES    O1624550   1.827   4.763   2.470  0.0225  0.2997 -0.0159
   88RES    C1724551   1.894   4.743   2.344 -0.6556  0.4108 -0.2830
   88RES    C1824552   1.921   4.870   2.263 -0.3159  0.2498 -0.9390
   88RES    C1924553   2.043   4.864   2.170  0.4769 -0.3881  0.2521
   88RES    O2024554   2.054   4.740   2.104 -0.3475  0.0213 -0.1066
   88RES    C2124555   2.185   4.728   2.046 -1.0463  1.1144  0.5203
   88RES    H2224556   1.843   4.678   2.272 -1.3722 -1.1801  1.6001
   88RES    H2324557   1.986   4.696   2.377 -1.0377 -0.2928 -0.1974
   88RES    H2424558   1.941   4.945   2.341  1.4045  0.0734 -1.1864
   88RES    H2524559   2.035   4.934   2.086  0.1031 -0.5293  0.1698
   88RES    H2624560   2.134   4.898   2.219  0.2773  0.6491 -0.0792
   88RES    H2724561   2.192   4.801   1.965  2.2669  4.0896  3.2977
   88RES    H2824562   2.191   4.623   2.018  0.1519  0.5898  2.6904
   88RES    H2924563   2.264   4.755   2.116 -0.5303  0.5585  0.1452
   88RES    O3024564   1.813   4.920   2.187  0.5369 -0.5198  0.3563
   88RES    C3124565   1.692   4.940   2.260 -0.1491 -0.9357  0.0726
   88RES    C3224566   1.601   5.047   2.195 -1.5145 -0.2914 -0.0344
   88RES    C3324567   1.481   5.091   2.282 -0.1394 -0.6651  0.4732
   88RES    O3424568   1.396   5.205   2.233  0.2035 -0.2947  0.3967
   88RES    C3524569   1.313   5.249   2.333 -0.4136 -0.5951 -0.0606
   88RES    H3624570   1.640   4.847   2.284 -1.6777 -0.5080 -1.4514
   88RES    H3724571   1.720   4.991   2.351  2.3169 -0.3409 -0.9685
   88RES    H3824572   1.664   5.127   2.156 -1.5021 -0.0626  0.4425
   88RES    H3924573   1.535   5.124   2.371  0.8318 -0.5896 -0.1348
   88RES    H4024574   1.433   4.999   2.313 -1.5389  0.2494  1.0565
   88RES    H4124575   1.268   5.345   2.310  1.3078  0.2925  0.2089
   88RES    H4224576   1.360   5.262   2.430  2.7358 -3.6561 -1.0402
   88RES    H4324577   1.226   5.187   2.354 -0.1889 -0.1575  2.2406
   88RES    O4424578   1.534   4.988   2.082 -0.4457 -0.4455  0.8541
   88RES    C4524579   1.493   5.068   1.978  0.2343  0.1766  0.1606
   88RES    C4624580   1.365   5.000   1.915  0.8654 -0.1174  0.1322
   88RES    C4724581   1.235   5.026   1.991 -0.3790  0.2128  0.6666
   88RES    O4824582   1.136   4.939   1.962 -0.4749 -1.0354  0.2907
   88RES    C4924583   1.017   4.964   2.045  0.8453  0.3234  0.4406
   88RES    H5024584   1.572   5.081   1.905  0.8483  0.2609  0.8406
   88RES    H5124585   1.453   5.159   2.023 -0.9264  0.9005 -2.2833
   88RES    H5224586   1.373   4.892   1.919 -0.7234 -0.2420  0.3410
   88RES    H5324587   1.256   5.010   2.097  0.0709  1.1788  0.7320
   88RES    H5424588   1.209   5.131   1.977  0.2283  0.6088  2.4280
   88RES    H5524589   0.937   4.932   1.978 -0.4391  1.8195  1.2616
   88RES    H5624590   0.990   5.066   2.072  0.1024  0.2777 -0.1173
   88RES    H5724591   1.006   4.896   2.130 -0.7949  0.0281  0.0032
   88RES    O5824592   1.360   5.048   1.783 -0.1021 -0.0416 -0.4853
   88RES    C5924593   1.446   4.976   1.694 -0.4607 -0.4977 -0.0322
   88RES    C6024594   1.424   5.035   1.552  0.7808  0.1687  0.6414
   88RES    C6124595   1.513   4.976   1.446 -0.7468 -0.1060 -0.3005
   88RES    O6224596   1.499   4.832   1.436 -0.3271  0.5851  0.1422
   88RES    C6324597   1.559   4.801   1.308 -0.0607  1.0693 -0.6276
   88RES    H6424598   1.424   4.869   1.702 -1.0129 -0.2847  1.5217
   88RES    H6524599   1.550   4.998   1.718 -1.1396  1.9363  0.8146
   88RES    H6624600   1.322   5.022   1.515  0.3152  2.0155  1.2136
   88RES    H6724601   1.492   5.040   1.361  1.0459  0.7849 -0.0735
   88RES    H6824602   1.617   4.983   1.476 -1.8153  0.7850  3.5546
   88RES    H6924603   1.667   4.797   1.321 -0.2523  0.3961  0.9174
   88RES    H7024604   1.527   4.871   1.231 -1.0719  1.0456 -0.2410
   88RES    H7124605   1.535   4.696   1.290  2.1243  0.5297 -0.5568
   88RES    O7224606   1.462   5.171   1.583  0.4931  0.2513  0.4477
   88RES    C7324607   1.417   5.269   1.490 -0.1372  0.1404 -0.1129
   88RES    C7424608   1.452   5.417   1.520 -0.6155 -1.3939  0.1319
   88RES    C7524609   1.351   5.522   1.471 -0.4314 -0.2488 -0.5342
   88RES    O7624610   1.387   5.646   1.540 -0.4604  0.3690 -0.0760
   88RES    C7724611   1.324   5.756   1.475 -0.3551 -0.1350  0.2644
   88RES    H7824612   1.472   5.252   1.397  0.3343 -3.3590  0.7458
   88RES    H7924613   1.309   5.265   1.494 -0.1163 -2.2736 -1.1133
   88RES    H8024614   1.459   5.435   1.627 -0.9098  1.9511 -0.3789
   88RES    H8124615   1.256   5.479   1.504 -0.6185  0.8722  0.4063
   88RES    H8224616   1.346   5.527   1.362 -2.0935  0.8765 -0.4162
   88RES    H8324617   1.391   5.797   1.399  0.7164 -1.3391  0.5444
   88RES    H8424618   1.308   5.836   1.547 -2.0239  0.2881 -0.5381
   88RES    H8524619   1.231   5.740   1.420 -0.8459  1.2529  0.6802
   88RES    O8624620   1.576   5.448   1.458 -0.0024  0.1729 -0.0189
   88RES    C8724621   1.696   5.387   1.514  0.3704 -0.2433 -0.7271
   88RES    C8824622   1.729   5.457   1.647  0.2812 -0.4109 -0.3100
   88RES    C8924623   1.774   5.347   1.748 -0.0991  0.4712 -0.7775
   88RES    O9024624   1.893   5.279   1.699 -0.8660  0.6113  0.2574
   88RES    C9124625   2.022   5.341   1.709 -0.7826 -0.2080 -0.0687
   88RES    H9224626   1.671   5.284   1.540 -1.2906  0.0927 -0.9508
   88RES    H9324627   1.777   5.398   1.442  0.6945  1.6035 -0.1162
   88RES    H9424628   1.644   5.499   1.702  0.1885 -0.5198 -0.3730
   88RES    H9524629   1.779   5.387   1.849 -3.0010 -0.9853 -0.0353
   88RES    H9624630   1.706   5.263   1.755  1.1558 -0.5206 -0.4131
   88RES    H9724631   2.049   5.423   1.641 -1.3680  1.5682  1.7819
   88RES    H9824632   2.023   5.390   1.806 -2.0829 -0.7842  0.2460
   88RES    H9924633   2.101   5.268   1.694 -2.3028 -2.0028  0.5286
   88RES   O10024634   1.832   5.555   1.628  0.1544  0.2750  0.1495
   88RES   C10124635   1.787   5.686   1.576  0.6701 -0.0048 -0.1031
   88RES   C10224636   1.871   5.782   1.655  0.4444 -1.1131 -0.6186
   88RES   C10324637   1.790   5.914   1.679  0.1219  0.6328  0.5221
   88RES   O10424638   1.859   6.007   1.769  0.1244 -0.4494 -0.4685
   88RES   C10524639   1.781   6.107   1.824  0.3932 -0.1691  0.3155
   88RES   H10624640   1.679   5.695   1.587  0.5788  0.0065 -0.9251
   88RES   H10724641   1.804   5.697   1.469  1.1989  2.7024  0.2148
   88RES   H10824642   1.890   5.746   1.756  1.3557 -0.0714 -0.3963
   88RES   H10924643   1.700   5.896   1.738 -0.3030 -1.4681 -0.7217
   88RES   H11024644   1.757   5.965   1.589  3.1722  1.2736 -0.3102
   88RES   H11124645   1.721   6.145   1.741 -1.1418 -1.8377  0.6385
   88RES   H11224646   1.840   6.192   1.859  2.2234  0.6414 -4.3062
   88RES   H11324647   1.709   6.074   1.898 -1.7010 -3.2628 -2.9470
   88RES   O11424648   1.990   5.807   1.584  0.4484 -0.0628 -0.3110
   88RES   C11524649   2.108   5.748   1.643  0.2898  0.8119 -0.8673
   88RES   C11624650   2.230   5.763   1.549 -0.2675  0.8284 -0.5862
   88RES   C11724651   2.191   5.731   1.403  0.2510 -0.2478  0.3095
   88RES   O11824652   2.312   5.703   1.330 -0.4452  0.2193 -0.4871
   88RES   C11924653   2.273   5.691   1.194  0.0519 -0.4318 -0.2717
   88RES   H12024654   2.114   5.800   1.738 -0.3100 -0.6175 -0.0323
   88RES   H12124655   2.083   5.644   1.662  0.2306  0.8450 -0.7619
   88RES   H12224656   2.309   5.696   1.584 -1.6737 -0.3991  0.3284
   88RES   H12324657   2.141   5.635   1.406 -0.3743  0.0891  0.8258
   88RES   H12424658   2.130   5.807   1.356 -1.7689 -2.3403 -0.5289
   88RES   H12524659   2.232   5.787   1.163 -1.9718 -1.1841 -0.0218
   88RES   H12624660   2.202   5.609   1.182  0.6610 -0.8121 -1.2853
   88RES   H12724661   2.369   5.675   1.145 -1.2465 -0.6532 -2.8230
   88RES   O12824662   2.261   5.898   1.552 -0.0176  0.5502 -0.0453
   88RES   C12924663   2.406   5.924   1.539 -0.1766  0.0630 -0.4830
   88RES   C13024664   2.428   6.077   1.561 -0.2073  0.7009 -0.0376
   88RES   C13124665   2.576   6.102   1.531  0.0367 -0.4380 -0.4318
   88RES   O13224666   2.588   6.125   1.388 -0.2000 -0.7608 -0.5725
   88RES   C13324667   2.723   6.133   1.347 -0.0557  0.2866 -0.0756
   88RES   H13424668   2.459   5.863   1.611 -3.2934 -0.8325  1.1343
   88RES   H13524669   2.444   5.898   1.440 -0.4515  1.7978 -1.0660
   88RES   H13624670   2.364   6.133   1.492 -2.2919  0.6681  1.8276
   88RES   H13724671   2.641   6.020   1.560  0.3514 -0.1442 -0.3010
   88RES   H13824672   2.603   6.197   1.578 -0.6783 -1.0132  1.1832
   88RES   H13924673   2.794   6.060   1.387 -0.3522 -0.3046 -0.6219
   88RES   H14024674   2.729   6.135   1.238 -0.3723 -1.8767 -0.1542
   88RES   H14124675   2.765   6.226   1.387  0.9422 -0.4026  0.4977
   88RES   O14224676   2.414   6.117   1.700 -0.3316 -0.3569  0.3059
   88RES   C14324677   2.287   6.155   1.742 -0.1770  0.1151  0.3718
   88RES   C14424678   2.266   6.183   1.890  0.3839 -0.1953 -0.3008
   88RES   C14524679   2.122   6.194   1.942 -0.1894 -0.1980 -0.1603
   88RES   O14624680   2.123   6.212   2.088  0.1609 -0.1852  0.0691
   88RES   C14724681   2.006   6.280   2.135  0.1930 -0.2054  0.3698
   88RES   H14824682   2.263   6.251   1.695  0.1743  0.3863  0.7440
   88RES   H14924683   2.213   6.081   1.711  0.7535 -1.2333  1.3166
   88RES   H15024684   2.322   6.111   1.949 -0.0917  1.1903  1.8967
   88RES   H15124685   2.071   6.100   1.921  1.5197 -1.4323  1.0852
   88RES   H15224686   2.079   6.280   1.891 -1.3792  1.2201  3.1283
   88RES   H15324687   2.016   6.388   2.125  1.2995 -0.3659 -0.2859
   88RES   H15424688   1.986   6.262   2.241 -1.0568  1.4894  0.4459
   88RES   H15524689   1.912   6.254   2.086  0.3930 -0.6807  0.2283
   88RES   O15624690   2.316   6.314   1.913  0.1418  0.1197  0.5105
   88RES   C15724691   2.453   6.339   1.901  0.0212  0.0600 -0.1822
   88RES   C15824692   2.477   6.476   1.973  0.3429  0.3134 -0.1972
   88RES   C15924693   2.621   6.526   1.955  0.1723 -0.1937 -0.1851
   88RES   O16024694   2.628   6.665   1.979 -0.3224  0.1127 -0.4025
   88RES   C16124695   2.759   6.709   1.947 -0.3668 -0.0767  0.2576
   88RES   H16224696   2.506   6.264   1.961 -0.3830 -0.2053 -0.1531
   88RES   H16324697   2.481   6.340   1.796 -0.0263  0.8009 -0.1876
   88RES   H16424698   2.415   6.549   1.923 -1.1357 -0.0085  1.1439
   88RES   H16524699   2.686   6.474   2.025  0.3424 -1.6741 -1.4404
   88RES   H16624700   2.654   6.501   1.855  1.9372 -1.6890  0.7374
   88RES   H16724701   2.827   6.657   2.014  0.0644  0.7767  0.4772
   88RES   H16824702   2.771   6.813   1.975  0.6045 -0.3555  0.9129
   88RES   H16924703   2.798   6.697   1.845 -2.2653  0.9585 -0.6147
   88RES   O17024704   2.455   6.466   2.113  0.1316 -0.0554  0.1177
   88RES   C17124705   2.314   6.474   2.151  0.2125 -0.0389 -0.1757
   88RES   C17224706   2.312   6.559   2.276  0.6226  0.0781  0.9958
   88RES   C17324707   2.179   6.531   2.353  0.2708 -0.8714  0.7353
   88RES   O17424708   2.168   6.622   2.465  0.8123 -0.4617 -0.0344
   88RES   C17524709   2.051   6.601   2.536 -0.5273  0.3498 -0.1555
   88RES   H17624710   2.276   6.372   2.165  0.9061 -0.4894 -1.4776
   88RES   H17724711   2.262   6.516   2.064  1.6255  0.2833 -0.8843
   88RES   H17824712   2.402   6.539   2.334  0.4212 -1.7908  0.6675
   88RES   H17924713   2.094   6.543   2.287 -0.0552  0.0349  1.3167
   88RES   H18024714   2.173   6.433   2.401  2.2727 -1.3783  0.0265
   88RES   H18124715   1.962   6.621   2.477 -0.1068 -2.3698 -1.8252
   88RES   H18224716   2.058   6.676   2.615  1.8890 -0.1550  0.1667
   88RES   H18324717   2.040   6.502   2.579  2.8528  0.2281  0.6327
   88RES   O18424718   2.313   6.694   2.239  0.1686 -0.1985  0.0149
   88RES   C18524719   2.384   6.786   2.322 -0.0932  0.8643 -0.4866
   88RES   C18624720   2.399   6.930   2.268 -0.7865 -0.0794  0.0651
   88RES   C18724721   2.482   7.008   2.367 -0.2297  0.1736  0.8909
   88RES   O18824722   2.523   7.125   2.307 -0.1191 -0.0811 -0.0234
   88RES   C18924723   2.605   7.202   2.386 -0.0861  0.2112  0.2525
   88RES   H19024724   2.483   6.743   2.336 -0.8837 -0.7058  0.4698
   88RES   H19124725   2.336   6.793   2.420  1.7445 -1.0517  0.6101
   88RES   H19224726   2.473   6.918   2.189  2.2714 -1.6803  3.0293
   88RES   H19324727   2.577   6.957   2.384 -0.9494 -1.5047 -0.1126
   88RES   H19424728   2.417   7.028   2.453 -0.8486  1.3316  0.1582
   88RES   H19524729   2.647   7.284   2.327 -1.8527  2.2378  1.7342
   88RES   H19624730   2.544   7.263   2.453  0.5045  1.8576 -0.6800
   88RES   H19724731   2.685   7.155   2.444 -0.1543  1.0623  1.0570
   88RES   O19824732   2.283   7.000   2.235  0.0232 -0.2926 -0.2898
   88RES   C19924733   2.225   6.962   2.116 -0.0526 -0.6144  0.7774
   88RES   C20024734   2.094   7.047   2.079 -1.2017 -0.0731 -0.2091
   88RES   C20124735   2.015   7.006   1.958  0.8528 -0.5786 -0.0333
   88RES   O20224736   1.895   7.081   1.959  0.3381  0.5282  0.7403
   88RES   C20324737   1.792   7.045   1.872  0.1633  0.6667 -0.2517
   88RES   H20424738   2.198   6.856   2.117 -1.5857 -0.2222  2.9017
   88RES   H20524739   2.293   6.987   2.034 -2.3378  1.2950 -0.5991
   88RES   H20624740   2.035   7.041   2.170 -2.4036  2.9916 -0.7522
   88RES   H20724741   2.073   7.015   1.866  1.9079 -0.8760  0.5947
   88RES   H20824742   1.990   6.900   1.958 -0.5712 -0.2454 -0.0870
   88RES   H20924743   1.790   6.939   1.846 -1.0651  0.3567  1.0216
   88RES   H21024744   1.799   7.101   1.779 -0.2719  1.8133  0.3900
   88RES   H21124745   1.690   7.062   1.907  0.1337  0.0877 -0.0519
   88RES   O21224746   2.148   7.184   2.058  0.2716 -0.4617 -0.1135
   88RES   C21324747   2.157   7.268   2.178 -0.4694  0.4649  0.3720
   88RES   C21424748   2.256   7.383   2.166  0.1413  0.5599 -0.2574
   88RES   C21524749   2.291   7.444   2.310 -0.4177 -0.2782  1.3248
   88RES   O21624750   2.378   7.557   2.294 -0.0440  0.4041  0.0640
   88RES   C21724751   2.431   7.610   2.419 -0.2118 -0.6134  0.0749
   88RES   H21824752   2.189   7.211   2.265  2.1884  1.1388 -0.1203
   88RES   H21924753   2.058   7.309   2.200 -1.0843 -0.7711 -0.0039
   88RES   H22024754   2.357   7.356   2.135 -0.9331 -1.8058 -1.7941
   88RES   H22124755   2.199   7.465   2.363  0.1736 -0.5461  2.4799
   88RES   H22224756   2.350   7.368   2.361  2.2048 -0.2874 -1.5628
   88RES   H22324757   2.360   7.625   2.500 -0.7276 -2.0447 -0.1064
   88RES   H22424758   2.471   7.712   2.411  1.5327 -1.0378  2.5044
   88RES   H22524759   2.502   7.537   2.458 -2.0401 -2.5809 -0.1985
   88RES   O22624760   2.197   7.484   2.083 -0.0287  0.8930  0.4375
   88RES   C22724761   2.268   7.507   1.964 -0.6178 -0.4684  0.2181
   88RES   C22824762   2.200   7.618   1.882  0.6966  0.0561 -0.5753
   88RES   C22924763   2.217   7.757   1.941 -0.0490  0.1071 -0.5725
   88RES   O23024764   2.110   0.030   1.900  0.0171 -0.0212 -0.3825
   88RES   C23124765   2.127   0.166   1.946  0.4930 -0.1564  0.0264
   88RES   H23224766   2.261   7.415   1.907  0.5802 -0.3456 -0.1263
   88RES   H23324767   2.369   7.537   1.992 -1.5170  1.2949  1.7393
   88RES   H23424768   2.096   7.585   1.888  0.5136  1.0149  2.3201
   88RES   H23524769   2.316   7.797   1.921  0.7083 -1.4931 -0.0605
   88RES   H23624770   2.208   7.749   2.049  1.0173 -0.5200 -0.5232
   88RES   H23724771   2.168   0.149   2.045 -1.9198  0.5126  1.1706
   88RES   H23824772   2.029   0.211   1.964  0.9078  0.5237  0.5991
   88RES   H23924773   2.183   0.234   1.882 -2.5628  2.0251 -0.4499
   88RES   O24024774   2.244   7.626   1.750  0.2317 -0.1314  0.1309
   88RES   C24124775   2.141   7.639   1.653  0.3336 -0.1588  0.1262
   88RES   C24224776   2.193   7.656   1.514  0.2137  0.2306 -0.6654
   88RES   C24324777   2.074   7.677   1.415  0.7350 -0.0243 -0.0532
   88RES   O24424778   2.020   7.554   1.361  0.4958 -0.2479  0.7042
   88RES   C24524779   1.917   7.579   1.271 -0.1724 -0.4143 -0.8006
   88RES   H24624780   2.074   7.723   1.673 -1.2192 -1.5864  1.0505
   88RES   H24724781   2.083   7.547   1.656 -2.0158  1.3332  5.6848
   88RES   H24824782   2.245   7.571   1.469  3.0055  1.7624 -0.4149
   88RES   H24924783   1.993   7.742   1.451  0.5525 -0.5553  0.5068
   88RES   H25024784   2.115   7.726   1.327  0.5631 -0.2463 -0.2555
   88RES   H25124785   1.952   7.622   1.177  0.7268  0.2778 -0.1599
   88RES   H25224786   1.841   7.647   1.308  0.2344 -0.2754 -0.2231
   88RES   H25324787   1.855   7.492   1.246 -0.4046 -1.0010  1.6995
   88RES   O25424788   2.257   7.782   1.495  0.4466  0.2877  0.6727
   88RES   C25524789   2.392   7.778   1.545  1.0414  0.6230 -0.1797
   88RES   C25624790   2.468   0.081   1.495  0.3167 -0.0742 -0.3340
   88RES   C25724791   2.585   0.105   1.590 -0.9724  0.6917  0.1088
   88RES   O25824792   2.639   0.236   1.575  0.1864 -0.5058 -0.6796
   88RES   C25924793   2.761   0.251   1.643 -0.4140  0.5343 -0.8038
   88RES   H26024794   2.386   7.765   1.654  2.2864  0.4947 -0.1169
   88RES   H26124795   2.434   7.686   1.506 -0.8906 -0.5742  0.5205
   88RES   H26224796   2.399   0.163   1.517  0.5786 -0.3840  1.7721
   88RES   H26324797   2.543   0.095   1.690  0.5098  0.3495  0.7151
   88RES   H26424798   2.664   0.031   1.578 -1.1861  0.4526  0.1622
   88RES   H26524799   2.828   0.187   1.586  0.3605 -0.3477  1.0469
   88RES   H26624800   2.765   0.213   1.745 -2.6063  1.8090 -0.1991
   88RES   H26724801   2.805   0.350   1.638 -1.0626  0.9197  0.8277
   88RES   O26824802   2.496   0.083   1.356  0.0850 -0.1445  0.3754
   88RES   C26924803   2.550   0.201   1.297  0.5431  0.4644  0.4369
   88RES   C27024804   2.525   0.202   1.142 -0.0712  0.0228 -0.1960
   88RES   C27124805   2.588   0.323   1.068 -0.0513  0.6041 -0.1786
   88RES   O27224806   2.556   0.314   0.924 -0.2058  0.6225 -0.3508
   88RES   C27324807   2.648   0.265   0.831  0.6806 -0.5796 -0.0967
   88RES   H27424808   2.653   0.226   1.319  0.7854 -0.2345  0.1163
   88RES   H27524809   2.504   0.284   1.351  1.0633 -0.6863  2.7095
   88RES   H27624810   2.548   0.106   1.095  0.9867  0.5115 -0.6910
   88RES   H27724811   2.696   0.334   1.077  0.1134 -0.1052 -1.1175
   88RES   H27824812   2.558   0.415   1.118  1.2404  0.7676  0.3086
   88RES   H27924813   2.752   0.269   0.862  0.1528  0.8689  1.5475
   88RES   H28024814   2.632   0.329   0.744 -1.2334  0.7890  1.2160
   88RES   H28124815   2.615   0.162   0.814  2.9788 -1.1648 -1.2255
   88RES   H28224816   2.418   0.213   1.125  0.0985  1.4983 -0.3636
   89RES     O124817   5.811   5.525   4.331  0.3653  0.6762  0.2429
   89RES     C224818   5.741   5.573   4.452 -0.2298  0.1915  0.1520
   89RES     C324819   5.788   5.713   4.481  0.1048  0.2704  0.0831
   89RES     C424820   5.692   5.769   4.586 -0.1283 -0.8220  0.7571
   89RES     O524821   5.726   5.904   4.636 -0.9588  0.2364  0.5175
   89RES     C624822   5.721   5.995   4.525 -0.2635 -0.8065  0.3349
   89RES     H724823   5.635   5.594   4.440 -0.2850  1.0935  2.0496
   89RES     H824824   5.754   5.504   4.535  0.4288  1.5270  1.1797
   89RES     H924825   5.803   5.770   4.389 -1.7079 -1.3706 -1.2672
   89RES    H1024826   5.682   5.698   4.668 -3.5256 -0.5661  0.6282
   89RES    H1124827   5.589   5.774   4.553  1.3203  1.3627 -3.8084
   89RES    H1224828   5.623   6.009   4.479  0.2181 -0.4609 -0.6014
   89RES    H1324829   5.759   6.092   4.558  1.9472 -1.1889 -0.9983
   89RES    H1424830   5.788   5.955   4.449  0.4010  1.1863 -0.1592
   89RES    H1524831   5.813   5.595   4.267  0.3753  1.0428  0.6467
   89RES    O1624832   5.917   5.701   4.543 -0.0175 -0.2878  0.1443
   89RES    C1724833   6.026   5.655   4.463 -0.3816  0.5174  0.0505
   89RES    C1824834   6.153   5.739   4.494  0.4934 -0.0109 -0.6812
   89RES    C1924835   6.271   5.699   4.405 -0.0070 -0.6027  0.0443
   89RES    O2024836   6.351   5.607   4.481  0.2271  0.1538  0.6967
   89RES    C2124837   6.446   5.549   4.397 -0.3391 -0.1375 -0.7310
   89RES    H2224838   6.007   5.677   4.357 -0.6035 -1.6926 -0.3969
   89RES    H2324839   6.036   5.547   4.473 -0.4626  0.5622  0.5822
   89RES    H2424840   6.191   5.736   4.596 -0.5057 -0.7034 -0.3191
   89RES    H2524841   6.235   5.637   4.323 -1.6593  1.5068 -0.8705
   89RES    H2624842   6.333   5.774   4.356  0.0005  0.9429  2.3380
   89RES    H2724843   6.415   5.490   4.311  0.6316 -0.9943 -0.5017
   89RES    H2824844   6.510   5.479   4.450 -2.5481 -1.7973 -0.2133
   89RES    H2924845   6.516   5.627   4.366  2.4372 -2.0893  0.4588
   89RES    O3024846   6.123   5.869   4.454  0.0120 -0.2389  0.3083
   89RES    C3124847   6.098   5.964   4.559  1.0698 -0.4265  0.1368
   89RES    C3224848   6.121   6.111   4.514 -0.7046 -0.1857  0.6918
   89RES    C3324849   6.108   6.212   4.635  0.2665  0.3250  0.0595
   89RES    O3424850   6.091   6.349   4.584 -0.4619 -0.0364 -0.2836
   89RES    C3524851   6.074   6.447   4.683 -0.5054 -0.3621  0.1617
   89RES    H3624852   6.001   5.957   4.608  1.9606 -2.2602  1.6512
   89RES    H3724853   6.168   5.962   4.642  1.6183  1.4022 -0.2549
   89RES    H3824854   6.217   6.122   4.462 -0.7240  0.9835  0.8930
   89RES    H3924855   6.197   6.201   4.696  1.2549 -0.4266 -1.4919
   89RES    H4024856   6.020   6.178   4.691  0.7552 -1.8813 -0.4515
   89RES    H4124857   5.990   6.443   4.752 -0.3581  1.4052  0.4615
   89RES    H4224858   6.055   6.542   4.634  1.6543  0.5056  0.9380
   89RES    H4324859   6.164   6.453   4.745  0.3725 -2.4385 -0.8563
   89RES    O4424860   6.022   6.134   4.413  0.7066 -0.5756  0.0611
   89RES    C4524861   6.060   6.229   4.312  0.2295 -0.0347  0.4973
   89RES    C4624862   5.931   6.240   4.222  0.1093  0.1829 -0.2379
   89RES    C4724863   5.931   6.366   4.138 -0.3132  0.4713 -0.8905
   89RES    O4824864   5.809   6.398   4.074 -0.6024  0.1407 -0.3092
   89RES    C4924865   5.809   6.513   3.984 -0.2216  0.1078 -0.3063
   89RES    H5024866   6.145   6.188   4.258 -1.1953 -1.4127 -0.7385
   89RES    H5124867   6.099   6.321   4.355  0.1816  0.3564 -0.2931
   89RES    H5224868   5.841   6.236   4.283  0.2247  2.6456  0.1237
   89RES    H5324869   5.949   6.460   4.191 -0.4939 -0.6670  1.2289
   89RES    H5424870   6.019   6.359   4.074  0.2105 -1.3379 -0.0055
   89RES    H5524871   5.819   6.612   4.029 -0.4351 -0.2999  0.6445
   89RES    H5624872   5.710   6.507   3.939  0.0043 -1.7017 -0.5758
   89RES    H5724873   5.890   6.497   3.913  1.6659 -0.2264  1.8688
   89RES    O5824874   5.943   6.141   4.121  0.6357  0.3944  0.4667
   89RES    C5924875   5.849   6.037   4.154  0.6922 -0.1612  0.3589
   89RES    C6024876   5.854   5.932   4.042  0.2018 -0.7835 -0.9169
   89RES    C6124877   5.723   5.847   4.027  0.1908 -0.3170 -0.2507
   89RES    O6224878   5.707   5.754   4.134 -0.1622  0.0330 -0.1434
   89RES    C6324879   5.604   5.656   4.106 -0.5566  0.4064 -0.1449
   89RES    H6424880   5.754   6.089   4.167  0.8582  0.0343  0.8424
   89RES    H6524881   5.872   5.981   4.244  2.7966 -1.2288 -0.8072
   89RES    H6624882   5.855   5.984   3.947 -1.8215  0.8933 -0.0725
   89RES    H6724883   5.637   5.913   4.035  1.0386  0.9131 -1.1132
   89RES    H6824884   5.722   5.791   3.933 -2.6674 -2.1199  0.7904
   89RES    H6924885   5.596   5.592   4.193 -2.8431  1.0970  0.1914
   89RES    H7024886   5.620   5.606   4.010 -3.0488 -0.5493 -0.0836
   89RES    H7124887   5.513   5.716   4.101 -1.0985 -0.4262 -0.4217
   89RES    O7224888   5.956   5.840   4.057 -0.2506  0.0086 -0.0667
   89RES    C7324889   6.082   5.881   4.004  0.2703 -0.3783  0.6079
   89RES    C7424890   6.192   5.788   4.060 -0.1798  0.8578 -0.3142
   89RES    C7524891   6.332   5.850   4.066 -0.3321  0.1535  0.0403
   89RES    O7624892   6.424   5.750   4.109  0.9387 -0.2333  0.1342
   89RES    C7724893   6.560   5.793   4.102  0.5234  0.0147  0.6535
   89RES    H7824894   6.083   5.882   3.895  0.3950 -2.3059  0.5578
   89RES    H7924895   6.107   5.983   4.030 -2.8578  0.6411 -0.1629
   89RES    H8024896   6.161   5.747   4.157  1.9548 -0.5601 -0.2053
   89RES    H8124897   6.336   5.938   4.130 -1.2482 -0.1663  0.5489
   89RES    H8224898   6.354   5.880   3.964  1.6811  1.4177  0.8214
   89RES    H8324899   6.637   5.716   4.101  1.1809  0.6529  1.7655
   89RES    H8424900   6.592   5.851   4.189 -1.3251  0.0888  1.3084
   89RES    H8524901   6.584   5.853   4.014  0.2122 -1.2226 -0.2882
   89RES    O8624902   6.191   5.671   3.972  0.6042  0.2571  0.0740
   89RES    C8724903   6.216   5.550   4.040  0.2763 -0.4341  0.2449
   89RES    C8824904   6.255   5.442   3.936  0.2299 -0.0363 -0.1964
   89RES    C8924905   6.368   5.357   3.993 -0.2786  0.0153  0.3294
   89RES    O9024906   6.417   5.271   3.886 -0.5389 -0.5541 -0.4426
   89RES    C9124907   6.511   5.169   3.917  0.3126  0.0781 -0.0954
   89RES    H9224908   6.292   5.554   4.117 -2.9815 -0.0762  3.5663
   89RES    H9324909   6.130   5.517   4.099  0.6504  0.7409  1.4623
   89RES    H9424910   6.298   5.478   3.842  2.7098 -0.3716  0.7520
   89RES    H9524911   6.459   5.407   4.027  0.3556 -0.5351 -0.5281
   89RES    H9624912   6.337   5.292   4.075 -1.4626 -0.9990 -0.8859
   89RES    H9724913   6.535   5.098   3.837  0.5846  0.6012 -0.4845
   89RES    H9824914   6.606   5.211   3.951 -1.0509  3.6076 -0.4806
   89RES    H9924915   6.472   5.105   3.996  1.0220 -0.7587 -0.4074
   89RES   O10024916   6.142   5.358   3.913 -0.0008 -0.1640  0.8010
   89RES   C10124917   6.050   5.409   3.821  0.0487  0.2299  0.1459
   89RES   C10224918   5.919   5.330   3.832 -0.2099  0.1190 -0.2522
   89RES   C10324919   5.883   5.323   3.987 -0.2632  0.0202  0.3794
   89RES   O10424920   5.753   5.277   4.012  0.6755  0.0982 -0.1888
   89RES   C10524921   5.717   5.241   4.146  0.1581  0.3488 -0.9172
   89RES   H10624922   6.094   5.418   3.722 -1.0773  1.6576 -0.2459
   89RES   H10724923   6.026   5.508   3.859 -1.2737  0.1337 -0.4099
   89RES   H10824924   5.838   5.389   3.788 -0.0361  0.4612 -0.1146
   89RES   H10924925   5.885   5.423   4.031 -0.6860  0.4662 -0.5925
   89RES   H11024926   5.951   5.257   4.042  0.9185  1.0438  0.1892
   89RES   H11124927   5.664   5.146   4.155 -0.4547  0.6102 -1.7147
   89RES   H11224928   5.649   5.322   4.169 -0.2374 -0.3170  0.3315
   89RES   H11324929   5.801   5.248   4.216 -0.6220 -0.2265  0.0815
   89RES   O11424930   5.938   5.210   3.769  0.6412 -0.3594  0.6385
   89RES   C11524931   5.851   5.193   3.658 -0.0847 -0.3865 -0.1035
   89RES   C11624932   5.708   5.158   3.687 -0.3174  0.2183 -0.9221
   89RES   C11724933   5.631   5.157   3.554  0.5436  0.4419 -0.1586
   89RES   O11824934   5.506   5.207   3.579  0.3653  0.2308  0.2060
   89RES   C11924935   5.414   5.179   3.477 -0.2523 -0.0976 -0.1809
   89RES   H12024936   5.850   5.284   3.598 -1.7311  0.3501  1.0002
   89RES   H12124937   5.897   5.123   3.589 -1.8977 -0.4833 -1.2468
   89RES   H12224938   5.666   5.244   3.739  0.3430 -0.5676  0.9322
   89RES   H12324939   5.678   5.210   3.471 -0.4441 -1.2305 -1.8421
   89RES   H12424940   5.626   5.057   3.509 -1.1383  1.1078 -1.4920
   89RES   H12524941   5.316   5.206   3.515 -0.7419  0.6145 -1.8999
   89RES   H12624942   5.420   5.074   3.446 -4.5622 -0.0550 -1.4627
   89RES   H12724943   5.428   5.246   3.392 -3.5388  1.2442  0.2466
   89RES   O12824944   5.709   5.038   3.767  0.3714 -0.2628  0.0449
   89RES   C12924945   5.573   4.987   3.801 -0.0457  0.4910  0.2011
   89RES   C13024946   5.579   4.872   3.903  0.0927 -1.1847  0.5491
   89RES   C13124947   5.441   4.826   3.945  0.4805 -0.6531 -1.4872
   89RES   O13224948   5.378   4.928   4.025  0.3167  0.6011  0.6989
   89RES   C13324949   5.241   4.907   4.033 -0.2034  0.3476 -0.0938
   89RES   H13424950   5.507   5.070   3.828 -0.7640 -0.1664  0.4800
   89RES   H13524951   5.537   4.958   3.703  0.6351 -2.0402  0.6682
   89RES   H13624952   5.630   4.794   3.847 -0.4011  0.1150 -1.8309
   89RES   H13724953   5.448   4.740   4.012  0.7757 -0.9103 -1.8469
   89RES   H13824954   5.382   4.796   3.858 -0.3308  1.2165 -1.6014
   89RES   H13924955   5.195   4.887   3.936  0.7097 -0.5031 -0.3533
   89RES   H14024956   5.222   4.831   4.109  0.4725  0.4303  0.1584
   89RES   H14124957   5.206   4.999   4.081  1.1742  0.8461 -0.0358
   89RES   O14224958   5.653   4.911   4.020  0.1273  0.2325 -0.0114
   89RES   C14324959   5.791   4.896   4.018  0.5379 -0.8967 -0.4664
   89RES   C14424960   5.862   4.884   4.157  0.6816  0.3622 -0.3885
   89RES   C14524961   6.005   4.951   4.154  0.4692  0.2376 -0.3256
   89RES   O14624962   6.118   4.883   4.094 -0.2339 -0.3835  0.3580
   89RES   C14724963   6.151   4.946   3.974  0.1091  0.0699 -0.1750
   89RES   H14824964   5.830   4.812   3.960 -1.7580 -1.2259 -1.5856
   89RES   H14924965   5.817   4.984   3.959  1.0606 -1.8033 -1.6025
   89RES   H15024966   5.803   4.934   4.235  2.1040 -2.2636  2.4835
   89RES   H15124967   6.036   4.962   4.258 -2.5171 -0.0159  0.6578
   89RES   H15224968   6.002   5.058   4.130  0.7930  0.5287  0.8947
   89RES   H15324969   6.240   4.894   3.939  0.6794 -0.3203  1.7593
   89RES   H15424970   6.178   5.050   3.990 -1.1389  0.2790  0.6287
   89RES   H15524971   6.080   4.933   3.893  1.2691  1.3369 -1.4020
   89RES   O15624972   5.868   4.752   4.210 -0.1632 -0.1093  0.7500
   89RES   C15724973   5.734   4.702   4.231  0.7551 -0.5808  0.1033
   89RES   C15824974   5.728   4.586   4.337  0.5374  0.0438  0.0088
   89RES   C15924975   5.594   4.505   4.317 -1.1963 -0.6586 -0.0057
   89RES   O16024976   5.584   4.418   4.431  0.3504  0.1640 -0.0506
   89RES   C16124977   5.456   4.358   4.447  0.1707  0.0358  0.5252
   89RES   H16224978   5.660   4.768   4.275  0.9458  0.2190 -0.7688
   89RES   H16324979   5.710   4.665   4.131  0.9716  0.0291 -0.1750
   89RES   H16424980   5.809   4.513   4.333 -1.3937 -2.4242  2.7107
   89RES   H16524981   5.504   4.566   4.317 -0.2826  0.6886  1.1775
   89RES   H16624982   5.609   4.447   4.225  2.8937  1.0198 -0.4624
   89RES   H16724983   5.372   4.427   4.442 -1.1517 -1.5025  0.7596
   89RES   H16824984   5.446   4.303   4.541 -0.9816  1.0515  0.9996
   89RES   H16924985   5.441   4.291   4.362 -1.7938 -0.2388  1.0552
   89RES   O17024986   5.729   4.639   4.464 -0.0309  0.5730 -0.0414
   89RES   C17124987   5.848   4.705   4.502  0.4237 -0.1740 -0.3308
   89RES   C17224988   5.840   4.743   4.650  0.5995  0.2347  0.0194
   89RES   C17324989   5.971   4.818   4.698 -0.2637 -0.5408  0.2736
   89RES   O17424990   5.944   4.936   4.770 -0.3825 -0.3206 -0.7099
   89RES   C17524991   6.060   5.006   4.795  0.2710 -0.6429  0.1261
   89RES   H17624992   5.878   4.794   4.447 -0.9238  0.8692  0.5634
   89RES   H17724993   5.932   4.637   4.494 -0.8617 -1.9656  0.9585
   89RES   H17824994   5.750   4.801   4.670 -0.5413 -1.4328 -0.2632
   89RES   H17924995   6.039   4.755   4.754  0.3324 -0.2352 -0.0966
   89RES   H18024996   6.034   4.844   4.612  0.9376 -1.3416  0.9029
   89RES   H18124997   6.047   5.114   4.803 -2.4174 -0.9786  0.6418
   89RES   H18224998   6.135   5.006   4.716 -0.3302 -1.4746 -0.4459
   89RES   H18324999   6.109   4.957   4.879 -2.1575  0.9298  2.5582
   89RES   O18425000   5.823   4.627   4.727 -0.2568  0.1299  0.0633
   89RES   C18525001   5.793   4.644   4.864  0.1019 -0.1995  0.2731
   89RES   C18625002   5.656   4.567   4.898 -0.5546 -0.6073 -0.0446
   89RES   C18725003   5.610   4.597   5.040 -0.5707  0.0113  0.4158
   89RES   O18825004   5.477   4.554   5.066 -0.1581  0.5169 -0.4806
   89RES   C18925005   5.449   4.579   5.202 -0.0482 -0.4107  0.2449
   89RES   H19025006   5.781   4.748   4.894 -2.2799 -0.5648  0.6395
   89RES   H19125007   5.878   4.608   4.922  1.0132  2.3337  0.5908
   89RES   H19225008   5.583   4.615   4.834 -2.0180 -0.3235  1.7956
   89RES   H19325009   5.625   4.704   5.057  0.5153  0.0253 -0.5061
   89RES   H19425010   5.679   4.549   5.109  0.2192  0.0723 -0.3184
   89RES   H19525011   5.461   4.684   5.226  1.7893 -0.4594 -0.3661
   89RES   H19625012   5.347   4.542   5.199  0.5763 -2.0197 -3.1016
   89RES   H19725013   5.502   4.517   5.276 -1.1229 -0.7785  0.7186
   89RES   O19825014   5.658   4.430   4.903  0.3404  0.1778  0.1237
   89RES   C19925015   5.637   4.378   4.774  0.1592 -0.5259 -0.2930
   89RES   C20025016   5.605   4.229   4.796  0.5420 -0.3901  0.3473
   89RES   C20125017   5.654   4.143   4.678  0.4304  0.6549  0.0514
   89RES   O20225018   5.612   4.008   4.689  0.0903 -0.1520 -0.0127
   89RES   C20325019   5.659   3.922   4.584 -0.2964  0.2554 -1.3649
   89RES   H20425020   5.718   4.393   4.704  0.4867  0.0186  0.1926
   89RES   H20525021   5.555   4.430   4.724  0.8498 -0.0677 -0.9619
   89RES   H20625022   5.648   4.187   4.887  1.8618 -1.4607 -0.7505
   89RES   H20725023   5.620   4.197   4.590  1.1257  0.3335 -0.4118
   89RES   H20825024   5.762   4.145   4.672  0.4906 -1.2038  0.0868
   89RES   H20925025   5.764   3.897   4.594 -0.9172 -3.0672 -2.4326
   89RES   H21025026   5.664   3.970   4.487  1.2727  0.9801 -0.9381
   89RES   H21125027   5.604   3.827   4.584  1.5241 -0.8364  0.2382
   89RES   O21225028   5.458   4.216   4.803 -0.3921  0.2504 -0.2925
   89RES   C21325029   5.395   4.267   4.920  0.7266 -0.4158 -0.6770
   89RES   C21425030   5.248   4.219   4.917 -0.0100  0.7632  0.0083
   89RES   C21525031   5.174   4.318   5.011 -0.0152  0.0411  0.0698
   89RES   O21625032   5.037   4.310   4.988 -0.6405  0.1913  0.5769
   89RES   C21725033   4.967   4.397   5.077  0.0321  0.2809  0.7036
   89RES   H21825034   5.389   4.375   4.909  1.9152  0.0987  3.1227
   89RES   H21925035   5.454   4.251   5.010  0.6932 -0.3016 -0.6355
   89RES   H22025036   5.206   4.228   4.817 -0.8284 -2.6919 -0.0151
   89RES   H22125037   5.202   4.295   5.114  0.7320 -0.1337 -0.1684
   89RES   H22225038   5.199   4.422   4.992  0.1678 -0.3892 -2.1524
   89RES   H22325039   4.858   4.389   5.073  0.1098 -0.8873  0.5272
   89RES   H22425040   4.986   4.499   5.043  0.7905  0.3565  1.3466
   89RES   H22525041   5.005   4.387   5.178 -1.5946  0.5837  1.3550
   89RES   O22625042   5.234   4.082   4.969  0.2908 -0.8114  0.3561
   89RES   C22725043   5.279   3.992   4.872  0.0031 -0.2107  0.5120
   89RES   C22825044   5.220   3.853   4.900  0.6119 -0.8573 -0.0931
   89RES   C22925045   5.252   3.759   4.786 -0.5247  0.2045 -0.1134
   89RES   O23025046   5.137   3.676   4.753 -0.1110 -0.1170 -0.1727
   89RES   C23125047   5.045   3.741   4.665 -0.1153  0.4984 -0.6823
   89RES   H23225048   5.388   3.993   4.871 -0.0086  0.0226 -0.5976
   89RES   H23325049   5.246   4.017   4.771 -0.0282 -1.4132  0.2162
   89RES   H23425050   5.114   3.874   4.916  1.2583  3.0742 -0.3950
   89RES   H23525051   5.324   3.682   4.813 -0.5570 -0.0163 -0.6555
   89RES   H23625052   5.271   3.814   4.693  1.5643  0.1191  0.2268
   89RES   H23725053   4.957   3.677   4.653  0.8832 -1.5775  2.4998
   89RES   H23825054   5.094   3.753   4.568  0.6380 -0.3097 -0.4051
   89RES   H23925055   5.012   3.838   4.702  3.0278  1.2357  0.3244
   89RES   O24025056   5.274   3.807   5.030  0.2864  0.2211 -0.4836
   89RES   C24125057   5.185   3.704   5.079  0.4237  0.2992 -0.4668
   89RES   C24225058   5.251   3.642   5.200  0.2060 -0.0286  0.0363
   89RES   C24325059   5.150   3.553   5.275  0.1391  0.4282  0.3386
   89RES   O24425060   5.183   3.521   5.403 -0.0263  0.1780  0.3504
   89RES   C24525061   5.088   3.437   5.470  0.2799  0.1310  0.9414
   89RES   H24625062   5.138   3.639   5.005 -0.9725  0.5509  0.1918
   89RES   H24725063   5.100   3.761   5.117 -0.0829 -1.4150  0.9904
   89RES   H24825064   5.270   3.723   5.270 -2.7752  1.2688 -0.5896
   89RES   H24925065   5.050   3.594   5.293  0.6084  2.4939 -1.5020
   89RES   H25025066   5.127   3.461   5.222 -0.8548  2.2423 -2.4551
   89RES   H25125067   4.989   3.483   5.468 -1.3234 -3.2375 -0.5933
   89RES   H25225068   5.113   3.434   5.576 -1.9770 -0.2528  1.4787
   89RES   H25325069   5.079   3.330   5.454 -0.6034  0.3605 -0.1691
   89RES   O25425070   5.365   3.567   5.158 -0.4438  0.2462  0.0402
   89RES   C25525071   5.438   3.487   5.255  0.1737 -0.3999  0.2632
   89RES   C25625072   5.503   3.573   5.362 -0.6635 -0.7719  0.9810
   89RES   C25725073   5.538   3.488   5.481 -0.6072  0.6319 -0.1800
   89RES   O25825074   5.583   3.570   5.591  0.6031  0.0294  0.3082
   89RES   C25925075   5.490   3.576   5.696  1.0434  0.0370  0.4735
   89RES   H26025076   5.364   3.419   5.297 -0.1470  0.5671  1.3152
   89RES   H26125077   5.515   3.436   5.198  1.2987 -0.5892  1.9067
   89RES   H26225078   5.436   3.651   5.399 -1.0726  0.1621 -1.5624
   89RES   H26325079   5.449   3.433   5.511  0.3394  0.7149  3.0299
   89RES   H26425080   5.612   3.409   5.469  0.4934  1.3288  1.6732
   89RES   H26525081   5.407   3.635   5.659  1.3930  0.3937  0.2560
   89RES   H26625082   5.545   3.628   5.775  3.2181 -1.8814  0.2866
   89RES   H26725083   5.448   3.477   5.718  0.0748  0.3137 -0.1059
   89RES   O26825084   5.616   3.633   5.287 -0.0024  0.4524 -0.1003
   89RES   C26925085   5.693   3.731   5.350  0.0150 -0.3001  0.2765
   89RES   C27025086   5.767   3.810   5.240 -0.0053 -0.3128  0.5941
   89RES   C27125087   5.674   3.887   5.145 -0.0926 -1.0085 -0.1220
   89RES   O27225088   5.611   3.995   5.217  0.0407  0.6145 -0.2412
   89RES   C27325089   5.474   3.969   5.254 -0.1372  0.0576  0.2996
   89RES   H27425090   5.769   3.680   5.409  2.7974 -0.9847 -3.6544
   89RES   H27525091   5.645   3.797   5.422 -1.2981  2.2052 -2.7808
   89RES   H27625092   5.827   3.890   5.285 -0.8132  0.5262  0.2007
   89RES   H27725093   5.602   3.820   5.098 -1.6296  0.6138 -0.1628
   89RES   H27825094   5.737   3.948   5.080 -0.4046  1.6127  1.9216
   89RES   H27925095   5.432   4.059   5.299 -1.5151 -1.7319  2.7138
   89RES   H28025096   5.458   3.889   5.326 -2.0660 -0.0363 -0.2032
   89RES   H28125097   5.407   3.939   5.174 -0.9900  1.5393  0.4441
   89RES   H28225098   5.828   3.740   5.183  2.2327  0.3876  2.0396
   90RES     O125099   0.036   2.667   1.010  0.2530 -0.3066 -0.3790
   90RES     C225100   0.077   2.783   0.944 -0.6638  0.1505  0.4258
   90RES     C325101   0.097   2.770   0.796  0.1937  1.1312 -0.3465
   90RES     C425102   0.095   2.899   0.723 -0.6800 -0.0474 -0.3332
   90RES     O525103   0.046   2.873   0.589  0.2152 -0.3530  0.1018
   90RES     C625104   0.033   2.996   0.518 -0.3763 -0.1822  0.3468
   90RES     H725105   7.809   2.851   0.952  0.6342  2.0136 -1.0101
   90RES     H825106   0.163   2.833   0.986 -0.3883  2.9153 -3.1497
   90RES     H925107   0.018   2.702   0.764  1.4909 -1.5514  1.9091
   90RES    H1025108   0.184   2.962   0.733 -1.2386  0.8472 -0.8552
   90RES    H1125109   0.017   2.962   0.765 -1.2141 -0.6538 -0.4035
   90RES    H1225110   0.135   3.029   0.500 -0.8291  0.8445 -0.4176
   90RES    H1325111   7.812   2.990   0.417  3.1457 -2.1157 -0.9366
   90RES    H1425112   7.797   3.069   0.581  0.0092  0.6120 -0.2366
   90RES    H1525113   7.768   2.641   0.978 -0.7899  1.1591  1.1164
   90RES    O1625114   0.226   2.709   0.787 -0.1221  0.2227 -0.2923
   90RES    C1725115   0.224   2.610   0.691 -0.4416  0.2622  0.7507
   90RES    C1825116   0.325   2.502   0.726  0.1425 -0.2246  0.8218
   90RES    C1925117   0.276   2.408   0.840 -0.1763  0.0517  0.2582
   90RES    O2025118   0.384   2.333   0.882 -0.0840  0.1693 -0.2221
   90RES    C2125119   0.356   2.257   1.001 -0.0089 -0.0483  0.4331
   90RES    H2225120   0.253   2.653   0.594 -3.1902  3.8961  1.4310
   90RES    H2325121   0.131   2.555   0.692 -0.8066  0.8798  2.1756
   90RES    H2425122   0.416   2.560   0.745 -0.2026  1.7780 -3.1688
   90RES    H2525123   0.240   2.473   0.919  1.3432  1.9647 -0.5923
   90RES    H2625124   0.191   2.346   0.811 -1.3373  0.6487  2.3091
   90RES    H2725125   0.281   2.181   0.981 -0.4888  0.3233  0.7863
   90RES    H2825126   0.316   2.334   1.068  1.1124  0.9384 -0.0283
   90RES    H2925127   0.444   2.209   1.044  1.2046 -0.9223 -2.9231
   90RES    O3025128   0.342   2.415   0.614 -0.0953  0.6515 -0.1625
   90RES    C3125129   0.470   2.366   0.592 -0.8683 -0.9866 -0.5866
   90RES    C3225130   0.461   2.231   0.514  0.0409  0.0084  0.3180
   90RES    C3325131   0.391   2.250   0.380  0.6499 -0.2258 -0.4045
   90RES    O3425132   0.422   2.150   0.285  0.1701  0.1276  0.6352
   90RES    C3525133   0.356   2.027   0.303 -0.3133  0.0053 -0.4397
   90RES    H3625134   0.532   2.426   0.525 -0.2232  0.5953  1.3643
   90RES    H3725135   0.519   2.341   0.686 -0.9239 -1.2074 -0.6179
   90RES    H3825136   0.556   2.183   0.490 -1.0094 -1.5376 -0.8511
   90RES    H3925137   0.427   2.346   0.344  1.2059 -0.1069  0.4689
   90RES    H4025138   0.285   2.256   0.408  0.8688 -0.0603  0.3904
   90RES    H4125139   0.249   2.047   0.307 -0.5426 -1.2010 -0.1597
   90RES    H4225140   0.387   1.963   0.386  0.2426 -1.7471 -1.9553
   90RES    H4325141   0.387   1.971   0.215 -1.4348 -0.6682 -0.4082
   90RES    O4425142   0.389   2.143   0.587  0.2480 -0.1097  0.0446
   90RES    C4525143   0.455   2.054   0.679 -0.2699  0.5663 -0.4574
   90RES    C4625144   0.348   1.957   0.753 -0.5779  0.1403  0.1500
   90RES    C4725145   0.310   1.827   0.678  0.4425 -0.3691  0.0436
   90RES    O4825146   0.201   1.765   0.742  0.5322  0.1206 -0.0787
   90RES    C4925147   0.161   1.648   0.688 -0.7223 -0.2520  0.7946
   90RES    H5025148   0.515   2.104   0.754 -1.2515 -0.7566  1.2534
   90RES    H5125149   0.519   1.985   0.625 -1.1999 -0.3428 -0.4269
   90RES    H5225150   0.261   2.018   0.776 -0.4807 -0.2533  1.5495
   90RES    H5325151   0.269   1.865   0.584 -0.3669 -1.2451  0.0308
   90RES    H5425152   0.395   1.765   0.649 -1.4493 -2.4236 -1.2490
   90RES    H5525153   0.252   1.591   0.667  0.0382  0.9921  0.7039
   90RES    H5625154   0.103   1.661   0.596  1.9569  1.1190 -0.7494
   90RES    H5725155   0.097   1.601   0.763 -1.7239 -2.3709 -1.3319
   90RES    O5825156   0.417   1.918   0.870  0.3000  0.6370 -0.7846
   90RES    C5925157   0.324   1.910   0.983  0.2586  0.0502 -0.1481
   90RES    C6025158   0.399   1.884   1.111  0.0869 -0.0678  0.5993
   90RES    C6125159   0.301   1.827   1.215 -0.2406 -0.1539 -0.0274
   90RES    O6225160   0.376   1.783   1.333 -0.0482  0.2716 -0.4666
   90RES    C6325161   0.303   1.706   1.433 -0.1412 -0.3979 -0.4727
   90RES    H6425162   0.262   1.822   0.971 -0.3881  0.3127  1.2014
   90RES    H6525163   0.251   1.990   0.993  2.4742  2.0296  0.7878
   90RES    H6625164   0.481   1.816   1.091  0.1498 -0.1563  1.1561
   90RES    H6725165   0.213   1.884   1.244 -0.1459  0.8556 -1.6472
   90RES    H6825166   0.260   1.734   1.176 -1.2112 -0.0284  0.6866
   90RES    H6925167   0.195   1.719   1.441 -0.1873 -1.3371  0.5636
   90RES    H7025168   0.355   1.736   1.524  1.9273 -1.0384 -1.4078
   90RES    H7125169   0.312   1.600   1.410 -1.8022 -0.8801  0.9691
   90RES    O7225170   0.453   2.007   1.154 -0.4165  0.1347 -0.3580
   90RES    C7325171   0.575   1.990   1.230  0.6743 -0.9381 -0.2196
   90RES    C7425172   0.586   2.123   1.305 -0.4786  0.1884  0.2767
   90RES    C7525173   0.726   2.147   1.377 -0.9093  0.4038 -0.4401
   90RES    O7625174   0.737   2.287   1.396 -0.2589 -0.6032 -0.2196
   90RES    C7725175   0.870   2.322   1.438 -0.7245  0.1185 -0.4267
   90RES    H7825176   0.581   1.899   1.290  0.4100 -0.3855  0.6420
   90RES    H7925177   0.659   1.994   1.161 -0.3643 -1.2959 -1.5461
   90RES    H8025178   0.558   2.205   1.239  0.0395  2.4002  2.7318
   90RES    H8125179   0.802   2.114   1.306  0.2651  0.4162  0.7907
   90RES    H8225180   0.736   2.089   1.468  2.0641  0.1277 -0.8802
   90RES    H8325181   0.945   2.285   1.368 -0.4863  0.3449 -0.2918
   90RES    H8425182   0.872   2.275   1.537  0.4457 -0.1514 -0.5700
   90RES    H8525183   0.883   2.430   1.438 -1.0081  0.1595  0.8641
   90RES    O8625184   0.492   2.121   1.414  0.1049  0.6002 -0.2251
   90RES    C8725185   0.369   2.195   1.397  0.0396  0.4681 -0.3460
   90RES    C8825186   0.402   2.345   1.421  0.2945  0.1068  0.1299
   90RES    C8925187   0.282   2.435   1.373 -0.7124 -0.6668  0.2863
   90RES    O9025188   0.322   2.565   1.351  0.1064  0.2945 -0.0589
   90RES    C9125189   0.215   2.659   1.346  0.1657 -0.5982  0.2660
   90RES    H9225190   0.336   2.174   1.296 -1.4514  0.7176  0.0816
   90RES    H9325191   0.289   2.177   1.469  0.0324  0.2928 -0.3989
   90RES    H9425192   0.490   2.377   1.366  0.2698  0.3278  0.2148
   90RES    H9525193   0.230   2.401   1.283 -0.7964 -1.8090  0.7540
   90RES    H9625194   0.211   2.423   1.455  1.3972  0.1177  2.2474
   90RES    H9725195   0.250   2.758   1.376  1.2264 -1.3383  1.5166
   90RES    H9825196   0.177   2.662   1.244 -2.8647  0.4464  1.3743
   90RES    H9925197   0.131   2.630   1.409  0.6717 -1.5839  0.4881
   90RES   O10025198   0.422   2.373   1.564  0.1976 -0.1225 -0.4220
   90RES   C10125199   0.551   2.338   1.615  0.6647 -0.1344 -0.4389
   90RES   C10225200   0.555   2.339   1.770  0.4426 -0.1222 -0.6887
   90RES   C10325201   0.702   2.348   1.814 -0.1631  0.1811 -0.0008
   90RES   O10425202   0.722   2.381   1.945 -0.3202  0.3534  0.3655
   90RES   C10525203   0.700   2.515   1.979 -0.1856 -0.4572 -0.1294
   90RES   H10625204   0.605   2.425   1.580 -0.9749  0.7270 -0.9028
   90RES   H10725205   0.596   2.246   1.578  1.5373  0.3585 -0.5880
   90RES   H10825206   0.502   2.430   1.799  1.2736 -0.0059  0.4774
   90RES   H10925207   0.768   2.404   1.748  1.6558 -1.5510  0.3230
   90RES   H11025208   0.731   2.244   1.805  0.8125  0.6914 -3.2093
   90RES   H11125209   0.745   2.592   1.915  0.1671 -2.4361 -2.3307
   90RES   H11225210   0.727   2.531   2.083 -1.1506  0.9946 -0.0854
   90RES   H11325211   0.598   2.547   1.958 -0.0297  0.3124  0.2738
   90RES   O11425212   0.495   2.219   1.817 -0.3848 -0.1066  0.2009
   90RES   C11525213   0.424   2.233   1.934  0.6679  0.2697 -0.2731
   90RES   C11625214   0.314   2.122   1.956  0.5122  0.0763 -0.1844
   90RES   C11725215   0.294   2.078   2.099 -0.3608  0.0378 -0.5470
   90RES   O11825216   0.248   1.945   2.091 -0.0322  0.0195  0.5055
   90RES   C11925217   0.193   1.891   2.211  0.2618 -0.5596 -0.1148
   90RES   H12025218   0.496   2.246   2.014 -0.4525  0.1618  0.7711
   90RES   H12125219   0.369   2.327   1.927 -2.8040 -1.8314 -2.6531
   90RES   H12225220   0.345   2.037   1.896  0.7789 -0.6031  0.9053
   90RES   H12325221   0.390   2.073   2.149 -1.6463 -0.4701  1.9637
   90RES   H12425222   0.236   2.133   2.173  0.1704 -1.0513  0.7008
   90RES   H12525223   0.269   1.903   2.288  0.2538 -1.6823  0.0709
   90RES   H12625224   0.186   1.784   2.191  1.2178 -0.3504 -1.5849
   90RES   H12725225   0.099   1.939   2.239  0.9920  0.8936 -0.1006
   90RES   O12825226   0.198   2.182   1.904  0.4222  0.1036 -0.0918
   90RES   C12925227   0.193   2.173   1.766 -0.4790  0.2180 -0.5792
   90RES   C13025228   0.098   2.277   1.700 -0.8173  0.1067  0.6891
   90RES   C13125229   0.114   2.423   1.750  0.1828  0.0958 -0.0529
   90RES   O13225230   0.073   2.511   1.648  0.5963 -0.3089 -0.3467
   90RES   C13325231   7.759   2.561   1.659  0.1997  0.0356  0.2054
   90RES   H13425232   0.290   2.193   1.721  0.6504  1.1472  2.1185
   90RES   H13525233   0.173   2.070   1.738  0.4063 -0.2631  0.5100
   90RES   H13625234   0.118   2.284   1.593  1.7331  1.2090  1.2034
   90RES   H13725235   0.218   2.453   1.763 -0.2239  2.2363 -1.3944
   90RES   H13825236   0.060   2.433   1.844 -0.7977 -0.4698 -0.5567
   90RES   H13925237   7.691   2.485   1.698 -0.6447  0.5353 -0.2610
   90RES   H14025238   7.768   2.643   1.731 -0.7528  0.0369  0.3404
   90RES   H14125239   7.709   2.603   1.572 -1.4876 -2.8928 -0.3140
   90RES   O14225240   7.777   2.240   1.692 -0.7078  0.2069 -0.2098
   90RES   C14325241   7.721   2.193   1.813  0.0924  0.3789  0.3407
   90RES   C14425242   7.573   2.147   1.783 -0.1688  0.7561  0.3166
   90RES   C14525243   7.516   2.101   1.916 -0.7398 -0.0519 -0.4124
   90RES   O14625244   7.373   2.078   1.902 -0.1354 -0.4985 -0.3591
   90RES   C14725245   7.302   2.061   2.023  0.0903 -0.0750 -0.2774
   90RES   H14825246   7.776   2.118   1.869 -0.2624 -1.3275 -1.4925
   90RES   H14925247   7.709   2.281   1.875  2.0643  0.0993  1.1363
   90RES   H15025248   7.525   2.239   1.750 -1.7820 -0.2658 -0.2141
   90RES   H15125249   7.526   2.174   1.997 -2.9228 -0.3737  0.1687
   90RES   H15225250   7.569   2.009   1.942 -1.9900 -1.4585 -2.6623
   90RES   H15325251   7.201   2.035   1.991  0.0385 -0.2827  0.0569
   90RES   H15425252   7.309   2.147   2.090  0.4150 -0.2748 -0.0521
   90RES   H15525253   7.339   1.978   2.083 -1.3586 -1.3769 -1.1118
   90RES   O15625254   7.581   2.052   1.681 -0.1885  0.0671 -0.4280
   90RES   C15725255   7.462   2.002   1.625 -0.7221 -0.1156 -0.7558
   90RES   C15825256   7.486   1.977   1.472  0.5841 -0.4633  0.1303
   90RES   C15925257   7.353   1.992   1.390  0.2711 -0.1365 -0.3386
   90RES   O16025258   7.370   2.015   1.247 -0.3096 -0.2943 -0.1193
   90RES   C16125259   7.270   1.953   1.164 -0.8687 -0.3045  0.4164
   90RES   H16225260   7.416   1.917   1.675  0.4258  0.2891  1.0415
   90RES   H16325261   7.390   2.084   1.625 -1.6392 -0.9046 -0.4142
   90RES   H16425262   7.540   2.068   1.445 -0.8539 -0.4372 -2.8814
   90RES   H16525263   7.288   1.906   1.411  0.7988 -0.8747 -1.6492
   90RES   H16625264   7.297   2.076   1.430 -0.9375 -1.5302  0.9930
   90RES   H16725265   7.271   1.992   1.062 -0.6378 -1.0223  0.1371
   90RES   H16825266   7.169   1.941   1.203 -0.0809 -1.6791  2.1036
   90RES   H16925267   7.301   1.849   1.156 -0.0913 -0.0911  0.6310
   90RES   O17025268   7.558   1.856   1.440 -0.2077 -0.6454  0.2073
   90RES   C17125269   7.693   1.854   1.488 -0.0081 -0.1156  0.3550
   90RES   C17225270   7.697   1.754   1.609 -0.1798  0.0628  0.1586
   90RES   C17325271   7.812   1.801   1.701  0.4396 -0.4559 -0.0033
   90RES   O17425272   0.002   1.711   1.813 -0.0565 -0.5903  0.2518
   90RES   C17525273   0.098   1.764   1.906  0.2396 -0.0242  0.0501
   90RES   H17625274   7.732   1.954   1.510  0.4030 -0.2599  0.2977
   90RES   H17725275   7.756   1.832   1.402  1.5429 -0.4168  1.5476
   90RES   H17825276   7.606   1.758   1.670 -1.8384 -0.8741 -2.1806
   90RES   H17925277   0.090   1.798   1.648  0.3650 -1.5740 -0.0979
   90RES   H18025278   7.795   1.905   1.729  2.9708 -0.7493  2.7754
   90RES   H18125279   0.183   1.817   1.864  0.3564 -1.3044 -1.3999
   90RES   H18225280   0.137   1.689   1.975  0.1455  0.0246  0.1559
   90RES   H18325281   0.041   1.840   1.958 -1.1826 -0.1596 -1.2751
   90RES   O18425282   7.719   1.622   1.558  0.2544 -0.2976 -0.5488
   90RES   C18525283   7.645   1.519   1.619  0.0913  0.0127  0.4090
   90RES   C18625284   7.680   1.367   1.575  0.0439 -0.3870 -0.2836
   90RES   C18725285   7.570   1.261   1.588 -0.2032  0.2771  0.1831
   90RES   O18825286   7.605   1.149   1.500  0.1969 -0.1807  0.0970
   90RES   C18925287   7.520   1.034   1.519  0.3339  0.6454 -0.2061
   90RES   H19025288   7.539   1.526   1.592 -0.5803  0.2827  3.0064
   90RES   H19125289   7.665   1.515   1.726  0.3804 -0.7394  0.3278
   90RES   H19225290   7.691   1.358   1.467  1.2526 -0.8345 -0.1348
   90RES   H19325291   7.472   1.300   1.560  0.0244 -0.1703 -1.2645
   90RES   H19425292   7.553   1.233   1.691 -2.3839  0.3658 -0.1318
   90RES   H19525293   7.564   0.950   1.465 -1.1894 -0.2728 -0.0662
   90RES   H19625294   7.521   1.004   1.624  0.8087  0.7229 -0.1882
   90RES   H19725295   7.419   1.067   1.493 -0.0076 -1.2940 -1.4725
   90RES   O19825296   7.800   1.319   1.634 -0.1208  0.3417 -0.7241
   90RES   C19925297   0.095   1.406   1.642 -0.4748 -0.3131 -0.9788
   90RES   C20025298   0.211   1.338   1.719 -0.2140 -0.0537  0.5017
   90RES   C20125299   0.256   1.204   1.667 -0.3758  0.5389  0.2688
   90RES   O20225300   0.390   1.194   1.695 -0.1411 -0.0226 -0.1060
   90RES   C20325301   0.437   1.062   1.664 -0.3970 -0.0117 -0.5422
   90RES   H20425302   0.082   1.499   1.697 -0.8797  0.1085 -1.7721
   90RES   H20525303   0.129   1.432   1.541  2.3548  0.9386  0.2354
   90RES   H20625304   0.294   1.408   1.718  0.5265 -0.8828 -2.0415
   90RES   H20725305   0.195   1.121   1.702 -0.6803  0.0334 -1.4185
   90RES   H20825306   0.233   1.207   1.561  0.4437  0.7566  0.0871
   90RES   H20925307   0.400   1.024   1.569  0.8549 -1.1100 -0.6229
   90RES   H21025308   0.408   0.990   1.741 -0.6540 -1.9368 -2.3982
   90RES   H21125309   0.546   1.057   1.664 -0.3874  0.0763 -1.9955
   90RES   O21225310   0.162   1.321   1.853  0.5212 -0.2940 -0.6701
   90RES   C21325311   0.260   1.310   1.954  1.0718  0.1944 -0.5343
   90RES   C21425312   0.207   1.395   2.064  0.1316 -0.3149 -0.2002
   90RES   C21525313   0.307   1.415   2.184 -0.3531 -0.0028 -0.5093
   90RES   O21625314   0.254   1.500   2.283  0.3791  0.3028 -0.0916
   90RES   C21725315   0.343   1.502   2.400 -0.0488  0.2287  0.2962
   90RES   H21825316   0.355   1.356   1.930  1.5212 -1.0761 -1.2503
   90RES   H21925317   0.262   1.214   2.006  0.5817  0.8276  0.6838
   90RES   H22025318   0.183   1.493   2.024  1.5480 -0.0266 -0.3499
   90RES   H22125319   0.341   1.322   2.230  1.8203  0.5732 -0.9046
   90RES   H22225320   0.394   1.469   2.147 -0.9982  1.0424 -0.4904
   90RES   H22325321   0.357   1.413   2.461  0.5082  0.5309  0.6046
   90RES   H22425322   0.281   1.572   2.456 -1.1620  0.1186 -0.7566
   90RES   H22525323   0.442   1.536   2.369  1.0990 -2.9639  0.2630
   90RES   O22625324   0.093   1.332   2.118  0.6661 -0.5396 -0.5150
   90RES   C22725325   7.781   1.371   2.062  0.1405  1.0209 -0.5004
   90RES   C22825326   7.672   1.314   2.144 -0.1212  0.6240 -0.9359
   90RES   C22925327   7.655   1.383   2.274  0.6689 -0.8461 -0.0154
   90RES   O23025328   7.594   1.302   2.377 -0.2069  0.3343  0.1583
   90RES   C23125329   7.605   1.375   2.502  0.2329 -0.1283 -0.5525
   90RES   H23225330   7.792   1.325   1.964 -1.6642  0.9771 -0.7006
   90RES   H23325331   7.772   1.480   2.057  0.5547  1.0595 -0.4356
   90RES   H23425332   7.703   1.213   2.173  0.7146  1.5196  1.4125
   90RES   H23525333   7.590   1.469   2.255  0.2989 -1.5138 -1.8556
   90RES   H23625334   7.742   1.434   2.316 -0.5667  0.1740  1.3539
   90RES   H23725335   7.558   1.473   2.503  0.8300  0.1527  0.1041
   90RES   H23825336   7.711   1.382   2.526 -0.4762 -0.1171  2.9213
   90RES   H23925337   7.559   1.317   2.582  0.0895 -0.7725 -1.0993
   90RES   O24025338   7.556   1.302   2.058  0.1977  0.2613  0.0071
   90RES   C24125339   7.444   1.244   2.126 -0.2678  0.4104  0.8417
   90RES   C24225340   7.336   1.229   2.015 -0.0975 -0.7328 -0.0390
   90RES   C24325341   7.298   1.361   1.949  0.0261  0.4749  0.0368
   90RES   O24425342   7.173   1.331   1.891  0.3685 -0.6230  0.5862
   90RES   C24525343   7.118   1.441   1.824  0.3182 -0.1367  0.5096
   90RES   H24625344   7.412   1.306   2.210 -0.2462  0.8569  0.5193
   90RES   H24725345   7.473   1.150   2.173 -1.7850  0.5187  2.0349
   90RES   H24825346   7.245   1.180   2.048 -1.1872 -2.0289 -4.6723
   90RES   H24925347   7.286   1.439   2.024  3.1049  1.6889 -0.6221
   90RES   H25025348   7.379   1.406   1.891 -1.6217  1.8032 -1.2617
   90RES   H25125349   7.018   1.421   1.786 -0.1387  3.8076 -0.6141
   90RES   H25225350   7.181   1.477   1.743 -1.5604  2.1787  0.0185
   90RES   H25325351   7.111   1.525   1.892 -2.2565 -0.6811  0.9934
   90RES   O25425352   7.393   1.140   1.916  0.1543 -0.0885 -0.0430
   90RES   C25525353   7.292   1.056   1.856  0.1739 -0.4380  0.5639
   90RES   C25625354   7.285   0.916   1.919 -0.7555 -0.3687 -0.3460
   90RES   C25725355   7.408   0.834   1.899 -0.4041  0.5170  0.4589
   90RES   O25825356   7.395   0.694   1.893  0.3346  0.0975  0.0675
   90RES   C25925357   7.344   0.634   2.006 -0.4655 -0.5286 -0.0243
   90RES   H26025358   7.193   1.096   1.834  0.2071 -0.1740  0.8929
   90RES   H26125359   7.333   1.040   1.756 -2.4721 -1.1406 -0.4367
   90RES   H26225360   7.207   0.862   1.866 -0.4073 -0.2968 -0.9416
   90RES   H26325361   7.458   0.872   1.810 -0.3861 -0.5558  0.0073
   90RES   H26425362   7.477   0.853   1.981 -1.0439 -1.6472  1.5431
   90RES   H26525363   7.383   0.684   2.095 -0.8815  0.5942 -0.4712
   90RES   H26625364   7.379   0.531   2.009 -2.0052 -1.0315  1.7996
   90RES   H26725365   7.235   0.637   2.011 -0.4769  1.9001 -0.8023
   90RES   O26825366   7.251   0.910   2.060 -0.8273 -0.7292 -0.3665
   90RES   C26925367   7.110   0.907   2.083 -0.0899  0.4152  0.6919
   90RES   C27025368   7.088   0.883   2.234 -0.3686 -0.1152  0.2968
   90RES   C27125369   7.131   0.745   2.277  0.0665  0.6192  0.3020
   90RES   O27225370   7.039   0.649   2.231 -0.3476 -0.0337 -0.0757
   90RES   C27325371   7.076   0.517   2.268 -0.3757 -0.8316  0.1114
   90RES   H27425372   7.066   0.830   2.019 -2.2044  2.1615 -0.0144
   90RES   H27525373   7.061   0.999   2.053  0.5736  0.7584  0.6549
   90RES   H27625374   7.129   0.972   2.281 -1.8513 -0.6070  2.6176
   90RES   H27725375   7.141   0.735   2.385 -0.3353  1.9266  0.4711
   90RES   H27825376   7.228   0.715   2.238 -0.9893 -1.0962 -1.0394
   90RES   H27925377   7.177   0.490   2.238 -0.2087  0.0688 -0.1657
   90RES   H28025378   7.005   0.447   2.224 -2.1688  0.4815  0.8344
   90RES   H28125379   7.060   0.496   2.373 -0.4320  1.6241  0.6255
   90RES   H28225380   6.983   0.904   2.257 -0.2372  1.0178 -0.1069
   91RES     O125381   7.754   4.999   3.961  0.5759 -0.4115 -0.5346
   91RES     C225382   7.691   5.008   3.835  0.2861  0.3464 -0.4892
   91RES     C325383   7.542   4.981   3.848 -0.0385  0.2152  0.1736
   91RES     C425384   7.467   5.026   3.726  0.8507 -0.3021  0.8542
   91RES     O525385   7.334   5.004   3.749 -0.5153  0.0248  0.5495
   91RES     C625386   7.249   4.982   3.641 -0.7391 -0.3390 -0.3963
   91RES     H725387   7.713   5.110   3.803  0.7428  0.1091 -0.9548
   91RES     H825388   7.746   4.946   3.764 -1.3327 -1.5704 -0.1189
   91RES     H925389   7.508   5.049   3.927 -1.9851  1.3216 -1.5649
   91RES    H1025390   7.506   4.979   3.635  1.2499  1.4491  0.0996
   91RES    H1125391   7.473   5.134   3.715 -3.7480 -0.0235  0.0953
   91RES    H1225392   7.249   5.062   3.566 -0.2390  0.6553  0.6348
   91RES    H1325393   7.272   4.886   3.596  1.2147 -0.0663 -0.0444
   91RES    H1425394   7.152   4.991   3.689 -0.9108  0.6635 -0.9153
   91RES    H1525395   7.739   4.914   4.001  2.0182  0.0854  1.1193
   91RES    O1625396   7.525   4.839   3.870  0.2976 -0.0847 -1.1388
   91RES    C1725397   7.503   4.809   4.008  0.2086 -0.0262 -0.4739
   91RES    C1825398   7.505   4.662   4.047  0.5257  0.0859 -0.3079
   91RES    C1925399   7.473   4.630   4.193  0.6058  1.1288  0.1901
   91RES    O2025400   7.536   4.499   4.218  0.4769 -0.6381  0.5769
   91RES    C2125401   7.444   4.391   4.192 -0.2986 -0.1952  0.0511
   91RES    H2225402   7.398   4.835   4.017  0.2407 -0.1962  0.4347
   91RES    H2325403   7.569   4.861   4.077  1.2775 -1.8997 -0.0751
   91RES    H2425404   7.599   4.609   4.030  0.2656 -0.4410 -0.1148
   91RES    H2525405   7.510   4.710   4.258  1.8425  0.9155 -0.2315
   91RES    H2625406   7.370   4.614   4.222  1.1099 -1.5935  0.6500
   91RES    H2725407   7.456   4.345   4.093 -2.2614 -0.6036 -0.0108
   91RES    H2825408   7.339   4.420   4.188  0.1028  1.2604 -0.1735
   91RES    H2925409   7.466   4.315   4.267 -0.2240 -1.0950 -0.8672
   91RES    O3025410   7.400   4.587   3.983 -0.1182 -0.3439 -0.1101
   91RES    C3125411   7.430   4.542   3.849 -0.3456 -0.7172 -0.4973
   91RES    C3225412   7.338   4.425   3.815  0.5377 -0.7799 -0.0815
   91RES    C3325413   7.402   4.345   3.702 -0.8709  0.4158 -0.1929
   91RES    O3425414   7.535   4.302   3.744 -0.4134  0.2721  0.3128
   91RES    C3525415   7.606   4.242   3.636 -0.3857 -0.0926 -0.6441
   91RES    H3625416   7.425   4.629   3.783  0.5723 -0.4073 -0.1720
   91RES    H3725417   7.533   4.507   3.848  0.7658  2.3531 -2.7156
   91RES    H3825418   7.330   4.348   3.891 -2.9941 -1.0358 -0.6045
   91RES    H3925419   7.407   4.405   3.611 -2.4841  0.6390 -0.1450
   91RES    H4025420   7.346   4.256   3.674 -0.0118  0.2397 -1.4105
   91RES    H4125421   7.711   4.225   3.659 -1.3558 -3.5418  1.7835
   91RES    H4225422   7.620   4.307   3.550  4.1584  1.2001  0.9306
   91RES    H4325423   7.557   4.146   3.623  0.3026 -0.7812  1.5437
   91RES    O4425424   7.225   4.477   3.751 -0.6974 -0.0184  0.3649
   91RES    C4525425   7.113   4.508   3.838 -0.4208  0.2185 -0.4351
   91RES    C4625426   6.992   4.521   3.740 -1.0901 -0.1153 -0.0233
   91RES    C4725427   6.865   4.560   3.820  0.1870  0.2545  1.1374
   91RES    O4825428   6.757   4.495   3.761 -0.3385 -0.2526 -0.4576
   91RES    C4925429   6.638   4.501   3.841 -0.6480 -0.8951  0.3766
   91RES    H5025430   7.140   4.604   3.881 -1.3704  0.7789 -1.0909
   91RES    H5125431   7.098   4.430   3.914 -1.3481 -0.2777 -1.1251
   91RES    H5225432   6.968   4.423   3.699  0.3241  0.5713 -2.6048
   91RES    H5325433   6.871   4.526   3.923  1.8431 -0.3967  0.8469
   91RES    H5425434   6.856   4.668   3.828  0.4183  0.3175  0.6228
   91RES    H5525435   6.565   4.442   3.785 -2.1149  0.1887  1.0820
   91RES    H5625436   6.603   4.602   3.860 -0.5125 -0.6074 -0.8827
   91RES    H5725437   6.653   4.446   3.934 -0.6681  0.4782  1.1958
   91RES    O5825438   7.023   4.611   3.638  0.2052  0.3376  0.1397
   91RES    C5925439   6.944   4.590   3.516 -0.4904  0.9536 -0.3876
   91RES    C6025440   6.993   4.683   3.405 -0.3520  0.1295  0.0447
   91RES    C6125441   7.141   4.681   3.370  0.2217  0.0973  0.8459
   91RES    O6225442   7.171   4.746   3.244  0.5429 -0.2264  0.6035
   91RES    C6325443   7.309   4.740   3.224  0.5335  0.1724  0.1950
   91RES    H6425444   6.840   4.609   3.541  0.1556  0.7365  2.6807
   91RES    H6525445   6.952   4.487   3.479 -2.1783  0.0904  1.5499
   91RES    H6625446   6.948   4.657   3.310  0.5443  0.4468 -0.4689
   91RES    H6725447   7.214   4.705   3.447 -1.0536  0.0707  2.0832
   91RES    H6825448   7.175   4.579   3.350 -0.4334 -0.3303  1.8523
   91RES    H6925449   7.348   4.640   3.204 -0.2115 -0.0565 -0.1453
   91RES    H7025450   7.357   4.786   3.310  1.0804 -0.2794  0.1329
   91RES    H7125451   7.321   4.799   3.133  1.2157  0.8227  0.7071
   91RES    O7225452   6.969   4.820   3.456 -0.0472 -0.7156  0.5333
   91RES    C7325453   6.832   4.857   3.436 -0.8639 -0.5630 -0.0493
   91RES    C7425454   6.846   5.007   3.394 -0.3611 -0.1667  0.3115
   91RES    C7525455   6.719   5.074   3.453 -0.4094  1.0977  1.1317
   91RES    O7625456   6.744   5.215   3.459  0.5728 -0.2248 -0.0050
   91RES    C7725457   6.670   5.287   3.563 -0.0569  0.0523 -1.0875
   91RES    H7825458   6.785   4.801   3.355 -2.5600  1.5960 -0.6029
   91RES    H7925459   6.765   4.825   3.515  0.1980 -1.1110  0.6351
   91RES    H8025460   6.934   5.057   3.435 -1.0952  0.3039  1.3314
   91RES    H8125461   6.701   5.036   3.554  0.8933 -0.3620  0.8317
   91RES    H8225462   6.625   5.050   3.403 -0.2272  0.6419  1.0110
   91RES    H8325463   6.723   5.270   3.656  0.4559 -0.4500 -1.4698
   91RES    H8425464   6.563   5.267   3.570 -0.4084  1.8486 -0.8885
   91RES    H8525465   6.676   5.393   3.538  0.6333  0.4950  0.8872
   91RES    O8625466   6.844   5.037   3.253 -0.3251  0.3248 -0.1292
   91RES    C8725467   6.966   5.004   3.187  0.6979  0.9548 -0.0461
   91RES    C8825468   6.972   5.071   3.051  0.0013  0.7201  0.3719
   91RES    C8925469   7.119   5.099   3.009  0.3414 -0.3651 -0.7055
   91RES    O9025470   7.133   5.203   2.917  0.3399 -0.4188 -0.4367
   91RES    C9125471   7.073   5.187   2.790 -0.3152 -0.7520  0.0281
   91RES    H9225472   7.051   5.035   3.248  1.9461  1.4470 -2.0028
   91RES    H9325473   6.959   4.895   3.182 -0.0582  0.9661  0.5210
   91RES    H9425474   6.917   5.164   3.062 -1.0209  0.2391 -0.5247
   91RES    H9525475   7.174   5.128   3.098 -0.8844 -0.4466  0.0834
   91RES    H9625476   7.169   5.013   2.964  0.6566 -0.0686 -0.9304
   91RES    H9725477   6.964   5.199   2.786 -0.0547  1.6500 -0.5573
   91RES    H9825478   7.114   5.264   2.725 -1.8409 -0.9849 -1.2396
   91RES    H9925479   7.104   5.089   2.755  2.1097 -0.7182  1.9802
   91RES   O10025480   6.909   5.001   2.944  0.0084 -0.1130  0.3809
   91RES   C10125481   6.771   4.981   2.966  0.1997 -1.3247  0.4705
   91RES   C10225482   6.689   4.938   2.840 -0.3333 -1.2508 -0.2056
   91RES   C10325483   6.544   4.899   2.892 -0.5275 -1.1347  0.1951
   91RES   O10425484   6.446   4.880   2.795 -0.0518 -0.1115  0.0277
   91RES   C10525485   6.395   5.000   2.742  0.6263  0.1973 -0.1315
   91RES   H10625486   6.722   5.066   3.014 -1.3177 -2.6524  1.3252
   91RES   H10725487   6.759   4.905   3.043  0.3327 -1.5062  0.3095
   91RES   H10825488   6.693   5.006   2.755 -1.2922 -1.0744 -0.1132
   91RES   H10925489   6.510   4.965   2.972 -0.5919  0.2292 -0.9444
   91RES   H11025490   6.562   4.804   2.943  1.1345 -1.5782 -1.1937
   91RES   H11125491   6.322   4.975   2.664 -1.1414 -0.1625  1.5997
   91RES   H11225492   6.475   5.060   2.699 -0.1330 -0.1947 -2.1988
   91RES   H11325493   6.361   5.069   2.819 -2.4509 -0.8467 -0.4644
   91RES   O11425494   6.737   4.816   2.789  0.3780  0.1076 -0.0808
   91RES   C11525495   6.678   4.768   2.669  0.5078  0.1968 -0.1029
   91RES   C11625496   6.757   4.646   2.612  0.8378  0.1871 -0.6264
   91RES   C11725497   6.732   4.504   2.665 -0.1236 -0.5302 -0.0018
   91RES   O11825498   6.844   4.417   2.645  0.1439 -0.0534 -0.1727
   91RES   C11925499   6.832   4.286   2.698  0.0667  0.2319 -0.4171
   91RES   H12025500   6.574   4.744   2.694  0.4437  2.0480  1.5875
   91RES   H12125501   6.678   4.846   2.592 -0.5179 -0.2792 -0.5920
   91RES   H12225502   6.861   4.678   2.621  0.9367 -0.5489  1.0610
   91RES   H12325503   6.708   4.518   2.771 -1.1283 -0.5425 -0.2240
   91RES   H12425504   6.644   4.454   2.626 -0.2463  1.2900 -2.1827
   91RES   H12525505   6.829   4.279   2.807  0.4052 -2.2173 -0.5356
   91RES   H12625506   6.910   4.230   2.646 -1.2310 -2.2792  0.2166
   91RES   H12725507   6.735   4.250   2.663 -1.1213  3.7210 -0.9127
   91RES   O12825508   6.732   4.643   2.475  0.1070 -0.3201  0.3466
   91RES   C12925509   6.832   4.591   2.387 -0.1624 -0.6388 -0.6883
   91RES   C13025510   6.780   4.602   2.243 -0.2311 -0.1814 -0.8080
   91RES   C13125511   6.813   4.490   2.150  0.9493 -0.3852 -0.3635
   91RES   O13225512   6.701   4.403   2.136 -0.3309 -0.5203  0.3838
   91RES   C13325513   6.598   4.450   2.045  0.1956 -0.1317  0.2584
   91RES   H13425514   6.937   4.617   2.402 -0.2503 -0.8473  0.2641
   91RES   H13525515   6.844   4.486   2.415  1.0196  0.0168  1.3097
   91RES   H13625516   6.671   4.607   2.243 -0.4965 -3.9691  0.4171
   91RES   H13725517   6.898   4.435   2.191  0.1033 -0.8403  0.8168
   91RES   H13825518   6.848   4.527   2.054  3.4334 -1.4080  0.1132
   91RES   H13925519   6.608   4.433   1.937 -0.5802  2.1380 -0.1995
   91RES   H14025520   6.504   4.403   2.075  1.2142 -0.0345  3.8042
   91RES   H14125521   6.575   4.556   2.058 -1.4370 -0.6784  2.1392
   91RES   O14225522   6.821   4.729   2.186  0.4337 -0.5449 -0.0594
   91RES   C14325523   6.735   4.840   2.204 -0.2139  0.2332  0.2412
   91RES   C14425524   6.793   4.962   2.145 -0.6154 -0.0560 -0.3604
   91RES   C14525525   6.703   5.089   2.171  0.1531 -0.3633 -0.1085
   91RES   O14625526   6.757   5.216   2.133  0.0850 -0.0181  0.6551
   91RES   C14725527   6.657   5.313   2.129 -0.3376 -0.4804 -0.4739
   91RES   H14825528   6.638   4.826   2.155 -0.5558 -2.4588  1.6060
   91RES   H14925529   6.715   4.870   2.307  0.7860  1.0053  0.2209
   91RES   H15025530   6.888   4.973   2.196  0.0800 -1.5202 -1.3214
   91RES   H15125531   6.688   5.096   2.279  1.2487  1.1131 -0.0283
   91RES   H15225532   6.611   5.060   2.121  1.6654 -2.9018 -1.5323
   91RES   H15325533   6.570   5.276   2.074 -0.0052 -0.0559 -1.2939
   91RES   H15425534   6.681   5.407   2.079 -2.8642  1.2191  1.3611
   91RES   H15525535   6.639   5.348   2.231  0.2505  2.5226 -1.3474
   91RES   O15625536   6.826   4.944   2.004 -0.3929  0.1954 -0.0657
   91RES   C15725537   6.930   5.015   1.937 -0.1768 -0.0795 -0.0744
   91RES   C15825538   6.973   4.935   1.814 -0.1469 -0.5399 -0.1824
   91RES   C15925539   7.117   4.980   1.762  0.2745 -0.0743 -0.1305
   91RES   O16025540   7.150   4.882   1.668 -0.2539 -0.1806  0.4997
   91RES   C16125541   7.279   4.822   1.700 -0.2213 -0.0090 -0.0297
   91RES   H16225542   6.890   5.112   1.908  1.9905  0.4132 -1.6018
   91RES   H16325543   7.008   5.045   2.007 -1.6758  1.5172  0.9551
   91RES   H16425544   6.987   4.830   1.836 -1.4610 -0.7479 -0.3264
   91RES   H16525545   7.106   5.079   1.718  1.2702 -0.2012 -0.6846
   91RES   H16625546   7.190   4.994   1.842  1.9189  0.5141 -1.7201
   91RES   H16725547   7.289   4.794   1.805  3.1082  3.0361  0.5814
   91RES   H16825548   7.354   4.897   1.674  0.8852 -1.4803 -1.1471
   91RES   H16925549   7.289   4.726   1.651 -1.1334  0.7876 -1.8232
   91RES   O17025550   6.872   4.940   1.714  0.0294  0.3696 -0.0687
   91RES   C17125551   6.840   4.834   1.637  0.3685 -0.1968  0.5981
   91RES   C17225552   6.730   4.749   1.709 -0.0458 -0.3924  0.0320
   91RES   C17325553   6.743   4.604   1.670 -0.5159  0.0917 -0.1858
   91RES   O17425554   6.757   4.595   1.529 -0.0879  0.4709 -0.4163
   91RES   C17525555   6.820   4.470   1.498 -0.1376  0.3834  0.3964
   91RES   H17625556   6.923   4.770   1.607  2.5089  1.1740  3.3141
   91RES   H17725557   6.792   4.869   1.547  0.4388  0.7778  0.9351
   91RES   H17825558   6.731   4.759   1.817  0.8207  1.7384 -0.1405
   91RES   H17925559   6.831   4.567   1.724 -1.2318 -2.0046 -0.4053
   91RES   H18025560   6.656   4.548   1.706  1.2680 -0.8459  2.8775
   91RES   H18125561   6.921   4.477   1.539 -0.3893  1.7267  0.8103
   91RES   H18225562   6.819   4.452   1.391 -1.1919 -1.5960  0.7151
   91RES   H18325563   6.761   4.391   1.546  2.4203 -0.8552  1.5882
   91RES   O18425564   6.594   4.782   1.669 -0.0506  0.0274  0.2038
   91RES   C18525565   6.551   4.906   1.709  0.1550 -0.5706  0.0619
   91RES   C18625566   6.501   4.908   1.860 -0.1801  0.1630  0.0757
   91RES   C18725567   6.399   4.799   1.908 -0.0785  0.2845  0.2393
   91RES   O18825568   6.399   4.787   2.047 -0.5703 -0.0310  0.2891
   91RES   C18925569   6.303   4.688   2.093 -0.1202  0.2387 -0.1399
   91RES   H19025570   6.464   4.927   1.647 -0.8502  4.0738  2.7787
   91RES   H19125571   6.621   4.985   1.683 -1.1920  0.2644 -1.0794
   91RES   H19225572   6.593   4.889   1.915 -0.3998 -1.2333 -0.0226
   91RES   H19325573   6.427   4.703   1.865  1.6646  0.2101  1.4538
   91RES   H19425574   6.301   4.827   1.870  0.5926 -0.4444 -2.1200
   91RES   H19525575   6.200   4.713   2.065 -0.1407 -0.4367 -0.6799
   91RES   H19625576   6.328   4.588   2.059  0.8338 -0.4514  2.4409
   91RES   H19725577   6.311   4.683   2.202  1.2143 -2.0668 -0.3228
   91RES   O19825578   6.469   5.036   1.912  0.4947 -0.0470 -0.4243
   91RES   C19925579   6.336   5.081   1.868  0.2553  0.5209  0.5389
   91RES   C20025580   6.324   5.234   1.884  0.1653 -0.9706 -0.0853
   91RES   C20125581   6.183   5.283   1.894  0.2276 -0.7010 -0.3587
   91RES   O20225582   6.174   5.417   1.944  0.1440 -0.2405 -0.2052
   91RES   C20325583   6.174   5.435   2.083  0.3846  0.5484 -0.7261
   91RES   H20425584   6.252   5.045   1.926  0.5862 -0.8610  0.1753
   91RES   H20525585   6.334   5.042   1.766 -0.1057  1.3288  0.2267
   91RES   H20625586   6.367   5.267   1.979  0.8366  2.0058 -1.3898
   91RES   H20725587   6.143   5.288   1.793 -0.2795  1.4338 -0.0830
   91RES   H20825588   6.116   5.215   1.945  1.7376 -3.4549 -1.9036
   91RES   H20925589   6.163   5.542   2.102  1.8393 -0.0580  4.2926
   91RES   H21025590   6.263   5.392   2.130 -1.2738 -1.7146  0.3902
   91RES   H21125591   6.084   5.395   2.129  2.0846  0.4888  2.7205
   91RES   O21225592   6.386   5.299   1.771  0.2293  0.4868  0.5632
   91RES   C21325593   6.526   5.268   1.755 -0.4579  0.1157  0.9264
   91RES   C21425594   6.609   5.380   1.690  0.6894  0.4406 -0.0918
   91RES   C21525595   6.741   5.331   1.633  0.4216  0.2488 -0.1175
   91RES   O21625596   6.782   5.400   1.517 -0.2297 -0.7693  0.6827
   91RES   C21725597   6.911   5.373   1.477 -0.2207 -0.1858 -0.8166
   91RES   H21825598   6.531   5.184   1.686  0.3281 -1.0233  2.3514
   91RES   H21925599   6.581   5.229   1.841  0.4972 -1.2284 -0.2676
   91RES   H22025600   6.545   5.408   1.607  0.1768  0.1543  0.2014
   91RES   H22125601   6.813   5.357   1.709  0.0818 -1.7865  0.9380
   91RES   H22225602   6.751   5.223   1.618 -3.5584 -0.1918 -0.1280
   91RES   H22325603   6.919   5.273   1.434  2.7880 -1.0963  1.6616
   91RES   H22425604   6.980   5.386   1.560 -1.5415  1.6916  0.0134
   91RES   H22525605   6.947   5.449   1.408 -1.2439  0.1086 -1.0335
   91RES   O22625606   6.622   5.482   1.784  0.3146  0.0310  0.1486
   91RES   C22725607   6.610   5.608   1.711  0.9247  0.0467 -0.6122
   91RES   C22825608   6.667   5.724   1.794  0.6328  0.1422 -0.2103
   91RES   C22925609   6.612   5.862   1.737  0.2282  0.6363 -0.2305
   91RES   O23025610   6.699   5.958   1.777  0.0408  0.6788  0.2072
   91RES   C23125611   6.659   6.086   1.733 -0.4791  0.2317  0.3561
   91RES   H23225612   6.507   5.616   1.677  0.8105 -2.0819 -0.8451
   91RES   H23325613   6.668   5.606   1.619 -0.2337  2.4621 -1.4241
   91RES   H23425614   6.775   5.718   1.781  0.6195 -1.2659  0.2130
   91RES   H23525615   6.505   5.876   1.752  0.0247 -0.5277 -0.5324
   91RES   H23625616   6.617   5.860   1.628 -3.5803 -0.7685 -0.4576
   91RES   H23725617   6.649   6.090   1.624 -1.9169  1.4765  0.5116
   91RES   H23825618   6.735   6.161   1.754 -0.0225  0.2738 -1.3519
   91RES   H23925619   6.561   6.114   1.772 -0.3776 -0.2276  0.9450
   91RES   O24025620   6.657   5.724   1.939 -0.5552  0.1701 -0.6443
   91RES   C24125621   6.532   5.670   1.998  0.7023  0.1736  0.4512
   91RES   C24225622   6.510   5.704   2.142  0.4576 -0.3588  0.1641
   91RES   C24325623   6.365   5.684   2.189  0.2228 -0.2409  0.3645
   91RES   O24425624   6.352   5.750   2.319  0.1914 -0.4589  0.0004
   91RES   C24525625   6.225   5.757   2.382  0.3291  0.4087 -0.1216
   91RES   H24625626   6.533   5.562   1.983 -0.6950  0.4060 -1.5439
   91RES   H24725627   6.447   5.713   1.945 -0.4445 -0.3749  1.8291
   91RES   H24825628   6.539   5.808   2.155  0.2471 -0.1824 -0.7051
   91RES   H24925629   6.282   5.721   2.129 -1.4742 -2.4520  1.3012
   91RES   H25025630   6.350   5.579   2.213  0.3435 -0.1944  0.6489
   91RES   H25125631   6.237   5.831   2.461  0.2965  1.9135 -1.5138
   91RES   H25225632   6.201   5.657   2.420 -0.4897  1.2289  1.5768
   91RES   H25325633   6.152   5.785   2.306 -0.4932  1.2148  0.9443
   91RES   O25425634   6.593   5.634   2.244 -0.9354  0.1279 -0.1217
   91RES   C25525635   6.731   5.659   2.245  0.1549 -0.2234  0.5246
   91RES   C25625636   6.778   5.653   2.393  0.1569  0.1672 -0.5182
   91RES   C25725637   6.925   5.688   2.407 -0.1759 -0.3771  0.0380
   91RES   O25825638   6.959   5.681   2.548  0.0194 -0.5003  0.4323
   91RES   C25925639   6.997   5.549   2.590 -0.0698 -0.2578  0.2908
   91RES   H26025640   6.777   5.590   2.173  0.1604 -0.9737  1.2455
   91RES   H26125641   6.741   5.760   2.204  1.5111 -0.7015 -0.3619
   91RES   H26225642   6.754   5.559   2.442 -0.8785  0.3090 -0.7397
   91RES   H26325643   6.984   5.615   2.350 -0.8242 -0.4728 -0.5181
   91RES   H26425644   6.945   5.789   2.371 -1.3554  0.5356  1.9202
   91RES   H26525645   7.104   5.534   2.570  0.3363 -0.4765  2.5528
   91RES   H26625646   6.945   5.466   2.541 -0.5474 -1.3952  2.6492
   91RES   H26725647   6.994   5.547   2.699  0.9323  0.9617  0.3416
   91RES   O26825648   6.713   5.767   2.453  0.4182  0.5722  0.3154
   91RES   C26925649   6.594   5.736   2.523 -0.1215  0.1261 -0.1041
   91RES   C27025650   6.548   5.867   2.589  0.1181  0.4491 -0.1810
   91RES   C27125651   6.460   5.839   2.715  0.0347  0.6290  0.4693
   91RES   O27225652   6.426   5.961   2.774 -0.2446  0.1837  0.5564
   91RES   C27325653   6.312   5.950   2.864 -0.5704  0.0451  0.5007
   91RES   H27425654   6.615   5.660   2.598 -1.3245  0.3572  0.4842
   91RES   H27525655   6.513   5.684   2.471  0.4516 -0.6723 -0.2110
   91RES   H27625656   6.641   5.913   2.624  0.6249 -0.3449 -0.4738
   91RES   H27725657   6.502   5.771   2.789 -0.3365 -0.1076  0.0083
   91RES   H27825658   6.370   5.792   2.676 -0.2949  1.8902 -0.2896
   91RES   H27925659   6.235   5.901   2.805 -1.8731  0.5245  1.7728
   91RES   H28025660   6.275   6.047   2.899  0.4015  0.3358  0.7573
   91RES   H28125661   6.340   5.885   2.947 -1.9568 -2.3658 -0.8844
   91RES   H28225662   6.516   5.931   2.507 -0.8382 -0.8821 -0.8608
   92RES     O125663   1.045   6.264   4.239  0.8269 -0.2397  0.0580
   92RES     C225664   0.912   6.216   4.218 -1.0188  0.5091  0.5541
   92RES     C325665   0.815   6.324   4.272  0.0086  1.0972 -0.0387
   92RES     C425666   0.686   6.289   4.201  0.2104  0.4427 -0.0116
   92RES     O525667   0.600   6.395   4.247  0.3968  0.3184  0.7325
   92RES     C625668   0.462   6.381   4.207 -0.0895  0.2190  0.6949
   92RES     H725669   0.898   6.190   4.113 -0.6157  0.3988  0.5280
   92RES     H825670   0.901   6.122   4.272  1.7419  2.3720  4.6372
   92RES     H925671   0.852   6.423   4.245  1.9378  0.6941  0.9870
   92RES    H1025672   0.644   6.194   4.235  0.2712  0.2586 -0.4368
   92RES    H1125673   0.693   6.287   4.092 -1.9589  1.1023 -0.1896
   92RES    H1225674   0.414   6.466   4.257 -0.7695  0.4688 -0.3778
   92RES    H1325675   0.450   6.369   4.100 -0.6838  0.7254  0.7001
   92RES    H1425676   0.420   6.292   4.254  1.8696  0.0734  2.2361
   92RES    H1525677   1.045   6.266   4.334 -0.8187 -1.2258  0.0860
   92RES    O1625678   0.798   6.300   4.417  0.0906  0.2384  0.2270
   92RES    C1725679   0.768   6.421   4.486 -0.3490 -0.1438  0.6228
   92RES    C1825680   0.743   6.372   4.628  0.4373 -0.1952 -0.2447
   92RES    C1925681   0.747   6.499   4.716 -0.6314  0.2335 -0.2115
   92RES    O2025682   0.810   6.474   4.840  0.1701  0.7095 -0.3744
   92RES    C2125683   0.809   6.587   4.921  1.1451  0.1515 -0.7351
   92RES    H2225684   0.687   6.486   4.452 -2.3528 -3.0969 -0.5033
   92RES    H2325685   0.856   6.483   4.473 -1.2956  1.1152  0.1713
   92RES    H2425686   0.818   6.299   4.657  0.0937 -0.4435  0.0251
   92RES    H2525687   0.805   6.576   4.665 -0.0193  0.7356  1.2288
   92RES    H2625688   0.653   6.549   4.738 -0.6267  1.3125 -2.5005
   92RES    H2725689   0.856   6.669   4.868  2.0811 -0.8667 -1.4925
   92RES    H2825690   0.857   6.571   5.018  1.4321 -0.3415 -0.9587
   92RES    H2925691   0.709   6.623   4.947  0.2187 -2.6406 -0.1912
   92RES    O3025692   0.610   6.322   4.646 -0.2510 -0.0964  0.0155
   92RES    C3125693   0.599   6.183   4.630  0.2185 -0.1253  0.1110
   92RES    C3225694   0.467   6.135   4.696  0.2697  0.0024 -0.0969
   92RES    C3325695   0.453   5.985   4.695 -0.1498 -0.4837 -0.5910
   92RES    O3425696   0.390   5.926   4.812 -0.1411 -0.0904  0.1907
   92RES    C3525697   0.247   5.930   4.811  1.3455 -0.3242  0.4529
   92RES    H3625698   0.615   6.152   4.527 -1.5183 -0.6847 -0.0213
   92RES    H3725699   0.675   6.134   4.690  1.1453  1.9181  0.6408
   92RES    H3825700   0.456   6.175   4.796 -0.9017 -1.9710  0.5941
   92RES    H3925701   0.547   5.931   4.685 -0.7458 -1.7317  0.4497
   92RES    H4025702   0.399   5.956   4.605 -1.6590 -1.6559  0.6823
   92RES    H4125703   0.215   6.034   4.814 -1.4158 -1.0286 -2.0349
   92RES    H4225704   0.216   5.870   4.896 -0.5778 -2.2546 -1.5541
   92RES    H4325705   0.210   5.894   4.715  0.6315 -0.3914  0.7476
   92RES    O4425706   0.352   6.178   4.627  0.2157 -0.7228 -0.2815
   92RES    C4525707   0.314   6.313   4.626 -0.3279 -0.7192 -0.2746
   92RES    C4625708   0.171   6.344   4.568 -0.6524  0.4985  0.8504
   92RES    C4725709   0.147   6.494   4.606  0.5946 -0.5388  0.1066
   92RES    O4825710   7.817   6.517   4.600 -0.1747 -0.0180 -0.0060
   92RES    C4925711   7.785   6.653   4.619 -0.1663 -0.1707 -0.2134
   92RES    H5025712   0.381   6.378   4.570  0.5764  0.4329  2.0695
   92RES    H5125713   0.317   6.351   4.728  1.7032 -1.0509 -0.1957
   92RES    H5225714   0.100   6.269   4.602  0.6873 -0.9814  0.3855
   92RES    H5325715   0.179   6.520   4.707 -2.3893  0.8781  0.7566
   92RES    H5425716   0.208   6.563   4.549  1.9310  0.1676  2.3076
   92RES    H5525717   7.678   6.640   4.637 -0.2196  0.1780 -0.2634
   92RES    H5625718   7.802   6.705   4.525 -0.0786  0.8559  0.3627
   92RES    H5725719   0.035   6.698   4.692  0.1199 -1.4252  0.3130
   92RES    O5825720   0.176   6.321   4.426 -0.2302 -0.5538 -0.4175
   92RES    C5925721   0.050   6.347   4.357 -0.1941 -0.2563  0.4035
   92RES    C6025722   0.053   6.307   4.211 -0.2470 -0.6464  0.8983
   92RES    C6125723   7.772   6.390   4.121  0.4572  0.1942 -0.7065
   92RES    O6225724   7.800   6.387   3.985 -0.0997  0.3395 -0.6305
   92RES    C6325725   7.774   6.265   3.920  0.2932  0.5518 -0.4971
   92RES    H6425726   0.017   6.450   4.373 -3.3884 -0.9510 -1.3019
   92RES    H6525727   7.788   6.282   4.395  0.5826 -0.3856  1.8404
   92RES    H6625728   0.152   6.329   4.170  0.5667 -1.4997  2.3689
   92RES    H6725729   7.669   6.379   4.156  0.7462 -0.5674 -0.0830
   92RES    H6825730   7.796   6.494   4.144  0.1640  0.5077 -1.8041
   92RES    H6925731   7.811   6.172   3.965 -1.4749  0.6879  1.3102
   92RES    H7025732   7.802   6.261   3.815 -1.5204 -2.7538 -0.9126
   92RES    H7125733   7.668   6.244   3.922  0.3318  0.3515 -0.5894
   92RES    O7225734   0.013   6.165   4.206 -0.5538  0.3748  0.0541
   92RES    C7325735   0.107   6.078   4.249  0.1379 -0.1327 -0.1205
   92RES    C7425736   0.073   5.930   4.214  0.2580  0.3666  0.2455
   92RES    C7525737   7.794   5.859   4.312 -0.5808 -0.0569 -0.2306
   92RES    O7625738   7.743   5.738   4.253 -0.3834 -0.3129 -0.8512
   92RES    C7725739   7.656   5.663   4.329 -0.2576 -0.0073  0.2759
   92RES    H7825740   0.210   6.101   4.223  0.5861 -0.1381  1.6224
   92RES    H7925741   0.119   6.085   4.357  1.5669 -1.6545 -0.1656
   92RES    H8025742   0.028   5.916   4.116  1.0071 -1.7922  0.1770
   92RES    H8125743   7.701   5.909   4.337  0.1493  1.4969 -0.5814
   92RES    H8225744   0.024   5.846   4.410 -0.5225  1.5715 -0.0264
   92RES    H8325745   7.572   5.719   4.368 -1.6405 -1.2211 -0.9115
   92RES    H8425746   7.703   5.622   4.418 -2.4050 -0.5434  1.1758
   92RES    H8525747   7.609   5.583   4.271 -0.1823  0.5384 -0.5535
   92RES    O8625748   0.193   5.877   4.234  0.3791  0.0154 -0.4840
   92RES    C8725749   0.212   5.761   4.153  0.7449  0.2480  0.6158
   92RES    C8825750   0.364   5.722   4.164  0.1665  0.2622  0.3265
   92RES    C8925751   0.391   5.608   4.062  0.1164  0.2037  0.6972
   92RES    O9025752   0.509   5.538   4.102  0.0747 -0.2113 -0.0279
   92RES    C9125753   0.530   5.410   4.041  0.3500 -0.0584  0.2188
   92RES    H9225754   0.152   5.676   4.187 -4.3141  2.6964 -1.6333
   92RES    H9325755   0.179   5.788   4.053 -1.2888  1.1805  1.4816
   92RES    H9425756   0.398   5.699   4.265 -1.6046  2.0358  1.3627
   92RES    H9525757   0.307   5.538   4.068  0.8881 -0.7377  0.7434
   92RES    H9625758   0.402   5.642   3.959 -2.8886 -2.0329 -0.4293
   92RES    H9725759   0.595   5.352   4.107  0.0554  1.6749  2.0927
   92RES    H9825760   0.440   5.349   4.043 -0.0419  0.5479  1.3248
   92RES    H9925761   0.566   5.413   3.938  2.9907  0.0991  1.1181
   92RES   O10025762   0.442   5.827   4.122 -0.1698 -0.1049  0.9940
   92RES   C10125763   0.492   5.919   4.216 -0.4636  0.1800 -0.5169
   92RES   C10225764   0.640   5.886   4.228 -0.1002  0.3014 -0.0327
   92RES   C10325765   0.694   5.933   4.367  0.2699  0.2042 -0.3582
   92RES   O10425766   0.831   5.886   4.378 -0.2960  0.2966  0.7034
   92RES   C10525767   0.891   5.926   4.498 -0.5722 -0.1973 -0.3431
   92RES   H10625768   0.438   5.893   4.307 -1.1678 -4.2551 -2.0875
   92RES   H10725769   0.474   6.019   4.178  1.2556 -0.5322 -3.3041
   92RES   H10825770   0.671   5.784   4.210  3.2119  1.6841 -2.7002
   92RES   H10925771   0.626   5.893   4.442  1.1550  1.1269  0.9638
   92RES   H11025772   0.693   6.042   4.372 -1.9998  0.1586  0.6204
   92RES   H11125773   0.984   5.873   4.520 -0.4441 -0.1411 -0.7573
   92RES   H11225774   0.827   5.910   4.585  1.1632 -1.0505  0.8135
   92RES   H11325775   0.916   6.031   4.484  0.5477 -0.5239 -0.7937
   92RES   O11425776   0.704   5.965   4.141 -0.5482  0.9836  0.3922
   92RES   C11525777   0.701   5.934   3.998  0.0680  0.4759  0.4758
   92RES   C11625778   0.772   5.803   3.963  0.0392  0.0327  0.6205
   92RES   C11725779   0.706   5.729   3.845 -0.1983 -0.5200 -0.0669
   92RES   O11825780   0.667   5.810   3.730 -0.7644 -0.4139  0.4004
   92RES   C11925781   0.712   5.753   3.608  0.5483  0.0804  0.2502
   92RES   H12025782   0.595   5.929   3.971 -1.0920 -0.7050  4.7845
   92RES   H12125783   0.745   6.015   3.940  1.1683 -0.4968 -0.0525
   92RES   H12225784   0.757   5.741   4.052 -1.1858  1.6012  1.5517
   92RES   H12325785   0.768   5.644   3.815 -1.4224 -1.1990 -0.7007
   92RES   H12425786   0.613   5.685   3.880 -1.4317  0.4721 -1.9910
   92RES   H12525787   0.647   5.667   3.590  1.3941 -0.4049 -0.5778
   92RES   H12625788   0.815   5.721   3.623  0.2562 -0.2265  1.6204
   92RES   H12725789   0.695   5.826   3.529  0.4996  1.1028  1.1950
   92RES   O12825790   0.913   5.813   3.943  0.2631  0.2951 -0.0566
   92RES   C12925791   0.994   5.808   4.058  1.3689 -0.7058  0.2550
   92RES   C13025792   1.018   5.672   4.120  0.2844  0.3294  0.0583
   92RES   C13125793   1.101   5.685   4.255 -0.2186  0.7346  0.2126
   92RES   O13225794   1.078   5.577   4.334 -0.4906 -0.1926 -0.3655
   92RES   C13325795   1.179   5.562   4.432 -0.2613 -0.2850 -0.2192
   92RES   H13425796   1.088   5.846   4.019  2.3251 -2.4147  0.8505
   92RES   H13525797   0.956   5.883   4.128  0.0923 -1.2672  0.1789
   92RES   H13625798   0.921   5.625   4.141  0.5361  0.4737  1.5795
   92RES   H13725799   1.065   5.764   4.322  1.4674  0.0834  1.9191
   92RES   H13825800   1.206   5.703   4.233  0.1045  0.1705  1.2860
   92RES   H13925801   1.158   5.480   4.501  0.2384 -1.0679 -0.9855
   92RES   H14025802   1.274   5.542   4.382  0.9452  0.3807  1.7298
   92RES   H14125803   1.197   5.647   4.498  0.3721 -0.8889  0.3932
   92RES   O14225804   1.080   5.605   4.018 -0.5604  0.8298 -0.1691
   92RES   C14325805   1.154   5.487   4.044  0.5616 -0.0386 -0.4929
   92RES   C14425806   1.074   5.362   4.088 -0.6720  0.2236 -0.6129
   92RES   C14525807   1.173   5.249   4.123 -0.0733  0.0854  0.3170
   92RES   O14625808   1.104   5.136   4.170  0.1444 -0.3960  0.2889
   92RES   C14725809   1.113   5.024   4.084 -0.1230 -0.2213  0.1026
   92RES   H14825810   1.210   5.456   3.956  2.2185  0.8138  0.2417
   92RES   H14925811   1.229   5.502   4.121 -1.6513  1.1254  1.5372
   92RES   H15025812   1.021   5.377   4.181 -1.8054 -2.5958 -0.7433
   92RES   H15125813   1.251   5.270   4.196 -0.9192 -0.4083  1.3747
   92RES   H15225814   1.235   5.229   4.036  0.7384  0.6289  0.7702
   92RES   H15325815   1.069   5.031   3.985 -2.4724 -2.3613  0.9308
   92RES   H15425816   1.049   4.945   4.122  1.1122 -0.9738  0.6467
   92RES   H15525817   1.218   4.996   4.075  0.2098  0.6323  1.2113
   92RES   O15625818   0.987   5.296   3.989 -0.1707  0.2942  0.1616
   92RES   C15725819   0.925   5.380   3.889 -0.1946  0.3522  0.5145
   92RES   C15825820   0.861   5.294   3.772 -0.4608  0.1287  0.4737
   92RES   C15925821   0.814   5.382   3.659  0.6775  0.5225  0.6396
   92RES   O16025822   0.795   5.302   3.539  0.1016 -0.1578  0.0427
   92RES   C16125823   0.792   5.382   3.425 -0.1296 -0.1523 -0.9165
   92RES   H16225824   0.844   5.440   3.931 -1.2419 -1.3345  0.9199
   92RES   H16325825   0.998   5.445   3.841 -1.4717  0.8219 -0.8341
   92RES   H16425826   0.929   5.222   3.725  0.0820  0.6390  0.4759
   92RES   H16525827   0.722   5.435   3.683 -0.0552 -0.8978  0.9779
   92RES   H16625828   0.903   5.436   3.625  0.3816  0.3254 -0.4719
   92RES   H16725829   0.778   5.326   3.332 -1.4109  2.1984 -2.1821
   92RES   H16825830   0.891   5.426   3.408 -0.0085  0.2591  0.8096
   92RES   H16925831   0.718   5.462   3.423 -0.8204 -0.8054 -1.7078
   92RES   O17025832   0.753   5.215   3.812 -0.5167 -0.1861  0.7668
   92RES   C17125833   0.788   5.116   3.900 -0.2301  0.0539 -0.1482
   92RES   C17225834   0.665   5.013   3.916 -0.0386 -0.4568 -0.1547
   92RES   C17325835   0.671   4.938   4.049 -0.3415  0.4627  0.2229
   92RES   O17425836   0.558   4.857   4.062  0.3940  0.2950 -0.5170
   92RES   C17525837   0.574   4.756   4.165  0.0651  0.0149 -0.2056
   92RES   H17625838   0.818   5.149   3.999 -2.1394  0.0673  0.4456
   92RES   H17725839   0.876   5.062   3.866 -1.1090 -0.9908 -0.8109
   92RES   H17825840   0.569   5.065   3.926 -1.0526 -2.3096 -0.1097
   92RES   H17925841   0.759   4.874   4.057 -0.9269 -0.7555 -2.7534
   92RES   H18025842   0.669   5.011   4.130  0.2794  3.7005 -2.5675
   92RES   H18125843   0.477   4.709   4.182 -0.0964 -0.1837 -1.5894
   92RES   H18225844   0.616   4.787   4.260  0.4536 -1.3103  0.0636
   92RES   H18325845   0.648   4.687   4.125 -0.2455 -0.8450  0.7095
   92RES   O18425846   0.663   4.910   3.820  0.1160  0.0434 -0.5317
   92RES   C18525847   0.613   4.954   3.697  0.0498  0.2601 -0.8157
   92RES   C18625848   0.582   4.835   3.608  0.1398  0.6571  1.6246
   92RES   C18725849   0.583   4.888   3.459  0.0268 -0.0370 -0.3247
   92RES   O18825850   0.590   4.778   3.363  0.0709 -0.1619 -0.2298
   92RES   C18925851   0.470   4.721   3.317 -0.5721  0.2123 -0.5832
   92RES   H19025852   0.689   5.014   3.647  1.1090 -0.3875 -0.0075
   92RES   H19125853   0.529   5.023   3.702  1.6717  2.1727  0.3660
   92RES   H19225854   0.663   4.763   3.616  0.5052  1.0168  1.1474
   92RES   H19325855   0.670   4.951   3.441  0.3790  0.0216  1.4320
   92RES   H19425856   0.496   4.953   3.444  0.4737  0.0672 -2.5556
   92RES   H19525857   0.393   4.798   3.304  2.0471  2.8697 -0.8581
   92RES   H19625858   0.493   4.661   3.230 -0.5922 -0.7184  0.0436
   92RES   H19725859   0.432   4.650   3.390  1.3538 -0.1442  0.1012
   92RES   O19825860   0.455   4.775   3.639  0.3827  0.3887  0.1325
   92RES   C19925861   0.464   4.665   3.728  0.5292  0.1269  0.3446
   92RES   C20025862   0.315   4.611   3.747 -0.2866  0.4563  0.7434
   92RES   C20125863   0.256   4.570   3.612 -0.4779  0.5987  0.0641
   92RES   O20225864   0.144   4.485   3.632  0.1207 -0.0180 -0.0246
   92RES   C20325865   0.023   4.570   3.632  0.0611  0.4647 -0.3653
   92RES   H20425866   0.510   4.695   3.822  0.4937  0.0943  0.3723
   92RES   H20525867   0.522   4.584   3.684  0.1340  0.8336 -1.5076
   92RES   H20625868   0.334   4.521   3.807  0.2983  0.2200  0.2031
   92RES   H20725869   0.243   4.652   3.541 -2.9398  0.7127  0.5961
   92RES   H20825870   0.327   4.502   3.564 -1.2874 -1.8005  2.1305
   92RES   H20925871   0.002   4.619   3.727 -0.6117  0.5813 -0.5735
   92RES   H21025872   7.747   4.520   3.607 -0.3297 -0.3334  2.4652
   92RES   H21125873   0.042   4.649   3.560  2.1947  0.9675  0.7011
   92RES   O21225874   0.231   4.700   3.824  0.2256  0.5528 -0.2741
   92RES   C21325875   0.259   4.693   3.967 -0.0433 -1.0533  0.0401
   92RES   C21425876   0.131   4.661   4.042 -0.4324 -0.3286  0.3356
   92RES   C21525877   0.103   4.770   4.152 -0.6151 -0.3297 -0.2906
   92RES   O21625878   7.783   4.758   4.185  0.5871  0.2062  0.1659
   92RES   C21725879   7.752   4.823   4.307  0.2505 -0.0865 -0.0743
   92RES   H21825880   0.297   4.794   3.986 -4.1951  0.8748 -1.1760
   92RES   H21925881   0.340   4.623   3.989  1.0254  0.9650  2.8329
   92RES   H22025882   0.045   4.664   3.975 -1.2105 -2.5017  1.1941
   92RES   H22125883   0.170   4.759   4.237 -2.3759 -0.4109  1.1238
   92RES   H22225884   0.128   4.868   4.112  0.7171 -0.7888 -0.6021
   92RES   H22325885   7.648   4.829   4.341  0.8336  0.6529  1.6506
   92RES   H22425886   7.781   4.927   4.310  1.5169 -0.4559  0.7263
   92RES   H22525887   0.002   4.792   4.387  2.4751  0.2936 -1.7535
   92RES   O22625888   0.151   4.526   4.091  0.7473  0.0074  0.0906
   92RES   C22725889   0.037   4.442   4.091 -0.5285 -0.7400  0.0948
   92RES   C22825890   0.093   4.299   4.117  1.4070 -0.4261  0.7084
   92RES   C22925891   7.800   4.192   4.114  0.3375  0.1885 -0.5506
   92RES   O23025892   7.741   4.196   4.247 -0.0703  0.5369  0.3350
   92RES   C23125893   7.645   4.097   4.264 -0.0346 -0.2624  0.1263
   92RES   H23225894   7.807   4.442   3.993 -0.8961 -1.8655  0.2507
   92RES   H23325895   7.777   4.452   4.168 -1.2709 -1.6818 -0.5001
   92RES   H23425896   0.131   4.284   4.218  1.6067 -0.5070  0.6212
   92RES   H23525897   0.037   4.099   4.097 -1.6667 -1.0034 -0.5673
   92RES   H23625898   7.722   4.213   4.040 -1.0471  2.5567  1.4819
   92RES   H23725899   7.593   4.092   4.359 -1.1628 -0.3403 -0.4871
   92RES   H23825900   7.694   4.001   4.248 -0.6551 -0.6615  0.6039
   92RES   H23925901   7.572   4.106   4.183 -2.0229  0.3147  1.9399
   92RES   O24025902   0.189   4.266   4.015  0.3241  0.1452 -0.2745
   92RES   C24125903   0.144   4.271   3.879  0.4979 -0.3711  0.5608
   92RES   C24225904   0.224   4.166   3.791  0.2027 -0.5191 -0.5341
   92RES   C24325905   0.171   4.136   3.656  0.2474 -0.1333  0.1120
   92RES   O24425906   0.064   4.028   3.657  0.3000  0.5716  0.1030
   92RES   C24525907   0.036   3.979   3.525 -0.3404 -0.3442 -0.1899
   92RES   H24625908   0.162   4.374   3.848 -0.7560  0.3110  2.0575
   92RES   H24725909   0.038   4.249   3.873  1.1243 -3.1404 -0.7093
   92RES   H24825910   0.227   4.067   3.837  1.8772 -1.4143 -2.4869
   92RES   H24925911   0.157   4.223   3.592  1.0268 -1.3739 -1.7999
   92RES   H25025912   0.254   4.086   3.606  0.4519  1.3546 -1.0541
   92RES   H25125913   7.784   4.039   3.466 -0.0147  0.2002 -0.0208
   92RES   H25225914   7.789   3.891   3.527  1.7272 -2.0222 -2.8643
   92RES   H25325915   0.119   3.964   3.455 -1.0800 -0.6453 -1.0099
   92RES   O25425916   0.357   4.216   3.772  0.6568 -0.7308  0.4482
   92RES   C25525917   0.449   4.127   3.824  0.3945  0.1194 -0.2460
   92RES   C25625918   0.596   4.173   3.807  0.3677  0.6036  0.9857
   92RES   C25725919   0.694   4.062   3.841 -0.0233  0.4654 -0.6385
   92RES   O25825920   0.831   4.091   3.837 -0.5100 -0.4641 -0.2952
   92RES   C25925921   0.875   4.164   3.956  0.1355 -0.1371  0.4726
   92RES   H26025922   0.431   4.119   3.931 -0.7562 -2.2229 -0.5759
   92RES   H26125923   0.459   4.028   3.777 -0.8473 -0.0708 -0.1246
   92RES   H26225924   0.614   4.268   3.857 -0.5647  0.2629  1.9847
   92RES   H26325925   0.673   4.018   3.938 -1.3821 -0.3030 -1.2720
   92RES   H26425926   0.671   3.975   3.779  0.1737 -0.7946  1.0061
   92RES   H26525927   0.967   4.220   3.938 -0.0431 -0.1087 -0.3829
   92RES   H26625928   0.885   4.089   4.035 -1.6953 -0.1117  0.7383
   92RES   H26725929   0.795   4.229   3.990  0.5556  1.5345 -1.6038
   92RES   O26825930   0.612   4.189   3.672  0.2333  0.3553  0.1818
   92RES   C26925931   0.661   4.317   3.635  0.1863  0.1271  0.0102
   92RES   C27025932   0.636   4.328   3.482  0.1203  0.5180  0.1651
   92RES   C27125933   0.693   4.460   3.426 -0.1942  0.0671 -0.4032
   92RES   O27225934   0.837   4.460   3.432  0.4726  0.6544  0.1531
   92RES   C27325935   0.901   4.574   3.381  0.1041 -0.0125 -0.2478
   92RES   H27425936   0.768   4.325   3.654  0.0036  2.0728  0.3239
   92RES   H27525937   0.610   4.397   3.689 -2.0862  0.8620 -3.0753
   92RES   H27625938   0.692   4.243   3.442 -1.0415  1.3735 -3.3931
   92RES   H27725939   0.652   4.546   3.479 -0.2257  1.4769 -2.6304
   92RES   H27825940   0.670   4.478   3.321 -0.7925  2.1529  0.0603
   92RES   H27925941   1.007   4.553   3.372  0.0037 -0.3540 -0.6690
   92RES   H28025942   0.906   4.662   3.444  3.8264  1.7896 -2.8854
   92RES   H28125943   0.865   4.605   3.283 -3.1435  0.6646  1.0749
   92RES   H28225944   0.534   4.298   3.461  0.3980 -0.1939 -0.1844
   93RES     O125945   0.054   5.752   6.943 -0.0228 -0.3446  0.0926
   93RES     C225946   7.733   5.787   6.939 -0.5598 -0.1505  0.3113
   93RES     C325947   7.692   5.816   6.791  0.5692 -0.3226 -0.0226
   93RES     C425948   7.556   5.886   6.761  0.0917 -0.5519 -0.3455
   93RES     O525949   7.505   5.884   6.629 -0.3237 -0.0130 -0.0699
   93RES     C625950   7.365   5.903   6.628 -0.7516 -0.0731 -0.3768
   93RES     H725951   7.662   5.721   6.988 -1.8994  1.8499  1.1394
   93RES     H825952   7.732   5.880   6.996 -1.2454 -1.0522  1.8110
   93RES     H925953   7.689   5.720   6.740 -2.4418 -0.1404 -0.3056
   93RES    H1025954   7.564   5.988   6.800  1.0746  0.1632 -2.3744
   93RES    H1125955   7.485   5.822   6.815 -0.2675  0.5197  0.4832
   93RES    H1225956   7.312   5.823   6.679  2.9015 -0.9639  2.2368
   93RES    H1325957   7.340   5.997   6.678  1.8165  0.9888 -0.9768
   93RES    H1425958   7.331   5.916   6.526 -4.1702 -3.0298  0.2638
   93RES    H1525959   0.096   5.818   6.890 -3.9008  1.3538 -1.0603
   93RES    O1625960   7.800   5.904   6.743  0.0389  0.1610  0.6587
   93RES    C1725961   0.008   5.867   6.607 -0.0388  0.1724 -0.1011
   93RES    C1825962   0.130   5.952   6.559  0.2791  0.1100  0.2267
   93RES    C1925963   0.161   5.912   6.415 -0.3452  0.4275 -0.6278
   93RES    O2025964   0.287   5.936   6.369  0.1928  0.1095  0.6252
   93RES    C2125965   0.387   5.832   6.391  0.9410  0.2053 -0.6442
   93RES    H2225966   7.737   5.889   6.546 -0.5341 -0.6764  0.3090
   93RES    H2325967   0.032   5.763   6.590  0.6705 -0.0359  2.0593
   93RES    H2425968   0.212   5.926   6.626  0.7918 -0.3392 -0.5613
   93RES    H2525969   0.135   5.808   6.393 -0.8910  0.9543 -2.6331
   93RES    H2625970   0.089   5.971   6.358 -2.3075  0.2877  1.5823
   93RES    H2725971   0.374   5.737   6.340  1.1581 -0.7328  1.0111
   93RES    H2825972   0.395   5.808   6.497  2.5412  1.1528 -0.5333
   93RES    H2925973   0.482   5.874   6.359  0.9795 -0.2639 -1.1602
   93RES    O3025974   0.097   6.090   6.560  0.1604  0.4759  0.4139
   93RES    C3125975   0.210   6.172   6.532  0.3781 -0.4757  0.5227
   93RES    C3225976   0.205   6.305   6.612 -0.0087  0.0650  0.1261
   93RES    C3325977   0.315   6.405   6.551 -0.7479  0.1492  0.2996
   93RES    O3425978   0.310   6.544   6.589 -0.5705  0.7048  0.0953
   93RES    C3525979   0.341   6.564   6.728 -0.4426 -0.0819  0.1302
   93RES    H3625980   0.301   6.113   6.545  0.7448  0.4527  2.3811
   93RES    H3725981   0.216   6.198   6.427  1.7484 -2.0977  0.1754
   93RES    H3825982   0.108   6.351   6.594  0.3299  0.4785 -0.7048
   93RES    H3925983   0.317   6.404   6.442  0.7119  0.7978  0.3128
   93RES    H4025984   0.417   6.372   6.569 -1.5026 -2.5672 -0.1937
   93RES    H4125985   0.260   6.528   6.792 -1.2494  0.2661 -0.6660
   93RES    H4225986   0.353   6.668   6.757  0.3393 -0.2334  0.3537
   93RES    H4325987   0.436   6.520   6.756 -1.3707 -1.7079  0.8244
   93RES    O4425988   0.245   6.268   6.745  0.3733 -0.1911 -0.1982
   93RES    C4525989   0.126   6.240   6.829  0.2937  0.3771  0.0849
   93RES    C4625990   0.180   6.167   6.950 -0.6754 -0.7728 -0.1092
   93RES    C4725991   0.086   6.177   7.068  0.2112  0.0332 -0.2286
   93RES    O4825992   0.159   6.164   7.193  0.0938 -0.2716  0.4087
   93RES    C4925993   0.079   6.120   7.297  0.5157  0.5337  0.2535
   93RES    H5025994   0.046   6.182   6.782  1.3107  0.2030 -1.4646
   93RES    H5125995   0.084   6.338   6.849 -1.4399  0.0854 -1.9141
   93RES    H5225996   0.277   6.203   6.986 -1.1437  1.1278 -0.7077
   93RES    H5325997   0.034   6.272   7.071  0.4147  0.1044  1.6106
   93RES    H5425998   0.008   6.102   7.052  1.6571 -1.2072 -1.6975
   93RES    H5525999   0.050   6.017   7.275 -0.2674  0.5869  1.0210
   93RES    H5626000   7.807   6.176   7.323  0.2276  0.7227 -1.1416
   93RES    H5726001   0.147   6.130   7.382  0.2087  1.0110  0.4408
   93RES    O5826002   0.188   6.033   6.911 -0.6223 -0.3526 -0.3951
   93RES    C5926003   0.316   5.990   6.883 -0.8007  1.1220 -0.7167
   93RES    C6026004   0.414   5.979   7.012  0.5610 -0.3342 -0.0747
   93RES    C6126005   0.562   5.968   6.973 -0.0285 -0.6065  0.5058
   93RES    O6226006   0.654   5.992   7.085 -0.1157  0.1026  0.1918
   93RES    C6326007   0.661   5.896   7.186 -0.3987  0.3549 -0.5179
   93RES    H6426008   0.371   6.063   6.823 -0.7595 -1.1779 -3.5830
   93RES    H6526009   0.316   5.894   6.830  0.1809 -0.6287  2.3317
   93RES    H6626010   0.403   6.060   7.083 -1.2537 -1.6605  1.1958
   93RES    H6726011   0.581   5.874   6.921  2.5648  1.9369 -3.3058
   93RES    H6826012   0.575   6.052   6.905  0.7451 -0.1213  1.2437
   93RES    H6926013   0.671   5.801   7.135  2.1920 -0.1439  0.7916
   93RES    H7026014   0.573   5.908   7.249  1.5767  0.1726  2.4128
   93RES    H7126015   0.746   5.907   7.253 -1.2522 -0.6016  0.7420
   93RES    O7226016   0.382   5.859   7.085 -0.5252 -0.0071  0.1667
   93RES    C7326017   0.269   5.863   7.173 -0.3726 -0.3476 -0.5977
   93RES    C7426018   0.234   5.716   7.215  0.5444  0.0678  0.2250
   93RES    C7526019   0.123   5.715   7.319  0.6169  0.1077 -0.0168
   93RES    O7626020   0.051   5.594   7.315 -0.2501  0.2384 -0.7119
   93RES    C7726021   7.749   5.596   7.243 -0.2878 -0.1157  0.0018
   93RES    H7826022   0.308   5.912   7.262 -0.6030 -1.9653  0.4242
   93RES    H7926023   0.185   5.922   7.137  1.0356  1.0103 -1.6935
   93RES    H8026024   0.195   5.660   7.130  2.7218 -0.4953 -0.4375
   93RES    H8126025   0.066   5.807   7.307  3.8722  1.9630 -1.7934
   93RES    H8226026   0.161   5.734   7.420 -1.3407  1.3000  0.5323
   93RES    H8326027   7.683   5.516   7.276 -0.8513  0.6892  0.8546
   93RES    H8426028   7.777   5.592   7.137  0.5226  0.1358  0.2030
   93RES    H8526029   7.699   5.686   7.278  0.9267 -0.0293  1.5315
   93RES    O8626030   0.348   5.655   7.265  0.1453  0.5504  0.0699
   93RES    C8726031   0.413   5.564   7.170  0.3853 -0.1293  0.2534
   93RES    C8826032   0.529   5.484   7.231 -0.3037  0.4948  0.4641
   93RES    C8926033   0.572   5.373   7.128  0.8683 -1.0523  0.2997
   93RES    O9026034   0.661   5.285   7.190  0.7114 -0.6474  0.7782
   93RES    C9126035   0.729   5.188   7.108 -0.1008  0.0341  0.0275
   93RES    H9226036   0.340   5.496   7.126 -1.0410  1.8540 -0.4790
   93RES    H9326037   0.440   5.608   7.075  0.0859 -0.7395 -0.1213
   93RES    H9426038   0.506   5.435   7.325  2.4974 -0.4627  0.7097
   93RES    H9526039   0.482   5.315   7.108  0.4077 -0.4899  0.7058
   93RES    H9626040   0.603   5.418   7.034 -1.1081  1.1304  0.6411
   93RES    H9726041   0.799   5.132   7.170  0.7268  1.4297  0.3709
   93RES    H9826042   0.670   5.109   7.061 -0.1895 -0.3784  0.8097
   93RES    H9926043   0.790   5.241   7.035  0.2119 -0.6817 -0.2449
   93RES   O10026044   0.632   5.590   7.237  0.1371 -0.5609  0.0256
   93RES   C10126045   0.743   5.559   7.322  0.2349 -0.1030 -0.3410
   93RES   C10226046   0.874   5.622   7.270 -0.3043 -0.2098 -0.1871
   93RES   C10326047   0.904   5.559   7.119  0.0207  0.9044 -0.1939
   93RES   O10426048   1.022   5.619   7.069  0.4001  0.6765 -0.0479
   93RES   C10526049   1.077   5.541   6.956 -0.6302  0.4128 -0.3878
   93RES   H10626050   0.758   5.451   7.328  0.4737 -0.0658 -0.2360
   93RES   H10726051   0.726   5.597   7.422 -0.9265  0.8322 -0.8822
   93RES   H10826052   0.867   5.730   7.282  0.4470  0.0616 -2.1111
   93RES   H10926053   0.826   5.583   7.046 -0.5087 -1.3868 -0.4219
   93RES   H11026054   0.921   5.452   7.112  1.3272  0.9122  2.5771
   93RES   H11126055   1.084   5.433   6.968 -0.7960  0.4542  0.0984
   93RES   H11226056   1.178   5.579   6.940 -0.0171 -0.4659  1.2099
   93RES   H11326057   1.018   5.558   6.866 -2.0997  0.5577  0.5757
   93RES   O11426058   0.972   5.582   7.363 -0.5040  0.0409  0.3641
   93RES   C11526059   1.108   5.607   7.345 -0.5875 -0.1259  0.0013
   93RES   C11626060   1.183   5.638   7.481  0.2578 -0.2719  0.3714
   93RES   C11726061   1.327   5.583   7.480 -0.5264  0.3879  0.1641
   93RES   O11826062   1.382   5.567   7.615  0.3717  0.4191 -0.4329
   93RES   C11926063   1.442   5.681   7.656 -0.0007  0.4070  0.3194
   93RES   H12026064   1.154   5.511   7.319 -0.4712 -0.1623  0.3242
   93RES   H12126065   1.128   5.675   7.263 -0.0736 -2.1050 -1.5744
   93RES   H12226066   1.130   5.588   7.562  0.8729 -1.4439  0.0679
   93RES   H12326067   1.341   5.486   7.432 -2.1699  0.9660 -1.5784
   93RES   H12426068   1.392   5.643   7.416 -1.7013  0.7609 -0.7036
   93RES   H12526069   1.494   5.670   7.752 -0.7216 -2.5222  0.4061
   93RES   H12626070   1.367   5.759   7.656 -0.9161 -0.4635  1.2146
   93RES   H12726071   1.515   5.710   7.581 -0.2682  1.6695  0.5421
   93RES   O12826072   1.189   5.777   7.494 -0.2735 -0.0926  0.3010
   93RES   C12926073   1.066   5.837   7.537  0.1196 -0.0946  0.0621
   93RES   C13026074   1.094   5.985   7.552 -0.1670 -0.5305 -0.3085
   93RES   C13126075   0.974   6.053   7.616  0.1655  0.9307 -0.4106
   93RES   O13226076   1.017   6.181   7.669  0.2974 -0.2945  0.2532
   93RES   C13326077   0.919   6.246   7.734 -0.1438 -0.2957 -0.0053
   93RES   H13426078   0.979   5.831   7.472  0.8532 -1.7227 -0.7993
   93RES   H13526079   1.025   5.799   7.630 -1.7583 -0.2004 -0.7853
   93RES   H13626080   1.181   5.996   7.616 -0.0124 -0.5953 -0.5048
   93RES   H13726081   0.960   5.988   7.703 -3.3210  3.2651  0.8657
   93RES   H13826082   0.887   6.061   7.552 -1.6608 -0.5772  1.8084
   93RES   H13926083   0.911   6.204   0.017 -0.4081 -0.6148 -0.1612
   93RES   H14026084   0.956   6.349   7.738  0.3226 -0.5083  1.4681
   93RES   H14126085   0.825   6.238   7.679 -0.2915  1.1532  0.0003
   93RES   O14226086   1.105   6.034   7.420 -0.0191 -0.3667  0.1594
   93RES   C14326087   1.239   6.064   7.390 -0.2550  0.2412 -0.6365
   93RES   C14426088   1.237   6.087   7.237  0.0113 -0.1466  0.0591
   93RES   C14526089   1.386   6.133   7.195 -0.4953 -0.0575  0.4199
   93RES   O14626090   1.407   6.094   7.061 -0.1534 -0.1907 -0.4132
   93RES   C14726091   1.517   6.149   6.997  0.0896 -0.2467  0.6309
   93RES   H14826092   1.274   6.151   7.445  1.3084 -0.1976 -0.9178
   93RES   H14926093   1.302   5.980   7.418  1.1076  0.9764 -1.4237
   93RES   H15026094   1.212   5.993   7.187  0.7777 -1.4356  2.0284
   93RES   H15126095   1.458   6.066   7.242  0.0258 -0.1511 -0.4970
   93RES   H15226096   1.407   6.236   7.223 -3.1351  0.1627  1.7801
   93RES   H15326097   1.492   6.253   6.974  0.4119 -0.2969  0.0409
   93RES   H15426098   1.534   6.097   6.902  3.0174  1.6222  0.0299
   93RES   H15526099   1.605   6.142   7.061 -0.0735 -1.0365  0.7651
   93RES   O15626100   1.151   6.197   7.217 -0.4371 -0.0326  0.2303
   93RES   C15726101   1.056   6.182   7.113 -0.7321 -0.3721  0.2768
   93RES   C15826102   0.979   6.315   7.091  0.4650  0.1795  0.6583
   93RES   C15926103   0.835   6.298   7.036  0.1974 -1.0695 -0.7587
   93RES   O16026104   0.761   6.419   7.060  0.3299 -0.2584  0.5705
   93RES   C16126105   0.643   6.417   6.985 -0.6056  0.3805  0.1509
   93RES   H16226106   1.101   6.151   7.018  0.4115  2.8153 -0.2935
   93RES   H16326107   0.990   6.098   7.134  0.0823 -1.3371 -0.9265
   93RES   H16426108   0.969   6.367   7.186  0.4843 -2.2766  2.0476
   93RES   H16526109   0.843   6.262   6.934  0.1866 -0.7129 -0.8875
   93RES   H16626110   0.786   6.213   7.082 -1.1913 -0.2920 -0.7893
   93RES   H16726111   0.608   6.520   6.974 -1.1155  0.4250  1.9647
   93RES   H16826112   0.563   6.368   7.041  1.8152 -2.3709  1.3264
   93RES   H16926113   0.659   6.367   6.890  1.7423 -2.2660  1.8420
   93RES   O17026114   1.054   6.403   6.991 -0.0053 -0.0936  0.2732
   93RES   C17126115   1.171   6.460   7.055 -0.4079 -0.4831 -0.2017
   93RES   C17226116   1.244   6.547   6.942  0.3141 -0.3502 -0.2213
   93RES   C17326117   1.399   6.569   6.978  0.2864 -0.5958 -0.0293
   93RES   O17426118   1.480   6.574   6.862  0.0593  0.5872  0.2217
   93RES   C17526119   1.618   6.576   6.889 -0.3991  0.1182  0.2316
   93RES   H17626120   1.233   6.374   7.084  1.2757  0.7299 -0.1323
   93RES   H17726121   1.151   6.518   7.145 -1.3055 -0.7706 -0.2135
   93RES   H17826122   1.234   6.502   6.843 -1.6538 -1.0033  0.2379
   93RES   H17926123   1.412   6.664   7.031  1.4290 -1.0909  0.6114
   93RES   H18026124   1.436   6.487   7.040 -1.1214 -0.7967  0.5619
   93RES   H18126125   1.637   6.661   6.955  1.9517 -0.2120  0.0082
   93RES   H18226126   1.675   6.593   6.797 -0.8144  0.2861  0.0014
   93RES   H18326127   1.655   6.487   6.939  0.3892  0.4738  0.2934
   93RES   O18426128   1.168   6.666   6.936  0.6029 -0.4650 -0.2600
   93RES   C18526129   1.210   6.755   6.830  0.1220 -0.1330 -0.1636
   93RES   C18626130   1.093   6.834   6.771 -0.5585 -0.8814 -0.3740
   93RES   C18726131   1.017   6.748   6.672  0.2821  0.7029  0.3683
   93RES   O18826132   0.876   6.757   6.702 -0.6265 -0.4758 -0.0047
   93RES   C18926133   0.821   6.634   6.755  0.5296 -0.0204 -0.4913
   93RES   H19026134   1.269   6.711   6.750  1.6151  1.0354  0.2623
   93RES   H19126135   1.281   6.827   6.871 -0.4434  0.3825 -0.0829
   93RES   H19226136   1.029   6.865   6.854  0.7186  2.2974 -0.5334
   93RES   H19326137   1.048   6.644   6.684  0.7719  0.8713  0.5778
   93RES   H19426138   1.041   6.774   6.569 -1.0234 -2.2574 -0.7573
   93RES   H19526139   0.836   6.555   6.681  1.2968 -0.8359  0.5181
   93RES   H19626140   0.870   6.602   6.847  1.7685 -1.3349 -1.5927
   93RES   H19726141   0.714   6.644   6.772  0.1759 -2.4338 -1.1307
   93RES   O19826142   1.144   6.962   6.727 -0.6500  0.3369  0.2484
   93RES   C19926143   1.048   7.060   6.713  0.7626 -0.2466  0.2508
   93RES   C20026144   1.116   7.169   6.637  0.1832  0.2375  0.6476
   93RES   C20126145   1.024   7.297   6.647 -0.3278  0.2860  0.0030
   93RES   O20226146   1.092   7.415   6.603 -0.3321  0.0150  0.0536
   93RES   C20326147   1.017   7.528   6.635  0.8617  0.3502 -0.2327
   93RES   H20426148   1.024   7.097   6.812 -0.7442 -0.1646 -0.1301
   93RES   H20526149   0.959   7.027   6.659  0.5988  1.7503 -0.7656
   93RES   H20626150   1.211   7.192   6.686  0.8778  1.0773 -1.0733
   93RES   H20726151   0.940   7.281   6.580 -0.1269 -0.8376  0.0177
   93RES   H20826152   0.999   7.316   6.751 -0.7200  2.4419 -0.4618
   93RES   H20926153   0.957   7.523   6.725  1.3781  1.9963  0.2262
   93RES   H21026154   0.955   7.564   6.553 -0.8962 -0.8952  0.5200
   93RES   H21126155   1.082   7.614   6.650 -0.4423  1.3261 -0.1035
   93RES   O21226156   1.138   7.127   6.500  0.1842 -0.5607 -0.3573
   93RES   C21326157   1.260   7.183   6.453  0.1366  0.1451 -0.2911
   93RES   C21426158   1.381   7.106   6.507  1.0478 -0.4511 -0.2898
   93RES   C21526159   1.517   7.177   6.515 -0.2393 -0.4218 -0.4328
   93RES   O21626160   1.568   7.219   6.384  0.2060  0.7056 -0.4146
   93RES   C21726161   1.690   7.288   6.377 -0.0215  0.3595  0.0142
   93RES   H21826162   1.263   7.291   6.463 -1.2750  0.1933 -0.3546
   93RES   H21926163   1.273   7.190   6.345  0.6330 -0.4888 -0.2756
   93RES   H22026164   1.369   7.072   6.610 -2.3274  0.1294 -0.4211
   93RES   H22126165   1.504   7.268   6.573 -1.6349  0.1665 -1.6437
   93RES   H22226166   1.586   7.110   6.567 -2.0976 -0.9264  1.4327
   93RES   H22326167   1.770   7.244   6.436 -0.5974 -0.5876  0.0882
   93RES   H22426168   1.681   7.384   6.429  2.8014 -0.2570  1.6932
   93RES   H22526169   1.722   7.318   6.277  0.8358 -0.3567  0.0683
   93RES   O22626170   1.410   6.982   6.446  0.1244 -0.4700 -0.3906
   93RES   C22726171   1.310   6.882   6.449 -0.4045  0.5153 -0.6157
   93RES   C22826172   1.343   6.744   6.393 -0.7328 -0.5105 -0.0744
   93RES   C22926173   1.447   6.675   6.488  0.4538 -0.1544 -0.0995
   93RES   O23026174   1.524   6.579   6.410 -0.2678  0.1847  0.4321
   93RES   C23126175   1.634   6.526   6.485 -0.1034 -0.2443 -0.5690
   93RES   H23226176   1.219   6.921   6.403  0.1331  0.3532 -1.8229
   93RES   H23326177   1.290   6.873   6.556 -0.6447  0.6553 -0.6464
   93RES   H23426178   1.380   6.743   6.290 -0.0308  0.2817  0.1616
   93RES   H23526179   1.393   6.634   6.573  0.1323  3.0293  1.2924
   93RES   H23626180   1.516   6.749   6.528 -0.4864  0.2196  0.8168
   93RES   H23726181   1.695   6.458   6.426 -0.5694 -0.9254 -0.2759
   93RES   H23826182   1.593   6.466   6.565  1.4855 -0.6449 -0.0303
   93RES   H23926183   1.694   6.608   6.526 -1.1266  0.2918 -0.1080
   93RES   O24026184   1.221   6.668   6.392  0.8733 -0.0170 -0.1856
   93RES   C24126185   1.224   6.548   6.308  0.0054  0.1641 -0.2884
   93RES   C24226186   1.090   6.482   6.321 -0.6421  0.1046 -0.2652
   93RES   C24326187   1.039   6.420   6.188  0.5351 -0.2730  0.6336
   93RES   O24426188   0.899   6.396   6.186  0.0932  0.5595  0.0349
   93RES   C24526189   0.846   6.344   6.061  0.1344  0.5846  0.1740
   93RES   H24626190   1.311   6.487   6.333 -0.0162  0.2752  0.0604
   93RES   H24726191   1.241   6.590   6.208  0.7914  2.0596  0.6180
   93RES   H24826192   1.016   6.556   6.351 -2.6621 -1.5235 -1.1428
   93RES   H24926193   1.054   6.498   6.112 -1.9064 -0.2527  0.1338
   93RES   H25026194   1.103   6.336   6.163 -0.7639 -1.6337  1.8183
   93RES   H25126195   0.896   6.391   5.977  0.9931 -0.6026  0.0126
   93RES   H25226196   0.740   6.367   6.048  0.3692  0.7644 -1.5341
   93RES   H25326197   0.866   6.237   6.054 -0.2789  0.5440 -0.5189
   93RES   O25426198   1.114   6.395   6.426 -0.0764 -1.0276  0.4964
   93RES   C25526199   0.996   6.320   6.453  0.0459  0.3399  0.1205
   93RES   C25626200   0.992   6.261   6.597 -0.3159 -0.3530  0.5364
   93RES   C25726201   0.863   6.173   6.619 -0.3197  0.0680  1.0043
   93RES   O25826202   0.737   6.232   6.604  0.3253  0.0215 -0.4920
   93RES   C25926203   0.626   6.138   6.587  0.0051  0.0062 -0.4077
   93RES   H26026204   0.904   6.378   6.443 -1.4920 -2.3405 -1.9950
   93RES   H26126205   0.989   6.235   6.386 -1.5028  0.8159 -0.3507
   93RES   H26226206   0.997   6.340   6.672 -0.4768 -0.5678  0.7744
   93RES   H26326207   0.874   6.091   6.547 -1.0858 -1.2912  2.3992
   93RES   H26426208   0.873   6.132   6.719 -2.3508 -0.9541  0.8174
   93RES   H26526209   0.526   6.166   6.621  0.1566  0.0740 -0.0120
   93RES   H26626210   0.647   6.045   6.640  2.3649 -0.0575 -1.3514
   93RES   H26726211   0.611   6.109   6.483  0.8965 -0.4281 -0.4244
   93RES   O26826212   1.100   6.169   6.590 -0.2548 -0.2409  0.4265
   93RES   C26926213   1.214   6.208   6.658 -0.0405  0.2186 -0.0459
   93RES   C27026214   1.303   6.092   6.652 -0.3316  0.8148  0.2651
   93RES   C27126215   1.261   5.968   6.738  0.5894  0.4136  0.0386
   93RES   O27226216   1.383   5.903   6.779  0.0059  0.0553  0.1330
   93RES   C27326217   1.444   5.837   6.670 -0.2146 -0.1464 -0.1022
   93RES   H27426218   1.185   6.222   6.762  2.3590  1.7256  0.4617
   93RES   H27526219   1.266   6.296   6.619  1.6988 -0.9384 -0.3507
   93RES   H27626220   1.325   6.063   6.549 -1.3268 -0.9545  0.5342
   93RES   H27726221   1.197   5.895   6.688  1.8904 -0.6499 -0.1173
   93RES   H27826222   1.214   5.999   6.832  1.3856 -0.1561  0.6302
   93RES   H27926223   1.525   5.770   6.698  0.9418 -0.0486 -3.0216
   93RES   H28026224   1.501   5.900   6.602 -1.7872  1.2216 -0.2001
   93RES   H28126225   1.366   5.778   6.621  1.5080 -1.6450 -1.0998
   93RES   H28226226   1.398   6.127   6.692 -0.5793  2.3725 -0.4561
   94RES     O126227   5.438   6.139   4.838  0.0080  0.3559  0.4081
   94RES     C226228   5.547   6.216   4.799 -0.3611 -0.5795  0.3712
   94RES     C326229   5.589   6.288   4.930 -0.9753  0.2054  0.0080
   94RES     C426230   5.729   6.352   4.911 -0.3631 -0.4982 -0.2009
   94RES     O526231   5.799   6.374   5.035 -0.0061 -0.0444 -0.1058
   94RES     C626232   5.917   6.447   5.025  0.9329  0.0400 -0.0035
   94RES     H726233   5.627   6.150   4.762  1.7207  2.0443  0.0345
   94RES     H826234   5.525   6.294   4.727  1.6969 -0.4148 -0.1132
   94RES     H926235   5.598   6.216   5.010 -1.2089  0.2167  0.0436
   94RES    H1026236   5.724   6.443   4.851 -1.1425 -0.7146 -0.4729
   94RES    H1126237   5.797   6.296   4.846 -0.4549 -0.4282 -0.3580
   94RES    H1226238   5.995   6.384   4.981  1.0300 -0.0642  0.3134
   94RES    H1326239   5.903   6.535   4.962  1.4301  0.9491  1.1548
   94RES    H1426240   5.935   6.487   5.125  1.6636 -1.5838  0.5251
   94RES    H1526241   5.376   6.200   4.875 -0.3784  0.5931 -0.6232
   94RES    O1626242   5.493   6.387   4.957 -0.4458  0.0422  0.5647
   94RES    C1726243   5.507   6.481   5.069  0.1742 -0.0200  0.1384
   94RES    C1826244   5.495   6.415   5.210  0.2893  0.4118  0.3286
   94RES    C1926245   5.585   6.474   5.314  0.5577 -0.2241 -0.5808
   94RES    O2026246   5.594   6.392   5.430  0.1309 -0.3344 -0.1766
   94RES    C2126247   5.490   6.403   5.530 -0.1170 -0.2237  0.1708
   94RES    H2226248   5.423   6.548   5.049  0.7936  0.5301 -0.6394
   94RES    H2326249   5.589   6.551   5.057  0.2473 -0.0908  0.2284
   94RES    H2426250   5.526   6.312   5.193 -1.9100 -0.0361 -1.0890
   94RES    H2526251   5.684   6.482   5.269  0.6109 -1.3241 -0.6744
   94RES    H2626252   5.540   6.569   5.344 -1.2162 -1.5080  0.9900
   94RES    H2726253   5.472   6.505   5.563 -0.7423 -0.3676  0.2758
   94RES    H2826254   5.512   6.346   5.621 -1.0545  1.3946  1.4359
   94RES    H2926255   5.405   6.353   5.484  0.8036 -1.4514 -0.2400
   94RES    O3026256   5.357   6.415   5.254 -0.4628 -0.1641 -0.0243
   94RES    C3126257   5.263   6.333   5.182  0.5472  0.8749  0.6599
   94RES    C3226258   5.278   6.187   5.231 -0.3360  0.4930  0.0393
   94RES    C3326259   5.230   6.091   5.123 -0.8138  0.1737 -0.2273
   94RES    O3426260   5.269   5.963   5.169 -0.6328 -0.1357 -0.3471
   94RES    C3526261   5.214   5.860   5.096 -0.1586 -0.6439  0.2537
   94RES    H3626262   5.165   6.373   5.208  0.7803  2.0679 -0.2453
   94RES    H3726263   5.275   6.348   5.074  0.8210 -0.6759  0.4656
   94RES    H3826264   5.380   6.162   5.260 -0.3522  0.9032  0.4664
   94RES    H3926265   5.295   6.112   5.038 -0.4979  2.2915  0.5069
   94RES    H4026266   5.126   6.096   5.095 -0.5422 -2.1325 -1.7716
   94RES    H4126267   5.107   5.877   5.090 -0.2582 -1.2204  0.3011
   94RES    H4226268   5.253   5.772   5.149  0.1893  1.2164  3.2030
   94RES    H4326269   5.252   5.866   4.994 -2.0103 -2.0891 -0.5543
   94RES    O4426270   5.181   6.181   5.340  0.1542  0.5954  0.0531
   94RES    C4526271   5.225   6.095   5.446  0.3351 -0.2417  0.1884
   94RES    C4626272   5.156   6.143   5.574  0.8550 -0.7556 -0.3630
   94RES    C4726273   5.156   6.033   5.684 -0.1047 -0.1587  0.4742
   94RES    O4826274   5.059   6.047   5.775 -0.4027 -0.1345 -0.5375
   94RES    C4926275   4.930   6.001   5.749 -0.3605  0.3527  0.1945
   94RES    H5026276   5.334   6.101   5.456  0.4338 -0.3867 -0.7099
   94RES    H5126277   5.214   5.988   5.427  3.7214 -0.7312  0.5914
   94RES    H5226278   5.060   6.174   5.535  0.9910  2.1958  1.4832
   94RES    H5326279   5.136   5.936   5.639 -0.3721  0.4928 -0.8208
   94RES    H5426280   5.257   6.031   5.723 -0.1664  0.2464  0.6573
   94RES    H5526281   4.865   6.027   5.832 -0.2906 -0.0064  0.3619
   94RES    H5626282   4.928   5.893   5.737 -3.8186  0.3945 -0.1233
   94RES    H5726283   4.894   6.051   5.658 -0.6593 -0.5657 -0.1980
   94RES    O5826284   5.232   6.246   5.634 -0.0905  0.5600 -0.4577
   94RES    C5926285   5.165   6.348   5.711  0.7335 -0.6698  0.6645
   94RES    C6026286   5.124   6.461   5.619 -0.0176  0.5479 -0.5375
   94RES    C6126287   5.097   6.589   5.697 -0.6892  0.2958 -0.2452
   94RES    O6226288   5.219   6.664   5.713 -0.2129  0.6619  0.3629
   94RES    C6326289   5.206   6.785   5.790  0.5117  0.4620  0.1057
   94RES    H6426290   5.250   6.382   5.770 -0.5350  0.7354  1.7159
   94RES    H6526291   5.087   6.295   5.764 -1.0229 -0.0809 -1.2563
   94RES    H6626292   5.190   6.477   5.534 -0.6580 -0.7489 -1.2968
   94RES    H6726293   5.027   6.663   5.659  0.2023  0.0101 -2.5421
   94RES    H6826294   5.054   6.571   5.796 -2.1645  0.5988 -0.8321
   94RES    H6926295   5.306   6.827   5.803  1.3344 -0.6027 -2.2847
   94RES    H7026296   5.152   6.782   5.884  1.8292 -0.9587  0.8559
   94RES    H7126297   5.155   6.863   5.735 -0.4479  0.0993  0.4816
   94RES    O7226298   4.995   6.421   5.565 -0.5661 -0.3372 -0.1854
   94RES    C7326299   4.981   6.456   5.428 -0.3156 -0.0400 -0.6001
   94RES    C7426300   4.837   6.449   5.393 -0.0227  0.1704  1.3193
   94RES    C7526301   4.818   6.408   5.247 -0.0372  0.0588 -0.2183
   94RES    O7626302   4.701   6.359   5.224 -0.0104  0.7538  0.5022
   94RES    C7726303   4.667   6.349   5.088 -0.1624 -0.5420 -0.5306
   94RES    H7826304   5.027   6.549   5.397 -0.0427 -0.4525 -1.4206
   94RES    H7926305   5.040   6.382   5.374  0.7741  0.5083 -0.1748
   94RES    H8026306   4.791   6.376   5.459 -2.4436 -0.1793 -0.6572
   94RES    H8126307   4.895   6.341   5.208 -1.9312 -1.2755 -1.7185
   94RES    H8226308   4.833   6.494   5.182 -5.7316  0.5772 -1.0150
   94RES    H8326309   4.607   6.435   5.058 -0.2123 -0.8505 -1.3277
   94RES    H8426310   4.600   6.268   5.058  2.3355 -1.5127 -3.8765
   94RES    H8526311   4.761   6.351   5.033 -0.5285  0.9874 -1.0969
   94RES    O8626312   4.782   6.580   5.401 -0.2004  0.1530 -0.2210
   94RES    C8726313   4.647   6.571   5.439  0.0172  0.5101  0.3758
   94RES    C8826314   4.583   6.705   5.413 -0.0956  0.7797  0.7300
   94RES    C8926315   4.683   6.808   5.460  0.5629 -0.6356 -0.1970
   94RES    O9026316   4.606   6.929   5.485 -0.2951 -0.0997  0.3571
   94RES    C9126317   4.663   7.005   5.588  0.7434  0.3490 -0.1137
   94RES    H9226318   4.592   6.501   5.375  0.6430  0.8480 -0.5478
   94RES    H9326319   4.642   6.549   5.545  0.2956  0.9689  0.4844
   94RES    H9426320   4.488   6.710   5.468 -0.3879 -1.0791  0.4555
   94RES    H9526321   4.723   6.774   5.556 -0.3506 -0.9128  0.0926
   94RES    H9626322   4.765   6.835   5.394  1.0268  0.3947  0.7718
   94RES    H9726323   4.616   7.103   5.596 -3.7385 -1.7970  1.6864
   94RES    H9826324   4.654   6.953   5.683 -1.1934  1.3605  0.2848
   94RES    H9926325   4.772   7.003   5.588  0.7728 -2.5293  3.5927
   94RES   O10026326   4.559   6.741   5.274  0.1819 -0.5807 -0.0545
   94RES   C10126327   4.468   6.661   5.199  0.3339 -0.2986 -0.5988
   94RES   C10226328   4.443   6.726   5.068  0.1683  0.0542  0.0051
   94RES   C10326329   4.322   6.661   5.000  0.0364  0.6748 -0.3107
   94RES   O10426330   4.278   6.739   4.893 -0.2297 -0.6376 -0.1538
   94RES   C10526331   4.143   6.713   4.857  0.1415  0.1546  0.2761
   94RES   H10626332   4.371   6.661   5.249  0.0434 -0.6131 -1.1585
   94RES   H10726333   4.504   6.558   5.193 -0.7273 -0.5549 -3.2271
   94RES   H10826334   4.427   6.834   5.079 -0.4334  0.0816 -1.0788
   94RES   H10926335   4.246   6.665   5.078  1.3526  0.3827  1.0167
   94RES   H11026336   4.327   6.556   4.970 -0.3234  0.3180  0.8170
   94RES   H11126337   4.142   6.618   4.804  3.5229  1.0809 -1.6124
   94RES   H11226338   4.099   6.790   4.793 -1.0436 -0.6604  0.0901
   94RES   H11326339   4.075   6.705   4.942  1.0446 -0.8379  0.9077
   94RES   O11426340   4.569   6.704   4.999 -0.2226 -0.0596  0.7512
   94RES   C11526341   4.598   6.785   4.884  0.1190 -0.9464 -0.5533
   94RES   C11626342   4.739   6.748   4.838  0.0245 -0.4424  0.1478
   94RES   C11726343   4.756   6.778   4.683  0.1883  0.4561 -0.2433
   94RES   O11826344   4.863   6.704   4.627 -0.1197  0.0405 -0.0428
   94RES   C11926345   4.895   6.744   4.494 -0.5447  0.0744  0.0676
   94RES   H12026346   4.518   6.778   4.811 -1.3393  0.7675  0.8504
   94RES   H12126347   4.598   6.891   4.912 -0.2497  0.0468 -4.0220
   94RES   H12226348   4.762   6.643   4.852 -1.2886 -0.7296  0.2211
   94RES   H12326349   4.668   6.738   4.633  0.4290 -0.7610  0.3008
   94RES   H12426350   4.758   6.884   4.656 -4.5410  0.7395  0.0865
   94RES   H12526351   4.952   6.665   4.445  1.2770  2.6638 -2.1185
   94RES   H12626352   4.942   6.842   4.485  1.8280 -1.0715 -0.4252
   94RES   H12726353   4.803   6.750   4.435  0.0213 -0.2465 -0.8548
   94RES   O12826354   4.827   6.823   4.914 -0.1763 -0.1080 -0.0840
   94RES   C12926355   4.845   6.787   5.057 -0.0414  0.5549 -0.1919
   94RES   C13026356   4.972   6.859   5.107  0.6247  0.3657 -0.2710
   94RES   C13126357   5.048   6.774   5.212 -0.0362  0.1207  0.6305
   94RES   O13226358   5.186   6.793   5.221  0.1031 -0.2177  0.8144
   94RES   C13326359   5.258   6.722   5.320 -0.0069 -0.3402  0.0621
   94RES   H13426360   4.760   6.827   5.113 -2.4828  0.1162 -3.4458
   94RES   H13526361   4.860   6.681   5.077 -2.5716  0.5008  1.7456
   94RES   H13626362   5.038   6.877   5.022  3.5727 -3.6813  1.0257
   94RES   H13726363   5.048   6.670   5.179 -1.1099  0.4590 -0.5178
   94RES   H13826364   5.001   6.773   5.310 -3.0936  1.1177 -0.7332
   94RES   H13926365   5.232   6.734   5.425  2.4314 -1.8938  0.9005
   94RES   H14026366   5.253   6.614   5.301 -0.1520  0.0403 -2.2687
   94RES   H14126367   5.361   6.755   5.305  0.7205 -1.4850  2.2795
   94RES   O14226368   4.937   6.983   5.166  0.4159  0.1386  0.3068
   94RES   C14326369   4.960   7.097   5.081  0.4185 -0.6437  0.2948
   94RES   C14426370   4.925   7.233   5.150  0.3405 -0.2986 -0.0976
   94RES   C14526371   4.877   7.332   5.047 -0.3138  0.1832 -0.1929
   94RES   O14626372   4.837   7.459   5.111  0.0363 -0.8081  0.0624
   94RES   C14726373   4.809   7.556   5.014  0.0634  0.1408 -0.3985
   94RES   H14826374   5.062   7.108   5.045  0.6398  0.8082  1.3461
   94RES   H14926375   4.889   7.087   4.999  0.9425 -1.3917 -0.0703
   94RES   H15026376   4.845   7.209   5.220  0.9624 -1.6660  0.1702
   94RES   H15126377   4.790   7.288   4.999  0.2604 -2.6710  1.3143
   94RES   H15226378   4.962   7.339   4.980 -0.4019  1.6471 -0.1661
   94RES   H15326379   4.780   7.641   5.076 -0.3098 -1.6508  1.9618
   94RES   H15426380   4.727   7.530   4.946 -1.1293 -1.4843  1.6097
   94RES   H15526381   4.895   7.559   4.947  1.5703 -1.1259  1.4270
   94RES   O15626382   5.036   7.283   5.220  0.6252  0.0820 -0.5709
   94RES   C15726383   5.066   7.219   5.353  0.5287 -0.5967  0.2739
   94RES   C15826384   5.183   7.119   5.343 -0.0096  0.5108  0.2121
   94RES   C15926385   5.179   7.029   5.464 -0.3331  0.7084 -0.0327
   94RES   O16026386   5.163   7.100   5.586 -0.9237  0.4691  0.4600
   94RES   C16126387   5.286   7.129   5.660  0.1431  0.2328  0.1474
   94RES   H16226388   5.103   7.296   5.421 -0.7689 -0.2453  0.6018
   94RES   H16326389   4.983   7.165   5.398  0.0296 -0.0756 -0.0103
   94RES   H16426390   5.170   7.057   5.254  1.1579  1.3534 -0.5721
   94RES   H16526391   5.091   6.966   5.454  0.0903  0.4354 -2.1230
   94RES   H16626392   5.265   6.964   5.475 -0.4195  0.3220 -1.5756
   94RES   H16726393   5.258   7.174   5.755 -2.3066  1.1161 -0.9669
   94RES   H16826394   5.337   7.209   5.607 -0.3970  1.2403  1.1294
   94RES   H16926395   5.355   7.045   5.674  0.4259  0.2765 -0.9394
   94RES   O17026396   5.305   7.187   5.325 -0.3381  0.0763 -0.7691
   94RES   C17126397   5.386   7.135   5.221  0.8904 -0.4066 -0.4607
   94RES   C17226398   5.514   7.223   5.214  0.5003  0.4950  0.8682
   94RES   C17326399   5.578   7.209   5.074 -0.1613 -0.0773 -0.8962
   94RES   O17426400   5.667   7.313   5.067  0.1511 -0.7107  0.3101
   94RES   C17526401   5.752   7.319   4.947 -0.0652 -0.4965  0.0246
   94RES   H17626402   5.324   7.146   5.132 -0.1245  0.4159  0.3366
   94RES   H17726403   5.418   7.032   5.237  0.8106 -0.4065 -0.2972
   94RES   H17826404   5.504   7.330   5.231 -2.0063  0.3174  0.6850
   94RES   H17926405   5.620   7.108   5.077 -3.2528 -1.4826 -2.2795
   94RES   H18026406   5.510   7.201   4.989 -0.5184  2.1439 -0.8296
   94RES   H18126407   5.796   7.419   4.950  0.7264 -0.7032 -2.8535
   94RES   H18226408   5.690   7.314   4.858  1.8936  0.8485 -1.4673
   94RES   H18326409   5.824   7.238   4.950  2.3463  1.5391 -0.5537
   94RES   O18426410   5.617   7.161   5.292 -0.9010  0.2821  0.2033
   94RES   C18526411   5.644   7.218   5.420 -0.9495 -0.0933  0.2962
   94RES   C18626412   5.732   7.119   5.497 -0.0339 -0.5329 -0.6242
   94RES   C18726413   5.651   6.998   5.547  1.1100 -0.4615  0.0310
   94RES   O18826414   5.734   6.880   5.552  0.1690  0.5730  0.4248
   94RES   C18926415   5.662   6.757   5.554  0.0649 -0.1670  0.7467
   94RES   H19026416   5.544   7.233   5.461 -1.1008  2.2683 -0.8510
   94RES   H19126417   5.691   7.315   5.407  2.8772 -1.5847  2.0519
   94RES   H19226418   5.812   7.097   5.427  2.3342  1.2485  1.3987
   94RES   H19326419   5.570   6.978   5.477 -0.2608 -1.8058  1.9191
   94RES   H19426420   5.591   7.005   5.638  0.8858 -0.1106 -0.1466
   94RES   H19526421   5.734   6.677   5.538 -1.0120 -1.0401  0.1632
   94RES   H19626422   5.621   6.745   5.655 -1.8694 -0.5545 -0.0559
   94RES   H19726423   5.583   6.740   5.481  1.0236 -1.3409 -0.0452
   94RES   O19826424   5.787   7.173   5.617 -0.0450  0.2720  0.1631
   94RES   C19926425   5.923   7.212   5.599  0.8429 -0.2687 -0.6089
   94RES   C20026426   6.026   7.101   5.635  0.1174 -0.2223 -0.8639
   94RES   C20126427   6.163   7.167   5.655  0.4574  0.1826 -0.0701
   94RES   O20226428   6.261   7.070   5.719 -0.3515 -0.1248  0.3666
   94RES   C20326429   6.388   7.137   5.749  0.3108 -0.2299 -0.3375
   94RES   H20426430   5.925   7.292   5.672  1.0429 -0.3677 -0.5059
   94RES   H20526431   5.945   7.259   5.503 -0.0036  0.6876 -0.3323
   94RES   H20626432   6.004   7.058   5.733  1.3673 -0.2693 -0.6019
   94RES   H20726433   6.199   7.201   5.558 -0.1742 -1.4599 -0.8931
   94RES   H20826434   6.148   7.254   5.720  0.3812  0.5464 -0.5734
   94RES   H20926435   6.368   7.244   5.754  0.4978 -0.2172  0.1201
   94RES   H21026436   6.465   7.132   5.672 -1.1763 -2.2400 -1.7433
   94RES   H21126437   6.427   7.100   5.843  0.8083  0.6013 -0.2060
   94RES   O21226438   6.022   7.015   5.522  0.5024 -0.3174 -0.1160
   94RES   C21326439   6.051   6.881   5.568  0.2314  0.1452 -0.0299
   94RES   C21426440   6.024   6.781   5.460 -0.0163  0.0593  0.3525
   94RES   C21526441   6.013   6.639   5.512  0.4128  0.3845  0.6770
   94RES   O21626442   5.941   6.559   5.418  0.5083 -0.2390  0.3094
   94RES   C21726443   5.925   6.420   5.451  0.4998  0.3884 -0.9290
   94RES   H21826444   6.010   6.861   5.667 -1.2595  2.5755 -0.1174
   94RES   H21926445   6.159   6.887   5.580  0.4737 -1.1925 -1.4430
   94RES   H22026446   5.929   6.813   5.417  0.6640  1.4733 -0.1080
   94RES   H22126447   6.110   6.593   5.530  0.8330  1.0827  0.2401
   94RES   H22226448   5.959   6.644   5.606  0.0543  3.0102  0.3550
   94RES   H22326449   5.853   6.382   5.378 -1.0232  0.3656  0.5661
   94RES   H22426450   5.872   6.404   5.544  1.5142  0.6819 -0.2893
   94RES   H22526451   6.021   6.369   5.459  0.1439 -0.4391 -1.8486
   94RES   O22626452   6.131   6.787   5.362  0.6608 -0.2654 -0.2196
   94RES   C22726453   6.093   6.775   5.226  0.8034 -0.2048  0.0691
   94RES   C22826454   6.217   6.766   5.135 -0.1511 -0.8595  0.7216
   94RES   C22926455   6.186   6.703   5.001  0.3406  0.3332  0.4778
   94RES   O23026456   6.293   6.614   4.964  0.0462 -0.6234 -0.0318
   94RES   C23126457   6.417   6.679   4.943 -0.4672 -0.2332 -0.3304
   94RES   H23226458   6.039   6.864   5.193  1.0942 -0.1477 -0.2660
   94RES   H23326459   6.017   6.698   5.215  1.3530 -1.0635  2.1754
   94RES   H23426460   6.293   6.706   5.186  0.3891 -1.4491 -0.7370
   94RES   H23526461   6.150   6.777   4.930  0.2324 -1.3382 -1.2637
   94RES   H23626462   6.102   6.633   5.007 -1.0057  2.0310  1.9705
   94RES   H23726463   6.493   6.602   4.926 -1.1757 -0.7661 -1.1268
   94RES   H23826464   6.446   6.747   5.023  0.4873  0.9084 -1.6108
   94RES   H23926465   6.397   6.743   4.857  0.6305  0.3134 -0.1864
   94RES   O24026466   6.267   6.892   5.102 -0.1902 -0.1813 -0.2815
   94RES   C24126467   6.365   6.940   5.200 -0.5090  0.3957 -0.9812
   94RES   C24226468   6.414   7.087   5.187  0.1119 -0.7179  0.2095
   94RES   C24326469   6.446   7.149   5.326  0.5695 -0.0711  0.0561
   94RES   O24426470   6.488   7.282   5.310  0.3523  0.1284  0.3431
   94RES   C24526471   6.543   7.352   5.419  0.2047 -0.5976 -0.2657
   94RES   H24626472   6.456   6.880   5.199  1.4411  3.0385  2.9271
   94RES   H24726473   6.326   6.929   5.301 -1.0209 -0.5252 -1.2817
   94RES   H24826474   6.335   7.146   5.142  1.1094  0.0335 -0.5953
   94RES   H24926475   6.361   7.132   5.391  1.4935  1.7270  1.7902
   94RES   H25026476   6.531   7.098   5.371  0.0494  0.4154  1.5959
   94RES   H25126477   6.471   7.357   5.500 -0.8781  0.2354 -1.2696
   94RES   H25226478   6.563   7.455   5.389 -0.6930 -1.0614 -2.5994
   94RES   H25326479   6.632   7.302   5.456  1.2918  0.2901 -1.5923
   94RES   O25426480   6.526   7.092   5.108 -0.2549 -0.1653  0.6396
   94RES   C25526481   6.498   7.096   4.964  0.8133  0.7589  0.6695
   94RES   C25626482   6.637   7.125   4.900  0.3223  0.5994  0.4227
   94RES   C25726483   6.706   7.249   4.967  0.2641  0.1646 -0.4600
   94RES   O25826484   6.807   7.307   4.880  0.0452 -0.1764 -0.4603
   94RES   C25926485   6.854   7.430   4.927 -0.5652 -0.3922  0.1341
   94RES   H26026486   6.457   6.997   4.942  0.0495  0.6296  2.5525
   94RES   H26126487   6.420   7.164   4.930 -1.5225 -0.4391  3.4141
   94RES   H26226488   6.615   7.151   4.796 -0.3846 -0.4333  0.3104
   94RES   H26326489   6.628   7.323   4.985 -0.0437 -0.6985  1.8324
   94RES   H26426490   6.741   7.230   5.068  0.6976 -0.6148 -0.7586
   94RES   H26526491   6.802   7.513   4.879 -1.2724  0.1954  1.8939
   94RES   H26626492   6.955   7.438   4.887 -0.1702  1.1750  1.4046
   94RES   H26726493   6.845   7.436   5.035  1.6207 -2.9325  0.4875
   94RES   O26826494   6.723   7.009   4.902 -0.0328  0.5187 -0.0048
   94RES   C26926495   6.699   6.920   4.794  0.0033  0.3991  0.4738
   94RES   C27026496   6.743   6.786   4.836  0.5175  0.6495  0.1688
   94RES   C27126497   6.717   6.678   4.728 -0.5953  0.1880 -1.1945
   94RES   O27226498   6.819   6.676   4.635 -0.0905  0.3966  0.4982
   94RES   C27326499   6.817   6.559   4.549 -0.3398 -0.0023 -0.5243
   94RES   H27426500   6.749   6.946   4.701 -2.3572 -0.2201 -1.0245
   94RES   H27526501   6.596   6.925   4.757  0.0354  0.7631  0.4287
   94RES   H27626502   6.850   6.787   4.857  0.0822 -1.7083  2.8380
   94RES   H27726503   6.615   6.681   4.690 -0.3285  0.6035 -1.8731
   94RES   H27826504   6.720   6.580   4.776  1.5164  0.5994 -0.4206
   94RES   H27926505   6.832   6.464   4.599  0.6680  1.5574  2.2904
   94RES   H28026506   6.902   6.565   4.482 -0.3127  2.5717 -0.3226
   94RES   H28126507   6.727   6.553   4.487  0.9559 -0.9086 -2.3374
   94RES   H28226508   6.683   6.760   4.923 -0.4383  0.2744 -0.6009
   95RES     O126509   2.675   3.562   5.198  0.0364 -0.8058 -0.0193
   95RES     C226510   2.561   3.609   5.265  0.2026 -0.8349 -0.4433
   95RES     C326511   2.444   3.634   5.174  0.5518 -0.1292  0.2393
   95RES     C426512   2.336   3.718   5.235  0.2252 -0.3848 -0.3338
   95RES     O526513   2.215   3.694   5.167 -0.0764  0.6409 -0.3275
   95RES     C626514   2.114   3.782   5.193 -0.7658  0.0627  0.7785
   95RES     H726515   2.535   3.530   5.334 -0.3895  0.8762  1.3253
   95RES     H826516   2.571   3.708   5.309 -2.2090  0.4792 -2.7013
   95RES     H926517   2.400   3.549   5.121  0.7837 -0.3254  0.3628
   95RES    H1026518   2.389   3.811   5.215 -0.4573 -0.3054 -1.8316
   95RES    H1126519   2.320   3.705   5.342  1.2385 -1.4603 -0.3024
   95RES    H1226520   2.152   3.882   5.213 -1.1618  0.7129 -1.5530
   95RES    H1326521   2.053   3.802   5.105 -0.8141  0.3142  0.8670
   95RES    H1426522   2.049   3.729   5.263 -2.0979 -2.5955 -2.3437
   95RES    H1526523   2.711   3.632   5.145  1.0249 -0.8364  0.5912
   95RES    O1626524   2.505   3.718   5.066  0.1340  0.4591  0.0331
   95RES    C1726525   2.502   3.670   4.933  0.5373  0.7123 -0.1134
   95RES    C1826526   2.556   3.770   4.827 -0.1148 -0.2814  0.3791
   95RES    C1926527   2.587   3.696   4.695  0.7402 -0.6387 -0.5385
   95RES    O2026528   2.676   3.787   4.632 -0.2178  0.2609  0.2651
   95RES    C2126529   2.741   3.721   4.523  0.1844  0.7769 -0.0984
   95RES    H2226530   2.403   3.632   4.909  0.7258 -0.1910  0.5120
   95RES    H2326531   2.570   3.585   4.938 -0.1822  0.0475 -1.5375
   95RES    H2426532   2.647   3.823   4.856  0.5320 -1.3171  0.2466
   95RES    H2526533   2.640   3.605   4.720  1.7734 -0.0815 -0.6744
   95RES    H2626534   2.492   3.674   4.645  0.5796 -0.7113 -0.2001
   95RES    H2726535   2.666   3.669   4.462  0.5383 -0.8377  0.8048
   95RES    H2826536   2.820   3.656   4.561  1.0512  1.1041 -1.3082
   95RES    H2926537   2.794   3.799   4.468  0.8962 -0.3527 -1.0429
   95RES    O3026538   2.448   3.861   4.795 -0.0909  0.5912  0.3173
   95RES    C3126539   2.432   3.965   4.888  0.2586  0.1656 -0.7333
   95RES    C3226540   2.299   4.032   4.872 -0.4147  0.2307 -0.3103
   95RES    C3326541   2.178   3.937   4.857 -0.8276  0.5190 -0.7768
   95RES    O3426542   2.057   4.010   4.877 -0.2686 -0.3397  0.0587
   95RES    C3526543   1.938   3.932   4.858  0.3637  0.1571 -0.1966
   95RES    H3626544   2.440   3.921   4.987  0.2814 -2.6520 -1.9292
   95RES    H3726545   2.516   4.034   4.886  0.2400  0.1923 -0.5822
   95RES    H3826546   2.283   4.079   4.969  1.2887 -0.5475  0.3612
   95RES    H3926547   2.190   3.864   4.938 -1.3340  1.6662  0.3465
   95RES    H4026548   2.180   3.869   4.771  0.8516  0.3611 -0.6365
   95RES    H4126549   1.923   3.921   4.751  0.7157 -0.6255 -0.1658
   95RES    H4226550   1.862   3.988   4.913  0.2435 -0.5544  0.3688
   95RES    H4326551   1.942   3.839   4.915 -2.7847  0.7696  1.1313
   95RES    O4426552   2.297   4.112   4.758  0.0610  0.2763 -0.3640
   95RES    C4526553   2.343   4.244   4.772  0.1262  0.3571 -0.8035
   95RES    C4626554   2.251   4.331   4.857  0.4396  0.1388  0.3732
   95RES    C4726555   2.334   4.453   4.912 -0.3035  0.5485 -0.5975
   95RES    O4826556   2.249   4.545   4.983  0.2090  0.0390  0.4020
   95RES    C4926557   2.205   4.505   5.108 -0.2761 -0.3811 -0.3223
   95RES    H5026558   2.361   4.289   4.675  2.2784 -0.7877 -0.9628
   95RES    H5126559   2.444   4.244   4.813  0.2494 -0.7159 -1.0811
   95RES    H5226560   2.201   4.286   4.943 -0.9102  2.0606  0.6131
   95RES    H5326561   2.420   4.420   4.970 -1.5491  0.6730  1.3655
   95RES    H5426562   2.379   4.511   4.831  1.6540 -0.1904 -0.0622
   95RES    H5526563   2.280   4.489   5.185  0.4002  0.1033 -0.8775
   95RES    H5626564   2.147   4.413   5.116  1.1810 -1.2177  0.6410
   95RES    H5726565   2.143   4.590   5.139  0.3946  0.3687 -1.0336
   95RES    O5826566   2.152   4.390   4.774 -0.4903 -0.3021  0.3822
   95RES    C5926567   2.051   4.297   4.733 -0.5848  0.0424 -0.7076
   95RES    C6026568   1.931   4.358   4.652 -0.4383  0.1921 -0.4063
   95RES    C6126569   1.815   4.253   4.659 -0.0913 -0.2721 -0.1085
   95RES    O6226570   1.687   4.306   4.620  0.2412  0.6457 -0.2058
   95RES    C6326571   1.578   4.220   4.633  0.4258  0.1969  0.1018
   95RES    H6426572   2.016   4.260   4.829  0.4513 -0.0812 -0.3773
   95RES    H6526573   2.086   4.204   4.689  0.3921 -0.3035  0.7849
   95RES    H6626574   1.896   4.454   4.690 -1.0673  1.0054 -2.9178
   95RES    H6726575   1.836   4.163   4.600 -0.9827  0.1344 -1.0801
   95RES    H6826576   1.807   4.219   4.762  2.1823  1.3798  0.6408
   95RES    H6926577   1.489   4.255   4.582  0.5934  1.9766  0.9936
   95RES    H7026578   1.537   4.217   4.733 -0.0998  0.9050 -0.0927
   95RES    H7126579   1.600   4.115   4.609  0.6286 -0.1478  1.7564
   95RES    O7226580   1.963   4.369   4.512  0.1571 -0.2414 -0.2969
   95RES    C7326581   2.068   4.457   4.489  0.9709 -0.2152 -0.0476
   95RES    C7426582   2.036   4.548   4.364 -0.2497  0.5541  0.9696
   95RES    C7526583   1.912   4.630   4.364  0.3065 -0.0799  0.0425
   95RES    O7626584   1.903   4.730   4.254 -0.3466  0.1657 -0.2288
   95RES    C7726585   1.782   4.799   4.261  0.3189 -0.1093  0.9463
   95RES    H7826586   2.077   4.528   4.572 -1.1272  0.7422 -0.6118
   95RES    H7926587   2.166   4.410   4.492  0.3743 -1.4119  1.3999
   95RES    H8026588   2.125   4.610   4.355  1.0444 -1.4387 -0.7692
   95RES    H8126589   1.892   4.670   4.463 -0.7324 -0.9012  0.1674
   95RES    H8226590   1.829   4.562   4.347 -1.0333  1.8408 -1.3228
   95RES    H8326591   1.699   4.731   4.242  1.9035 -1.1147 -3.0270
   95RES    H8426592   1.778   4.865   4.174 -1.9220  0.2319  1.2660
   95RES    H8526593   1.772   4.856   4.353 -1.4555 -1.4663  1.6274
   95RES    O8626594   2.030   4.446   4.260  0.3570  0.2684 -0.0481
   95RES    C8726595   2.153   4.434   4.186  0.4547  0.0098  0.2802
   95RES    C8826596   2.138   4.307   4.094  0.1126  0.1308  0.0665
   95RES    C8926597   2.238   4.330   3.978  0.4527  0.1837  0.0859
   95RES    O9026598   2.165   4.337   3.854 -0.4726  0.5614  0.5206
   95RES    C9126599   2.141   4.475   3.812  0.4355  0.3392  0.6595
   95RES    H9226600   2.164   4.520   4.120  0.8510 -1.0990 -1.1104
   95RES    H9326601   2.238   4.427   4.254 -0.0118 -0.6348  0.8012
   95RES    H9426602   2.039   4.293   4.052  0.5775  0.7092 -1.2692
   95RES    H9526603   2.302   4.417   3.991  2.5645 -1.3126 -0.2118
   95RES    H9626604   2.304   4.244   3.970 -0.0244 -0.1792  0.0483
   95RES    H9726605   2.069   4.529   3.874  0.1607 -0.4592  1.0436
   95RES    H9826606   2.234   4.529   3.800 -0.4776  1.9295  0.5633
   95RES    H9926607   2.106   4.484   3.708  0.8785 -1.8340  0.2994
   95RES   O10026608   2.168   4.175   4.153 -0.0798  0.0220  0.1197
   95RES   C10126609   2.101   4.141   4.276 -0.3834 -0.0813 -0.1436
   95RES   C10226610   2.163   4.004   4.326  0.5520  0.0697 -0.6160
   95RES   C10326611   2.105   3.964   4.461 -0.3179 -0.7028 -0.3027
   95RES   O10426612   2.111   3.817   4.483  0.2360 -0.4384 -0.4378
   95RES   C10526613   2.237   3.753   4.463 -0.3283  0.1570  0.4311
   95RES   H10626614   1.994   4.121   4.266 -0.5707 -1.0732  3.0496
   95RES   H10726615   2.120   4.225   4.344 -2.1623  2.7867 -3.0328
   95RES   H10826616   2.135   3.930   4.252  1.3292 -0.8365 -0.0279
   95RES   H10926617   2.004   4.001   4.478  1.0044  1.5568  3.0681
   95RES   H11026618   2.155   4.012   4.545 -3.4012 -0.1477  1.2646
   95RES   H11126619   2.299   3.794   4.383 -1.4134  1.7879  0.4147
   95RES   H11226620   2.223   3.645   4.451 -0.3164  0.1675  0.3178
   95RES   H11326621   2.295   3.772   4.553  1.8293 -1.1976 -0.6237
   95RES   O11426622   2.301   4.014   4.323  0.4456  0.0000 -0.1362
   95RES   C11526623   2.366   4.115   4.409  0.1438  0.3061 -0.7331
   95RES   C11626624   2.509   4.139   4.360 -0.6923 -0.3222  0.2475
   95RES   C11726625   2.508   4.246   4.261  0.4817 -1.3152  0.1823
   95RES   O11826626   2.628   4.242   4.185  0.4456  0.7088  0.2397
   95RES   C11926627   2.622   4.305   4.058  0.0897 -0.7213 -0.9182
   95RES   H12026628   2.315   4.209   4.429 -0.7517 -0.3195 -0.0475
   95RES   H12126629   2.373   4.057   4.501 -1.4917 -0.0430 -0.8080
   95RES   H12226630   2.554   4.053   4.309 -0.4488  2.1043 -3.8461
   95RES   H12326631   2.423   4.221   4.197  1.8804  0.6971 -2.5663
   95RES   H12426632   2.485   4.344   4.301 -0.1798 -1.2148 -0.4407
   95RES   H12526633   2.623   4.413   4.076 -0.5255 -0.7644 -0.6028
   95RES   H12626634   2.537   4.272   3.999  0.0691  3.0893 -3.2080
   95RES   H12726635   2.709   4.301   3.992 -0.4694  0.4358 -1.7437
   95RES   O12826636   2.599   4.186   4.462 -0.6044  0.2189  0.3045
   95RES   C12926637   2.644   4.082   4.540 -0.1036  0.0392 -0.4151
   95RES   C13026638   2.749   4.141   4.633  1.0140  0.1828 -0.2731
   95RES   C13126639   2.826   4.040   4.726 -0.4638 -0.0060 -0.5099
   95RES   O13226640   2.954   4.087   4.781  0.0022 -0.2451  0.5973
   95RES   C13326641   3.065   4.048   4.703  0.9074  0.6174 -0.1207
   95RES   H13426642   2.567   4.031   4.599 -2.5705  4.4396  0.3335
   95RES   H13526643   2.681   3.997   4.481  1.4545  0.4213 -0.0110
   95RES   H13626644   2.823   4.198   4.577 -0.4461  0.8129 -1.6270
   95RES   H13726645   2.830   3.939   4.686  1.1881 -0.3200  0.4005
   95RES   H13826646   2.769   4.027   4.818  1.8551 -2.1076  0.7211
   95RES   H13926647   3.069   4.087   4.601 -0.6150  2.9842  0.6834
   95RES   H14026648   3.160   4.082   4.746  1.0191  2.2092 -1.5598
   95RES   H14126649   3.079   3.940   4.701 -0.4867  0.4402 -1.2970
   95RES   O14226650   2.663   4.223   4.709 -0.1967  0.6775  0.6041
   95RES   C14326651   2.729   4.338   4.766 -0.8875 -0.0297 -0.0936
   95RES   C14426652   2.774   4.441   4.665  0.3986 -0.2296 -0.2647
   95RES   C14526653   2.852   4.553   4.746  0.3087 -0.0937  0.2487
   95RES   O14626654   2.923   4.629   4.658 -0.1766 -0.1096 -0.1754
   95RES   C14726655   2.994   4.735   4.733 -0.0661 -0.2997 -0.3978
   95RES   H14826656   2.666   4.393   4.836  0.3482 -0.5295  1.4434
   95RES   H14926657   2.820   4.306   4.818 -0.0426  0.8902 -0.9861
   95RES   H15026658   2.834   4.406   4.582  1.8928 -0.6268  0.9665
   95RES   H15126659   2.917   4.507   4.820  0.1695 -0.8674 -0.0985
   95RES   H15226660   2.785   4.622   4.797  1.3327 -0.1775  1.7349
   95RES   H15326661   3.074   4.791   4.684  1.1590 -0.5733  1.2370
   95RES   H15426662   3.042   4.690   4.821  0.0926 -1.2464 -0.9618
   95RES   H15526663   2.919   4.804   4.772  0.5907  1.2458 -1.8243
   95RES   O15626664   2.652   4.495   4.620  0.5035  0.4610  0.0394
   95RES   C15726665   2.652   4.579   4.503  0.6778  0.2983 -0.2063
   95RES   C15826666   2.513   4.601   4.426  0.0699  0.8890 -0.3398
   95RES   C15926667   2.520   4.645   4.283 -0.3320  0.0675  0.5003
   95RES   O16026668   2.411   4.611   4.201  0.2401  0.6003 -0.0861
   95RES   C16126669   2.408   4.697   4.087 -0.3914 -0.6250  0.3981
   95RES   H16226670   2.686   4.678   4.531  0.6745  0.1944  0.1778
   95RES   H16326671   2.714   4.538   4.423  0.9392  0.1585  0.0666
   95RES   H16426672   2.450   4.512   4.427  1.3309 -0.0450 -2.3131
   95RES   H16526673   2.554   4.748   4.294  1.1257 -0.6434  2.9149
   95RES   H16626674   2.603   4.587   4.242 -1.2292 -0.8759  0.0024
   95RES   H16726675   2.334   4.666   4.013  1.3235  1.1952 -2.1717
   95RES   H16826676   2.505   4.694   4.036  1.1405  1.2058  3.0585
   95RES   H16926677   2.387   4.802   4.106  0.2313 -0.6664  1.3570
   95RES   O17026678   2.431   4.710   4.479 -0.7253  0.6229 -0.0721
   95RES   C17126679   2.372   4.681   4.602 -0.6358 -0.4834  0.3302
   95RES   C17226680   2.305   4.813   4.648 -0.5923  0.5703  0.2631
   95RES   C17326681   2.241   4.792   4.781 -0.6909 -0.3487  0.3191
   95RES   O17426682   2.202   4.921   4.832 -0.1332 -0.1509 -0.3877
   95RES   C17526683   2.151   4.912   4.962 -0.5000 -0.1202  0.3574
   95RES   H17626684   2.442   4.643   4.677  0.4613 -0.1850 -0.5207
   95RES   H17726685   2.289   4.611   4.590 -1.3859 -0.0142  2.6048
   95RES   H17826686   2.370   4.900   4.649  1.0079 -0.5984  0.6625
   95RES   H17926687   2.153   4.728   4.772 -2.2746  2.1641 -2.7145
   95RES   H18026688   2.308   4.742   4.852 -1.0559  0.7895  1.4697
   95RES   H18126689   2.089   5.001   4.975 -1.8988 -1.2616  1.7600
   95RES   H18226690   2.231   4.919   5.037  0.2160 -2.4983 -0.1636
   95RES   H18326691   2.080   4.830   4.969 -0.5184 -0.0836  0.6223
   95RES   O18426692   2.190   4.837   4.558 -0.2424  0.4043 -0.3516
   95RES   C18526693   2.223   4.904   4.434 -0.0075  0.3079 -0.6236
   95RES   C18626694   2.103   4.989   4.377  0.7594 -0.1639  0.5167
   95RES   C18726695   2.115   5.018   4.233  0.1108 -0.7527  0.4554
   95RES   O18826696   1.986   5.031   4.171 -0.6795 -0.6817 -0.0512
   95RES   C18926697   1.935   5.158   4.181  0.5235 -0.3885 -0.0942
   95RES   H19026698   2.247   4.830   4.357 -1.0221 -0.7629  0.0594
   95RES   H19126699   2.310   4.967   4.449  0.4223 -1.0847  3.3550
   95RES   H19226700   2.013   4.928   4.388  0.2833  0.5127  0.3939
   95RES   H19326701   2.169   4.942   4.176  1.1153  0.0032  0.3758
   95RES   H19426702   2.173   5.111   4.237 -2.0858  0.7606 -1.6488
   95RES   H19526703   1.971   5.219   4.098  2.0590  1.5278  1.9180
   95RES   H19626704   1.828   5.150   4.161  0.2494 -0.7418  1.4692
   95RES   H19726705   1.956   5.193   4.282  3.1095 -1.1725 -0.3208
   95RES   O19826706   2.092   5.112   4.452 -0.2003  0.3210  0.2898
   95RES   C19926707   2.006   5.113   4.569  0.0617 -0.6766 -0.1117
   95RES   C20026708   2.025   5.255   4.629 -0.0288  0.0814 -0.9550
   95RES   C20126709   1.981   5.266   4.779 -0.1711 -0.2282  0.1711
   95RES   O20226710   2.036   5.384   4.839 -0.4690  0.0151 -0.0976
   95RES   C20326711   2.001   5.405   4.969  0.1269  0.3460 -0.1688
   95RES   H20426712   2.030   5.034   4.640 -3.7590 -3.6576 -1.9203
   95RES   H20526713   1.905   5.096   4.533  0.2786 -2.8450  0.2391
   95RES   H20626714   2.130   5.280   4.613 -0.1105  1.9391  1.2110
   95RES   H20726715   1.873   5.261   4.783 -0.3789  1.4949 -2.1603
   95RES   H20826716   2.016   5.175   4.828  1.4308  0.2465 -0.0480
   95RES   H20926717   2.061   5.489   5.003  0.8751 -0.0927 -0.3682
   95RES   H21026718   2.033   5.323   5.034  1.2518  0.2109 -0.8828
   95RES   H21126719   1.895   5.419   4.986 -0.6230 -0.4764 -3.8249
   95RES   O21226720   1.958   5.339   4.538 -0.1855  0.4430 -0.0034
   95RES   C21326721   1.969   5.478   4.558 -0.1754  0.1575 -0.5907
   95RES   C21426722   1.897   5.533   4.426 -0.8135 -0.3166 -0.6767
   95RES   C21526723   1.747   5.479   4.412 -0.9693  0.5298 -0.4203
   95RES   O21626724   1.655   5.568   4.362 -0.5651  0.6357  0.4106
   95RES   C21726725   1.608   5.668   4.451  0.0606 -0.1486  0.1600
   95RES   H21826726   2.076   5.503   4.557 -0.0847 -0.2249 -0.6318
   95RES   H21926727   1.913   5.497   4.649 -1.8536 -3.0104 -0.8745
   95RES   H22026728   1.901   5.641   4.435  1.5622 -0.5549  1.5893
   95RES   H22126729   1.755   5.387   4.355  0.6863  1.0777 -1.0826
   95RES   H22226730   1.710   5.431   4.503  1.6325 -1.7814 -0.5018
   95RES   H22326731   1.695   5.727   4.478 -0.8542  0.7802  1.1077
   95RES   H22426732   1.560   5.622   4.538  1.2317 -1.1720  0.2802
   95RES   H22526733   1.535   5.738   4.410  0.4916  0.4046  0.3410
   95RES   O22626734   1.977   5.492   4.315 -0.3470 -0.1987  0.1435
   95RES   C22726735   1.995   5.584   4.210  0.5276  0.0734 -0.2134
   95RES   C22826736   2.088   5.521   4.102  0.2683 -0.1388 -0.3073
   95RES   C22926737   2.085   5.622   3.974  0.6556  0.0261  0.0607
   95RES   O23026738   2.129   5.754   4.014 -0.5127 -0.1204  0.1064
   95RES   C23126739   2.269   5.756   4.036  0.1624 -0.1045  0.3542
   95RES   H23226740   2.026   5.683   4.245  0.8568  0.1984 -0.8563
   95RES   H23326741   1.895   5.585   4.169  0.3566 -2.4694  0.0811
   95RES   H23426742   2.048   5.426   4.064 -1.1676  0.4224 -0.2551
   95RES   H23526743   1.984   5.636   3.937  0.7560  0.7713  0.0533
   95RES   H23626744   2.136   5.588   3.884  0.9784 -0.5886  0.4682
   95RES   H23726745   2.290   5.728   4.140 -0.4102  1.1968  0.8344
   95RES   H23826746   2.307   5.857   4.027  2.8673 -1.1473 -0.2238
   95RES   H23926747   2.326   5.698   3.964  3.2945  0.0352  2.5918
   95RES   O24026748   2.219   5.508   4.145  0.0527  0.6368 -0.5468
   95RES   C24126749   2.242   5.379   4.201  0.4421 -0.6773 -0.2898
   95RES   C24226750   2.385   5.384   4.255  1.2773  0.6667  0.1073
   95RES   C24326751   2.409   5.276   4.366  0.5975 -0.0804  0.5538
   95RES   O24426752   2.539   5.283   4.433 -0.3960 -0.4748  0.2931
   95RES   C24526753   2.526   5.205   4.550 -0.4360 -0.2484  0.0547
   95RES   H24626754   2.235   5.302   4.125 -1.7155 -0.6120 -0.1785
   95RES   H24726755   2.169   5.372   4.282 -0.3073  0.7680 -0.8290
   95RES   H24826756   2.386   5.480   4.306 -0.9386  0.4152  0.6859
   95RES   H24926757   2.323   5.271   4.433 -0.6418  0.7680 -0.9491
   95RES   H25026758   2.400   5.177   4.321  1.0596 -0.0976  0.5009
   95RES   H25126759   2.630   5.193   4.582  0.2212 -0.1122 -1.9343
   95RES   H25226760   2.470   5.114   4.529 -0.9102  0.1693 -0.4996
   95RES   H25326761   2.476   5.262   4.628 -0.6128 -0.3162 -0.0119
   95RES   O25426762   2.483   5.361   4.155 -0.4909  0.8079  0.0883
   95RES   C25526763   2.521   5.480   4.089  0.5941 -0.1693 -0.2173
   95RES   C25626764   2.668   5.476   4.040 -0.1430 -0.3409  0.2631
   95RES   C25726765   2.701   5.591   3.939 -0.3538  0.2679  0.2320
   95RES   O25826766   2.837   5.582   3.883 -0.4738 -0.1043  0.3792
   95RES   C25926767   2.867   5.694   3.814 -0.6761 -0.2537  0.4694
   95RES   H26026768   2.456   5.488   4.002  2.9883  1.7511 -1.8906
   95RES   H26126769   2.522   5.566   4.156  0.6653  0.6663 -1.2918
   95RES   H26226770   2.695   5.380   3.997  0.6942  0.3872 -0.9098
   95RES   H26326771   2.629   5.582   3.857  1.2292  0.9515 -1.2594
   95RES   H26426772   2.683   5.693   3.974 -2.3986 -0.1077  0.3611
   95RES   H26526773   2.971   5.719   3.797 -0.8165  0.4098  0.5409
   95RES   H26626774   2.846   5.776   3.883  0.5532  0.0888  0.4484
   95RES   H26726775   2.802   5.706   3.727 -0.1754  0.9597  0.2526
   95RES   O26826776   2.757   5.504   4.145  0.0881  0.3206 -0.3732
   95RES   C26926777   2.741   5.439   4.274 -0.3540 -0.1862  0.1510
   95RES   C27026778   2.872   5.456   4.350 -0.2085  0.2162 -0.3748
   95RES   C27126779   2.983   5.348   4.309 -0.1537 -0.0144 -0.0695
   95RES   O27226780   3.103   5.361   4.382 -0.0327  0.0332  0.2369
   95RES   C27326781   3.217   5.306   4.300  0.4786 -0.0781 -0.0187
   95RES   H27426782   2.708   5.336   4.256  2.7683 -0.7112 -3.1090
   95RES   H27526783   2.652   5.470   4.329 -1.3107 -1.3840 -0.6932
   95RES   H27626784   2.920   5.552   4.334  2.0119 -0.7478  0.3540
   95RES   H27726785   2.995   5.333   4.202  0.9878  0.4097 -0.0106
   95RES   H27826786   2.932   5.255   4.334  2.1642 -1.0916  0.6703
   95RES   H27926787   3.314   5.328   4.345  0.2710 -1.2133  1.0307
   95RES   H28026788   3.214   5.358   4.205 -2.1745 -1.0084 -0.4937
   95RES   H28126789   3.218   5.198   4.291 -0.7111 -0.1548  0.6868
   95RES   H28226790   2.849   5.455   4.457 -1.1895 -1.2442 -0.5861
   96RES     O126791   3.464   5.795   2.404 -0.2816  0.1773  0.4782
   96RES     C226792   3.519   5.661   2.420  0.0634  0.1243 -0.6974
   96RES     C326793   3.521   5.574   2.288 -0.5611  0.0310  0.0091
   96RES     C426794   3.586   5.436   2.314 -0.5296 -0.2041  0.5544
   96RES     O526795   3.646   5.374   2.196  0.4896 -0.2426 -0.0111
   96RES     C626796   3.733   5.271   2.237  0.3184  0.0425 -0.0839
   96RES     H726797   3.624   5.667   2.447  0.5826 -1.3381 -2.2623
   96RES     H826798   3.477   5.615   2.509  0.3954  0.3509 -0.4231
   96RES     H926799   3.582   5.631   2.218 -0.0161  0.1119  0.5448
   96RES    H1026800   3.512   5.367   2.356 -0.5033  0.3133  1.4589
   96RES    H1126801   3.663   5.458   2.388  1.2402  1.7956 -1.8123
   96RES    H1226802   3.801   5.294   2.318  0.6051 -1.4022  0.0937
   96RES    H1326803   3.664   5.199   2.281 -1.0771  1.6663  0.4968
   96RES    H1426804   3.799   5.247   2.154 -0.1896  3.2877 -1.5063
   96RES    H1526805   3.378   5.785   2.366  0.4033 -3.1419 -0.4199
   96RES    O1626806   3.381   5.574   2.259  0.2541 -0.0347  0.1027
   96RES    C1726807   3.352   5.533   2.128  0.9479 -0.7250 -0.2353
   96RES    C1826808   3.200   5.496   2.118 -0.4748  0.2424 -0.3905
   96RES    C1926809   3.136   5.555   1.986  0.6451  0.1478  0.6981
   96RES    O2026810   2.992   5.566   1.991  0.2086 -0.1825  0.0137
   96RES    C2126811   2.934   5.631   1.878  0.1791  0.5014  0.4720
   96RES    H2226812   3.417   5.450   2.098  1.9504 -0.2583  0.6615
   96RES    H2326813   3.372   5.618   2.062 -1.4110 -0.5784 -0.8115
   96RES    H2426814   3.141   5.533   2.202 -2.3318 -3.2597 -0.0369
   96RES    H2526815   3.177   5.655   1.974  1.2299 -0.1177  0.4133
   96RES    H2626816   3.169   5.496   1.900 -1.7731 -0.9442  0.4885
   96RES    H2726817   2.984   5.726   1.860 -1.0026  1.1094  0.2999
   96RES    H2826818   2.827   5.649   1.890  0.3505  0.1191  2.7952
   96RES    H2926819   2.938   5.575   1.785 -0.9222 -0.1661  0.8107
   96RES    O3026820   3.180   5.360   2.115  0.2098 -0.1911  0.0097
   96RES    C3126821   3.193   5.301   2.243  0.8304 -0.1573 -0.7477
   96RES    C3226822   3.212   5.152   2.220  0.0749  0.1565 -0.4310
   96RES    C3326823   3.191   5.069   2.353  0.4344 -0.3102  1.0962
   96RES    O3426824   3.271   5.140   2.442  0.0129 -0.2034  0.3294
   96RES    C3526825   3.266   5.089   2.581  0.3592  0.6386  1.0896
   96RES    H3626826   3.280   5.339   2.296  0.9724  1.7496 -2.3088
   96RES    H3726827   3.107   5.328   2.304  2.1709 -0.2542  1.2278
   96RES    H3826828   3.137   5.099   2.161  1.2434 -1.4737 -0.4837
   96RES    H3926829   3.221   4.965   2.348  0.1785 -0.4420  2.1272
   96RES    H4026830   3.084   5.078   2.373  0.1092 -1.8881  0.1063
   96RES    H4126831   3.172   5.056   2.626  0.6442 -1.3554  0.2548
   96RES    H4226832   3.305   5.156   2.658  0.5561  2.8567 -0.8677
   96RES    H4326833   3.326   4.999   2.599 -1.3824 -0.6085  0.7959
   96RES    O4426834   3.337   5.123   2.167  0.5510  0.7717  0.1911
   96RES    C4526835   3.338   5.053   2.038 -0.4010 -0.2250 -0.1982
   96RES    C4626836   3.483   5.015   1.998 -0.4927 -0.0786 -0.4425
   96RES    C4726837   3.515   4.863   1.992 -0.2684 -0.2123 -0.4458
   96RES    O4826838   3.654   4.838   1.976 -0.0329 -0.2887  0.3797
   96RES    C4926839   3.728   4.825   2.098  0.3626 -0.1910  0.4280
   96RES    H5026840   3.286   5.114   1.964  0.8146 -0.3482 -1.1621
   96RES    H5126841   3.278   4.964   2.058  0.7002 -0.9751 -0.2215
   96RES    H5226842   3.557   5.054   2.068  0.1715 -1.9005 -0.1064
   96RES    H5326843   3.470   4.808   2.075  1.3913 -0.2074  0.4747
   96RES    H5426844   3.465   4.837   1.899 -1.2891  0.9227 -0.2378
   96RES    H5526845   3.711   4.902   2.173 -0.4269  1.0912 -1.0479
   96RES    H5626846   3.830   4.822   2.058 -0.6785  1.5243 -2.4789
   96RES    H5726847   3.715   4.729   2.149  2.1568  0.1540  1.6001
   96RES    O5826848   3.509   5.074   1.870  0.3517 -0.1668  0.3917
   96RES    C5926849   3.530   5.216   1.889  0.4284  0.7693 -0.3996
   96RES    C6026850   3.542   5.295   1.758  0.3583 -0.2919  0.4665
   96RES    C6126851   3.610   5.438   1.789  0.2763  0.3757 -0.3370
   96RES    O6226852   3.610   5.518   1.673 -0.4519 -0.2227 -0.2900
   96RES    C6326853   3.639   5.660   1.702 -0.4506 -0.6260  0.2313
   96RES    H6426854   3.623   5.240   1.941  0.3560  2.0484 -0.8478
   96RES    H6526855   3.456   5.264   1.954 -0.0608 -1.3421  0.6383
   96RES    H6626856   3.607   5.245   1.688 -0.2446  0.3352 -0.5537
   96RES    H6726857   3.557   5.489   1.870 -1.3071  0.0585 -1.1408
   96RES    H6826858   3.715   5.426   1.814  0.5154  1.9600 -0.5469
   96RES    H6926859   3.572   5.708   1.772  0.5762 -0.0249  0.8225
   96RES    H7026860   3.613   5.711   1.610  0.5279 -0.6633 -0.0805
   96RES    H7126861   3.738   5.691   1.737 -0.4750 -0.5962  0.2729
   96RES    O7226862   3.407   5.324   1.719 -0.2087  0.2727 -0.1746
   96RES    C7326863   3.344   5.222   1.648  0.0640  0.2093  0.1942
   96RES    C7426864   3.219   5.270   1.566  0.0518  0.6342 -0.4371
   96RES    C7526865   3.083   5.299   1.640  0.2111  0.7552 -0.9074
   96RES    O7626866   2.976   5.344   1.563 -0.0901  0.4338 -0.3348
   96RES    C7726867   2.910   5.256   1.469  0.0502 -0.1707  0.1968
   96RES    H7826868   3.414   5.176   1.578 -1.6022 -2.0230 -0.0674
   96RES    H7926869   3.319   5.136   1.710 -3.3225  0.8613 -0.1911
   96RES    H8026870   3.255   5.363   1.521  0.8597  0.6902  0.2933
   96RES    H8126871   3.118   5.371   1.714  0.6344 -0.0665 -0.2893
   96RES    H8226872   3.052   5.214   1.701  1.2663  1.3872  0.5399
   96RES    H8326873   2.963   5.229   1.377 -3.3990 -2.1122 -1.3443
   96RES    H8426874   2.812   5.298   1.445  0.6243  1.3377  0.4253
   96RES    H8526875   2.882   5.165   1.522  1.7948 -0.7011  0.2360
   96RES    O8626876   3.195   5.177   1.455  0.5038  0.0755 -0.4505
   96RES    C8726877   3.170   5.039   1.479  0.5315  0.5611  0.2751
   96RES    C8826878   3.121   4.968   1.355 -0.8682  0.3809  0.1087
   96RES    C8926879   3.233   4.945   1.252  0.1177  0.0892 -0.8929
   96RES    O9026880   3.160   4.928   1.122  0.6919  0.2530  0.3142
   96RES    C9126881   3.266   4.907   1.024 -0.6977  0.0212  0.1347
   96RES    H9226882   3.261   4.988   1.511  0.5739  0.3921 -0.1146
   96RES    H9326883   3.090   5.038   1.553 -0.6466  1.3032 -0.9646
   96RES    H9426884   3.036   5.024   1.318 -0.0388  0.3955 -1.8268
   96RES    H9526885   3.289   5.038   1.257 -0.9588  0.6801  0.4670
   96RES    H9626886   3.297   4.864   1.285  3.1444  2.1993 -1.4315
   96RES    H9726887   3.342   4.985   1.031 -0.9397  0.4062 -1.4159
   96RES    H9826888   3.317   4.811   1.034 -0.2723  0.0218 -1.8810
   96RES    H9926889   3.223   4.912   0.925 -2.0882 -3.5336  0.4720
   96RES   O10026890   3.070   4.839   1.395  0.6503 -0.2813 -0.3052
   96RES   C10126891   2.938   4.842   1.443  0.1268 -0.4032  0.1425
   96RES   C10226892   2.904   4.705   1.507 -0.1652 -0.1402  0.6588
   96RES   C10326893   2.767   4.660   1.462 -0.0632 -1.1536 -0.7981
   96RES   O10426894   2.673   4.760   1.486 -0.1313 -0.3238  0.0079
   96RES   C10526895   2.543   4.739   1.436 -0.3999  0.3711 -0.2605
   96RES   H10626896   2.863   4.862   1.367 -0.5187 -2.2427  0.2817
   96RES   H10726897   2.910   4.920   1.513 -1.0662  0.5923 -1.4051
   96RES   H10826898   2.978   4.636   1.465  0.8758  0.6856  1.0930
   96RES   H10926899   2.744   4.577   1.528 -0.8160  1.6570  2.5971
   96RES   H11026900   2.774   4.618   1.361  0.3699 -0.4976 -1.0480
   96RES   H11126901   2.472   4.821   1.445 -1.5085 -0.4782 -1.1654
   96RES   H11226902   2.492   4.664   1.496 -0.8707  0.4788 -0.5184
   96RES   H11326903   2.544   4.719   1.329  0.3286  1.8518 -0.5430
   96RES   O11426904   2.912   4.718   1.651  0.0668  0.1704  0.0789
   96RES   C11526905   3.039   4.685   1.708 -0.3207  0.3804  0.6432
   96RES   C11626906   3.060   4.732   1.852 -0.4574 -1.0572  0.1364
   96RES   C11726907   3.184   4.668   1.917  0.7222  0.2141  0.3540
   96RES   O11826908   3.198   4.697   2.058  0.2036 -0.3236  0.0895
   96RES   C11926909   3.226   4.586   2.146  0.2469  0.4356 -0.0652
   96RES   H12026910   3.066   4.580   1.709  0.4199  0.5623  0.2483
   96RES   H12126911   3.108   4.729   1.636  0.6638  4.0006  3.6176
   96RES   H12226912   2.968   4.705   1.904 -0.7633 -0.9028 -0.3218
   96RES   H12326913   3.175   4.561   1.899 -2.7891  0.0850  2.2518
   96RES   H12426914   3.269   4.715   1.867 -0.4813 -0.1053 -2.0769
   96RES   H12526915   3.325   4.553   2.117 -0.2866 -1.7057  0.4379
   96RES   H12626916   3.161   4.499   2.136  0.7254  0.2697 -1.8019
   96RES   H12726917   3.222   4.622   2.250  1.0100  0.3277  0.0039
   96RES   O12826918   3.084   4.874   1.834  0.0506 -0.3299 -0.1280
   96RES   C12926919   3.019   4.955   1.927 -0.0623  0.3969  0.2975
   96RES   C13026920   2.867   4.979   1.907 -0.2458 -0.0524  0.1610
   96RES   C13126921   2.826   5.091   2.003  0.0508 -0.3651 -0.4153
   96RES   O13226922   2.697   5.145   1.973 -0.0212  0.1311  0.5893
   96RES   C13326923   2.689   5.225   1.861 -0.3274  0.0840 -0.5513
   96RES   H13426924   3.035   4.915   2.028 -0.1822  1.3936  0.7163
   96RES   H13526925   3.075   5.048   1.921 -0.0692  0.4085  0.4167
   96RES   H13626926   2.851   5.001   1.801  0.2103 -0.5408 -0.0127
   96RES   H13726927   2.904   5.166   2.013 -0.3141  0.0664 -0.7983
   96RES   H13826928   2.826   5.039   2.099 -1.3376  2.8855  1.4345
   96RES   H13926929   2.708   5.171   1.769  1.2830 -0.7427  0.2481
   96RES   H14026930   2.589   5.268   1.854 -0.8017 -0.3517  2.6889
   96RES   H14126931   2.766   5.302   1.855 -0.3621  0.1406 -0.2737
   96RES   O14226932   2.802   4.855   1.935 -0.1943 -0.4820  0.2898
   96RES   C14326933   2.694   4.829   1.850 -0.5103 -0.2029 -0.6941
   96RES   C14426934   2.621   4.712   1.916  0.4635 -0.0436 -0.5137
   96RES   C14526935   2.505   4.663   1.826 -0.2419  0.4673  0.1438
   96RES   O14626936   2.447   4.538   1.866  0.7662 -0.2446  0.3825
   96RES   C14726937   2.342   4.489   1.785 -0.1936 -0.4345  0.8650
   96RES   H14826938   2.622   4.908   1.830 -1.2169 -1.1456 -1.9273
   96RES   H14926939   2.725   4.804   1.748  0.0746  1.7954 -1.0200
   96RES   H15026940   2.693   4.632   1.931 -1.4525 -1.5763  0.6484
   96RES   H15126941   2.544   4.632   1.729 -1.0446 -0.3419  0.0620
   96RES   H15226942   2.427   4.739   1.819 -2.0052 -1.4226 -1.7088
   96RES   H15326943   2.290   4.398   1.817 -1.0171  0.3990  1.9276
   96RES   H15426944   2.374   4.467   1.683 -2.8778  1.7880 -0.5263
   96RES   H15526945   2.262   4.563   1.790 -1.0536 -1.1298 -1.7003
   96RES   O15626946   2.562   4.755   2.035  0.3022 -0.0425 -0.1238
   96RES   C15726947   2.568   4.660   2.144  0.0121 -0.5971 -0.8535
   96RES   C15826948   2.660   4.703   2.262 -0.1007  0.0727  0.3701
   96RES   C15926949   2.681   4.591   2.362  0.0769 -0.4983 -0.4287
   96RES   O16026950   2.780   4.615   2.460  0.6625  0.2350  0.5639
   96RES   C16126951   2.778   4.741   2.529 -0.1869  0.0183 -0.8353
   96RES   H16226952   2.468   4.652   2.185 -0.6002  1.1101 -1.9539
   96RES   H16326953   2.601   4.561   2.113 -2.6505 -1.5411 -0.7492
   96RES   H16426954   2.756   4.740   2.226 -0.5662  3.2000  2.1542
   96RES   H16526955   2.581   4.567   2.400  0.1069 -0.1173 -0.1118
   96RES   H16626956   2.711   4.498   2.314 -1.3433 -0.7031 -0.9707
   96RES   H16726957   2.840   4.726   2.617 -0.1429 -1.0612 -1.0482
   96RES   H16826958   2.682   4.770   2.572 -1.4084 -2.7487 -1.5776
   96RES   H16926959   2.823   4.815   2.463 -2.4904  1.9983 -0.2862
   96RES   O17026960   2.592   4.797   2.342 -0.1101 -0.3741 -0.1910
   96RES   C17126961   2.605   4.932   2.296  0.7566  0.0073 -0.0600
   96RES   C17226962   2.460   4.982   2.305  0.6751  0.3718 -0.0977
   96RES   C17326963   2.457   5.099   2.199  0.4603  0.1694 -0.1309
   96RES   O17426964   2.332   5.169   2.190 -0.5782  0.4067 -0.0602
   96RES   C17526965   2.338   5.294   2.118  0.2217 -0.2016  0.0206
   96RES   H17626966   2.640   4.935   2.193  1.5363 -0.8269  0.1663
   96RES   H17726967   2.669   5.000   2.353  0.1554  1.6797 -1.3556
   96RES   H17826968   2.389   4.900   2.294 -0.0481  1.0659 -0.6872
   96RES   H17926969   2.546   5.158   2.217  0.3107  0.7950 -1.3336
   96RES   H18026970   2.458   5.057   2.098 -0.3482 -0.7041  0.2160
   96RES   H18126971   2.237   5.326   2.091  0.1056  0.3047  1.0143
   96RES   H18226972   2.401   5.305   2.030 -0.8356  0.6778 -0.6478
   96RES   H18326973   2.368   5.371   2.190 -1.8343  0.5756  0.0914
   96RES   O18426974   2.440   5.028   2.437 -0.4381 -0.0850  0.5539
   96RES   C18526975   2.301   5.017   2.473 -0.6354 -0.1845  0.3542
   96RES   C18626976   2.252   5.111   2.588 -0.3097  0.7777  0.0788
   96RES   C18726977   2.151   5.045   2.681  0.5172  0.1759 -0.2448
   96RES   O18826978   2.043   4.984   2.602 -0.3220  0.5419 -0.3619
   96RES   C18926979   1.931   5.059   2.581 -0.3219  0.0346  0.0865
   96RES   H19026980   2.284   4.912   2.498 -0.6022 -0.2323  0.1721
   96RES   H19126981   2.230   5.036   2.393  2.4930  2.6627 -1.8301
   96RES   H19226982   2.333   5.138   2.656 -0.6265  0.5545  0.5449
   96RES   H19326983   2.110   5.114   2.754 -2.1114 -0.8979 -0.6354
   96RES   H19426984   2.191   4.957   2.731  2.8296  1.8016  0.8510
   96RES   H19526985   1.842   5.009   2.543 -2.2429  2.5211  1.1593
   96RES   H19626986   1.910   5.101   2.680 -0.1162 -1.8836  0.9509
   96RES   H19726987   1.968   5.139   2.517 -1.9482  0.4836 -0.3391
   96RES   O19826988   2.207   5.238   2.552  0.0744 -0.3758 -0.6866
   96RES   C19926989   2.295   5.352   2.526 -0.5313 -0.6149  0.2781
   96RES   C20026990   2.210   5.468   2.489  0.3244 -0.6485  0.1030
   96RES   C20126991   2.294   5.592   2.439 -0.5638  0.5086  0.0960
   96RES   O20226992   2.401   5.561   2.353 -0.1627 -0.6818 -0.1752
   96RES   C20326993   2.472   5.688   2.329 -0.6564  0.1387 -0.2013
   96RES   H20426994   2.352   5.328   2.436 -1.2378  1.8524 -0.8656
   96RES   H20526995   2.354   5.367   2.616 -1.9381 -1.3035  1.3308
   96RES   H20626996   2.144   5.440   2.407  1.2415  0.4594 -1.0356
   96RES   H20726997   2.230   5.672   2.401  1.5456  1.8143 -0.8150
   96RES   H20826998   2.346   5.638   2.523 -2.7521 -0.1951  1.8796
   96RES   H20926999   2.518   5.726   2.420 -4.9368 -2.8528  3.4765
   96RES   H21027000   2.398   5.766   2.310  1.7019  3.0333  2.0128
   96RES   H21127001   2.546   5.675   2.250 -0.6549 -1.1914 -0.0035
   96RES   O21227002   2.136   5.513   2.602  0.0498  0.5917  0.0782
   96RES   C21327003   2.008   5.447   2.625  0.5242 -0.5050 -0.3324
   96RES   C21427004   1.932   5.520   2.733  0.4075 -0.3308 -0.4140
   96RES   C21527005   1.831   5.428   2.799 -0.4182  0.3156  0.9586
   96RES   O21627006   1.871   5.404   2.933  0.1043  0.3914  0.0692
   96RES   C21727007   1.781   5.321   3.012 -0.6819 -0.2126  0.4680
   96RES   H21827008   2.031   5.351   2.671 -1.9367 -1.0991 -0.2746
   96RES   H21927009   1.946   5.445   2.535 -0.3228  1.5433  0.1922
   96RES   H22027010   2.000   5.546   2.814  0.2244 -1.9461  0.2803
   96RES   H22127011   1.730   5.468   2.793 -1.0441 -1.2590  0.5538
   96RES   H22227012   1.824   5.328   2.755  1.9196  1.5366 -2.3381
   96RES   H22327013   1.784   5.214   2.991  0.8689 -0.3241  1.1957
   96RES   H22427014   1.681   5.363   3.000 -0.6467 -0.0473  0.7591
   96RES   H22527015   1.815   5.329   3.115  0.6528  0.8415 -0.0522
   96RES   O22627016   1.865   5.633   2.683 -0.1610  0.4117  0.3566
   96RES   C22727017   1.845   5.723   2.799 -0.9659  0.0042  0.0215
   96RES   C22827018   1.730   5.828   2.773  0.0516 -0.8246  0.8180
   96RES   C22927019   1.686   5.896   2.904 -0.2226 -0.3230  0.1179
   96RES   O23027020   1.548   5.933   2.921 -0.1809  0.1798  0.0740
   96RES   C23127021   1.517   6.047   2.839 -0.1772 -0.6998 -0.9713
   96RES   H23227022   1.929   5.790   2.821 -2.0258  1.6842 -0.8812
   96RES   H23327023   1.820   5.669   2.890 -0.3989 -0.9303 -0.3784
   96RES   H23427024   1.641   5.779   2.734  0.2590 -1.2336  0.8592
   96RES   H23527025   1.752   5.981   2.923  0.0276 -0.4770 -0.0537
   96RES   H23627026   1.715   5.824   2.981 -0.9863 -0.2879  0.4433
   96RES   H23727027   1.420   6.081   2.877 -0.2455 -0.9936 -0.8859
   96RES   H23827028   1.494   6.017   2.737  0.0338  0.8620 -1.4909
   96RES   H23927029   1.578   6.137   2.849 -0.4911 -0.5646 -0.2552
   96RES   O24027030   1.761   5.932   2.678 -0.4260 -0.0109  0.1399
   96RES   C24127031   1.755   5.883   2.549  0.2504 -0.7844  0.2686
   96RES   C24227032   1.814   5.988   2.448  0.4406 -0.7806  0.1322
   96RES   C24327033   1.832   5.924   2.313  0.5382 -0.0176  0.0644
   96RES   O24427034   1.864   6.002   2.204 -0.1299 -0.1445 -0.3621
   96RES   C24527035   1.912   5.922   2.092 -0.0464 -0.1025  0.2374
   96RES   H24627036   1.656   5.852   2.518 -0.1080  0.0239  0.6024
   96RES   H24727037   1.825   5.799   2.547  0.7306 -0.4816  2.9060
   96RES   H24827038   1.907   6.029   2.488  0.7587  0.2946 -1.6608
   96RES   H24927039   1.917   5.856   2.321  1.3288  0.5583 -2.6536
   96RES   H25027040   1.746   5.859   2.296  1.9419 -2.2927  1.4428
   96RES   H25127041   2.009   5.872   2.099  0.9410  1.2917 -2.5947
   96RES   H25227042   1.896   5.978   2.000 -0.7558 -1.0376 -0.2240
   96RES   H25327043   1.845   5.836   2.091 -0.5792  0.2985  1.1047
   96RES   O25427044   1.719   6.089   2.421 -0.1476  0.0603 -0.6799
   96RES   C25527045   1.703   6.181   2.527  0.1055  0.0551 -0.4696
   96RES   C25627046   1.612   6.291   2.469  0.0090 -0.5317  0.1946
   96RES   C25727047   1.533   6.351   2.591  0.0114 -0.0618 -0.6421
   96RES   O25827048   1.434   6.446   2.549 -0.5059  0.5257 -0.2806
   96RES   C25927049   1.337   6.477   2.638  0.1825  0.1994 -0.2644
   96RES   H26027050   1.665   6.136   2.618  2.2980 -0.3838  0.2742
   96RES   H26127051   1.805   6.214   2.548  0.6740 -1.1125 -1.3042
   96RES   H26227052   1.533   6.249   2.408 -0.7261  0.3443  0.5268
   96RES   H26327053   1.473   6.274   2.639 -1.4518  0.2891 -1.8681
   96RES   H26427054   1.596   6.395   2.668 -1.8114  1.4896 -0.0192
   96RES   H26527055   1.264   6.543   2.591 -0.8890  0.1843  1.3285
   96RES   H26627056   1.359   6.533   2.729 -0.6026 -0.4462  0.3354
   96RES   H26727057   1.286   6.392   2.684  2.6429 -0.9146  0.4882
   96RES   O26827058   1.675   6.395   2.397 -0.1838 -0.2406  0.3061
   96RES   C26927059   1.674   6.377   2.260 -0.1856 -0.2012 -0.0080
   96RES   C27027060   1.733   6.486   2.180  0.1507 -0.1526  0.1366
   96RES   C27127061   1.685   6.627   2.207 -0.3370  0.0516 -0.1492
   96RES   O27227062   1.773   6.713   2.144  0.5971  0.5515  0.3104
   96RES   C27327063   1.802   6.834   2.225  0.1231  0.1517  0.1828
   96RES   H27427064   1.573   6.367   2.220 -0.4537 -0.5838  0.7456
   96RES   H27527065   1.728   6.285   2.234 -2.6705 -0.6185 -4.0810
   96RES   H27627066   1.840   6.500   2.200  0.1913 -2.0742  1.3666
   96RES   H27727067   1.674   6.632   2.315 -0.3192  1.8969 -0.2193
   96RES   H27827068   1.584   6.643   2.167 -0.9768 -0.7137  1.1196
   96RES   H27927069   1.714   6.884   2.265 -0.1860  0.2925 -0.6585
   96RES   H28027070   1.840   6.915   2.163 -1.9318  1.3222  0.4370
   96RES   H28127071   1.871   6.819   2.309 -1.9819  1.0571  2.1156
   96RES   H28227072   1.731   6.481   2.072 -0.5372 -1.3657  0.2042
   97RES     O127073   0.915   3.320   0.838  0.0832 -0.4305  0.5295
   97RES     C227074   0.940   3.195   0.793  0.0605 -0.6627  0.2055
   97RES     C327075   0.884   3.191   0.644 -0.4734  0.3672 -0.1320
   97RES     C427076   0.928   3.061   0.580  0.6343  1.1932  0.0084
   97RES     O527077   0.911   3.070   0.434 -0.0548  0.6207  0.1718
   97RES     C627078   0.888   2.945   0.381  0.8524  0.2700 -0.2935
   97RES     H727079   1.045   3.169   0.786  0.0355 -1.0166  1.0215
   97RES     H827080   0.890   3.122   0.857 -1.2762  0.6542  0.6914
   97RES     H927081   0.926   3.271   0.583  0.1267  0.0880 -0.0872
   97RES    H1027082   0.866   2.981   0.621  1.8659  0.3155  0.1644
   97RES    H1127083   1.032   3.036   0.599 -0.0360 -0.8438  1.2527
   97RES    H1227084   0.873   2.961   0.274 -1.4971  0.6050  0.0628
   97RES    H1327085   0.963   2.871   0.409  0.0402 -1.2447 -2.0049
   97RES    H1427086   0.789   2.917   0.418 -0.2486  2.6915 -1.2995
   97RES    H1527087   0.823   3.341   0.844 -0.0194 -0.8620  0.4419
   97RES    O1627088   0.746   3.183   0.670  0.1682 -0.1679 -1.0471
   97RES    C1727089   0.670   3.244   0.572  0.0947 -0.0434 -0.4456
   97RES    C1827090   0.655   3.396   0.583  0.6236  0.4975  1.2109
   97RES    C1927091   0.547   3.440   0.479 -0.6865 -0.1886  0.6513
   97RES    O2027092   0.518   3.577   0.503  0.1993 -0.3081  0.2626
   97RES    C2127093   0.436   3.626   0.396  0.5279 -0.1178  0.7289
   97RES    H2227094   0.577   3.197   0.602 -1.1745  2.2988 -0.6501
   97RES    H2327095   0.690   3.211   0.470 -0.0030 -1.0383 -0.1511
   97RES    H2427096   0.750   3.443   0.554  1.2929 -2.1066 -0.9946
   97RES    H2527097   0.584   3.425   0.378  1.6658  1.1091  1.2850
   97RES    H2627098   0.452   3.387   0.490 -0.4115 -1.3301 -2.1678
   97RES    H2727099   0.348   3.565   0.379 -0.2035  0.9685  0.5371
   97RES    H2827100   0.489   3.620   0.301  1.5904 -0.2373  1.3106
   97RES    H2927101   0.389   3.721   0.421  0.8198  0.1554  0.2352
   97RES    O3027102   0.625   3.415   0.721  0.5556  0.4353 -0.2291
   97RES    C3127103   0.691   3.532   0.764 -0.1209  0.1469  0.2946
   97RES    C3227104   0.657   3.548   0.908 -0.1090 -0.3665  0.5883
   97RES    C3327105   0.708   3.689   0.951 -0.3372 -0.0307 -0.2744
   97RES    O3427106   0.655   3.715   1.081 -0.0911  0.2692 -0.5647
   97RES    C3527107   0.738   3.806   1.153  0.0648 -0.7348  0.4100
   97RES    H3627108   0.799   3.517   0.760 -0.4293 -2.1540 -0.0261
   97RES    H3727109   0.656   3.622   0.713  0.0482  0.9402  1.5765
   97RES    H3827110   0.550   3.567   0.916  0.2887  1.7424  1.1991
   97RES    H3927111   0.671   3.760   0.878  1.0759  1.6566  0.6180
   97RES    H4027112   0.816   3.680   0.962 -0.1973 -0.7675 -2.0936
   97RES    H4127113   0.681   3.845   1.237  1.6344  0.9822  0.6855
   97RES    H4227114   0.781   3.885   1.091 -3.9323  0.8027 -0.5330
   97RES    H4327115   0.825   3.754   1.194  0.0715  0.0814  1.4465
   97RES    O4427116   0.691   3.448   1.000  0.1122  0.0927  0.0913
   97RES    C4527117   0.618   3.322   1.002  0.2039  0.1504 -0.1830
   97RES    C4627118   0.465   3.321   1.008  0.4136 -0.2929  0.9264
   97RES    C4727119   0.402   3.196   0.933 -0.3137  0.5787 -0.2614
   97RES    O4827120   0.261   3.219   0.884 -0.0142 -0.1341 -0.2111
   97RES    C4927121   0.160   3.170   0.977  0.1059 -0.9888  0.6429
   97RES    H5027122   0.656   3.271   1.091 -1.4093  2.1197  1.6745
   97RES    H5127123   0.654   3.263   0.917 -0.5852  0.5366 -0.7949
   97RES    H5227124   0.425   3.408   0.956  1.4526 -2.4030 -3.6277
   97RES    H5327125   0.468   3.173   0.849 -1.4223 -0.5960 -0.8229
   97RES    H5427126   0.413   3.119   1.009  0.4992 -0.0943 -1.0478
   97RES    H5527127   0.186   3.065   0.983  0.3865 -0.8889  1.1980
   97RES    H5627128   0.060   3.196   0.942  1.0724  0.2441 -1.3236
   97RES    H5727129   0.164   3.227   1.070 -0.7693 -0.8019  0.5704
   97RES    O5827130   0.429   3.315   1.146 -0.5170 -0.0905  0.0357
   97RES    C5927131   0.457   3.427   1.230 -0.1134 -0.2020 -0.3703
   97RES    C6027132   0.334   3.520   1.234 -0.3842 -0.5863  0.0848
   97RES    C6127133   0.366   3.654   1.298  0.0663 -0.1579  0.1198
   97RES    O6227134   0.280   3.751   1.254  0.1510  0.3860  0.0681
   97RES    C6327135   0.254   3.855   1.352  0.4471 -0.1551  0.0653
   97RES    H6427136   0.543   3.487   1.200  0.0227 -0.9429 -1.4821
   97RES    H6527137   0.471   3.387   1.330  1.1725  1.6077  0.2005
   97RES    H6627138   0.297   3.531   1.131  0.0813 -2.2138 -0.2704
   97RES    H6727139   0.358   3.640   1.406 -2.3535  0.6259  0.0572
   97RES    H6827140   0.467   3.689   1.276 -1.3090  3.1284 -1.3772
   97RES    H6927141   0.185   3.820   1.429 -0.2556 -1.2243 -1.0509
   97RES    H7027142   0.205   3.938   1.301 -0.1506 -0.1730  0.6075
   97RES    H7127143   0.343   3.895   1.402  0.1293  1.1869 -0.4405
   97RES    O7227144   0.238   3.447   1.312 -0.0487  0.1257 -0.3886
   97RES    C7327145   0.107   3.500   1.328 -0.6549 -0.1022  0.0170
   97RES    C7427146   0.032   3.389   1.412  0.7077 -0.3871 -0.6753
   97RES    C7527147   7.703   3.405   1.409 -0.3592  0.0455 -0.4081
   97RES    O7627148   7.655   3.286   1.453  0.0986  0.0209 -0.1152
   97RES    C7727149   7.509   3.279   1.453 -0.2075  0.2148 -0.0000
   97RES    H7827150   0.131   3.599   1.367  0.5167 -0.1916 -0.4694
   97RES    H7927151   0.052   3.517   1.235  0.9249  3.2692 -0.3835
   97RES    H8027152   0.053   3.288   1.377 -0.7978 -0.7160 -0.6722
   97RES    H8127153   7.655   3.424   1.313 -0.1065 -2.3535 -1.0457
   97RES    H8227154   7.668   3.486   1.473 -1.6522 -0.9411  0.1539
   97RES    H8327155   7.467   3.274   1.352 -0.3225 -2.1027  0.1449
   97RES    H8427156   7.458   3.350   1.518  1.2382  0.4685  0.8739
   97RES    H8527157   7.479   3.182   1.492 -0.1733 -0.8367 -2.4899
   97RES    O8627158   0.068   3.405   1.555  0.4327  0.4387  0.6349
   97RES    C8727159   0.185   3.332   1.583  0.4590 -0.4904 -0.4196
   97RES    C8827160   0.217   3.351   1.730  0.2576  0.6786 -0.4094
   97RES    C8927161   0.281   3.215   1.784 -0.5473 -0.7198  0.5857
   97RES    O9027162   0.349   3.240   1.911 -0.3705 -0.2089 -0.2943
   97RES    C9127163   0.397   3.122   1.961  0.2489 -0.0628 -0.1625
   97RES    H9227164   0.171   3.225   1.567 -0.4055 -0.5171  0.4509
   97RES    H9327165   0.265   3.363   1.516  1.5583 -0.1830  1.0144
   97RES    H9427166   0.125   3.378   1.782  0.7533  0.7342  0.4396
   97RES    H9527167   0.201   3.142   1.797 -1.8446  0.6568  0.3982
   97RES    H9627168   0.346   3.176   1.705  0.5550  0.4530  0.9041
   97RES    H9727169   0.461   3.134   2.048  0.9434 -1.8159 -0.4037
   97RES    H9827170   0.311   3.063   1.991 -1.9113  2.4129 -1.2867
   97RES    H9927171   0.450   3.067   1.883 -0.8236  0.7652 -1.4858
   97RES   O10027172   0.318   3.457   1.730 -0.9634  0.5773 -0.7919
   97RES   C10127173   0.268   3.588   1.705 -0.3156  0.3658 -1.0657
   97RES   C10227174   0.383   3.691   1.736 -0.2357 -0.2113 -0.0067
   97RES   C10327175   0.339   3.837   1.763 -0.2303  0.6931  0.6473
   97RES   O10427176   0.276   3.887   1.643 -0.3753  0.8978 -0.4230
   97RES   C10527177   0.249   4.034   1.649  0.4911  1.5073 -0.2607
   97RES   H10627178   0.182   3.622   1.762 -1.6837 -0.1959 -2.7387
   97RES   H10727179   0.247   3.585   1.598 -0.3734 -0.5595 -1.0324
   97RES   H10827180   0.431   3.659   1.828  0.5447  0.1130 -0.2942
   97RES   H10927181   0.422   3.903   1.788  0.3878 -0.0891  0.6721
   97RES   H11027182   0.265   3.835   1.842 -1.2422  1.0803 -0.2704
   97RES   H11127183   0.182   4.048   1.734  1.2531 -0.9444  0.7660
   97RES   H11227184   0.207   4.060   1.551 -0.7853 -2.4507 -0.8636
   97RES   H11327185   0.341   4.089   1.667  1.8435 -1.1828  1.4080
   97RES   O11427186   0.480   3.689   1.635 -0.4295  0.3234  0.9818
   97RES   C11527187   0.611   3.749   1.661 -0.4131  0.7754 -0.0186
   97RES   C11627188   0.693   3.758   1.529  0.6216  0.1630  0.8050
   97RES   C11727189   0.789   3.867   1.542 -0.4546 -0.2967  0.1689
   97RES   O11827190   0.878   3.865   1.433 -0.3265 -0.0701  0.1881
   97RES   C11927191   1.011   3.894   1.470 -0.2329 -0.4928  0.1573
   97RES   H12027192   0.596   3.851   1.696  0.1378  0.5985  0.7436
   97RES   H12127193   0.670   3.702   1.740 -0.5144 -0.8676 -0.8924
   97RES   H12227194   0.627   3.773   1.444  1.7925 -2.2898 -0.6089
   97RES   H12327195   0.747   3.967   1.549 -0.5581 -0.3136 -0.2083
   97RES   H12427196   0.844   3.856   1.635  0.0669 -2.0560 -0.3378
   97RES   H12527197   1.044   3.806   1.526  0.1423  0.7224  1.8951
   97RES   H12627198   1.013   3.988   1.524  1.1856 -0.1348 -0.5023
   97RES   H12727199   1.072   3.907   1.381 -0.2643  2.0754  0.4831
   97RES   O12827200   0.773   3.643   1.510 -0.1868  0.0768  0.5376
   97RES   C12927201   0.702   3.526   1.472  0.1802  0.2551  0.4637
   97RES   C13027202   0.791   3.408   1.444  0.0387  0.8309  0.2715
   97RES   C13127203   0.889   3.435   1.328  0.1191  0.3696  0.7033
   97RES   O13227204   0.977   3.325   1.311 -0.3744  0.5744  0.4747
   97RES   C13327205   1.054   3.346   1.192  0.3653  0.3360  0.1685
   97RES   H13427206   0.634   3.499   1.553 -0.0273 -2.6041 -0.6090
   97RES   H13527207   0.641   3.555   1.387 -1.6682  1.8251  2.2723
   97RES   H13627208   0.846   3.378   1.534  1.2486  0.4610 -0.5756
   97RES   H13727209   0.954   3.518   1.355 -0.0364  0.0332  2.1221
   97RES   H13827210   0.832   3.462   1.239  0.0368 -1.6512  0.1018
   97RES   H13927211   1.108   3.254   1.170 -1.7159 -1.0523  0.6256
   97RES   H14027212   0.992   3.381   1.109 -0.0077  0.0897  0.3415
   97RES   H14127213   1.126   3.424   1.212  2.1297 -1.2038 -0.0390
   97RES   O14227214   0.704   3.305   1.401  0.1549  0.1407  0.3640
   97RES   C14327215   0.736   3.169   1.428 -0.5000  0.7567 -0.5633
   97RES   C14427216   0.616   3.089   1.392  0.3005 -0.3136  0.0697
   97RES   C14527217   0.494   3.115   1.486 -0.3231  0.9193  0.2638
   97RES   O14627218   0.376   3.029   1.441 -0.4199 -0.0519 -0.1747
   97RES   C14727219   0.293   3.096   1.348 -0.5249  1.0058 -0.4170
   97RES   H14827220   0.816   3.141   1.360  0.4419  1.5154  0.2262
   97RES   H14927221   0.758   3.153   1.534 -1.3725 -0.6879 -0.5743
   97RES   H15027222   0.584   3.129   1.296 -0.7980  0.5467  0.7861
   97RES   H15127223   0.468   3.220   1.485  0.7547  1.1932  0.2805
   97RES   H15227224   0.523   3.093   1.589 -0.2536 -1.2080 -0.1767
   97RES   H15327225   0.193   3.052   1.351  0.4704 -1.1715  1.8950
   97RES   H15427226   0.337   3.097   1.248 -0.7571  2.6620 -0.5322
   97RES   H15527227   0.271   3.202   1.366  0.8314  1.0131  1.2512
   97RES   O15627228   0.660   2.955   1.387  0.1806  0.0564  0.3354
   97RES   C15727229   0.586   2.866   1.295 -0.0640  0.1466 -0.1953
   97RES   C15827230   0.605   2.900   1.141  0.4735 -0.4378  0.2271
   97RES   C15927231   0.492   2.827   1.054 -0.0395 -0.0772 -0.7379
   97RES   O16027232   0.479   2.893   0.931 -0.4254 -0.2686  0.0443
   97RES   C16127233   0.569   2.868   0.825 -0.1770  0.8513 -0.0970
   97RES   H16227234   0.633   2.768   1.298 -0.5123 -0.1080 -1.2205
   97RES   H16327235   0.483   2.842   1.322  0.1183 -0.4967 -0.0836
   97RES   H16427236   0.608   3.008   1.124 -1.1136 -0.5875 -1.0651
   97RES   H16527237   0.521   2.723   1.040 -0.7490 -0.2575 -0.8918
   97RES   H16627238   0.402   2.835   1.114  1.2101  2.5725  0.8724
   97RES   H16727239   0.674   2.871   0.856 -1.0683  2.0140  2.9156
   97RES   H16827240   0.554   2.931   0.737  4.1991 -0.1633 -1.7149
   97RES   H16927241   0.544   2.770   0.784 -1.1232  0.9704  0.1890
   97RES   O17027242   0.730   2.848   1.084  0.2203 -0.4462 -0.5934
   97RES   C17127243   0.846   2.925   1.117 -0.1968  0.4169 -0.5060
   97RES   C17227244   0.977   2.851   1.091 -0.8045 -0.6205  0.5772
   97RES   C17327245   1.080   2.947   1.136 -0.1503  0.3339 -0.9668
   97RES   O17427246   1.202   2.873   1.168 -0.1157  0.6005 -0.0575
   97RES   C17527247   1.309   2.946   1.227 -0.1562  0.0511  0.1505
   97RES   H17627248   0.838   2.947   1.224  0.7335 -1.8652  0.0732
   97RES   H17727249   0.847   3.018   1.061 -1.5347  2.2192  2.3219
   97RES   H17827250   0.964   2.763   1.154  0.1867 -1.5166 -0.4431
   97RES   H17927251   1.091   3.020   1.055 -0.9115  2.5505  0.8653
   97RES   H18027252   1.055   3.007   1.224 -1.0948 -1.0355 -0.2790
   97RES   H18127253   1.320   3.046   1.186  3.4323 -0.5602 -0.5705
   97RES   H18227254   1.406   2.903   1.204  0.5599  2.0910 -0.7833
   97RES   H18327255   1.293   2.946   1.335  0.6680 -0.6955  0.2779
   97RES   O18427256   1.001   2.834   0.949  0.2223 -0.3057  0.3698
   97RES   C18527257   0.963   2.705   0.901 -0.6885 -0.7278  0.6411
   97RES   C18627258   1.010   2.692   0.753 -0.3934  0.4625  1.0005
   97RES   C18727259   0.934   2.572   0.676 -0.2052 -0.5328 -0.1864
   97RES   O18827260   0.908   2.605   0.535 -0.6501 -0.2561  0.8170
   97RES   C18927261   0.873   2.493   0.470 -0.5780  0.2878 -0.0960
   97RES   H19027262   0.854   2.703   0.898 -0.6588 -1.1011 -0.0361
   97RES   H19127263   1.004   2.629   0.968  0.0609  0.1087  1.1598
   97RES   H19227264   0.986   2.786   0.703  1.7639  0.8222  0.5973
   97RES   H19327265   0.844   2.541   0.729 -0.4840 -0.5110 -0.6355
   97RES   H19427266   1.005   2.490   0.686 -0.5957 -0.7347  0.9784
   97RES   H19527267   0.779   2.450   0.505  1.1581 -0.9582  3.2083
   97RES   H19627268   0.864   2.519   0.364 -0.9224 -2.9206 -0.8882
   97RES   H19727269   0.949   2.416   0.475  0.8706  1.3943 -3.4351
   97RES   O19827270   1.153   2.674   0.752 -0.1738 -0.1044  0.0980
   97RES   C19927271   1.214   2.725   0.634  0.3303  0.4266 -0.2474
   97RES   C20027272   1.361   2.747   0.680  0.6824  0.3108 -0.3403
   97RES   C20127273   1.359   2.871   0.770  0.3205 -0.4707  0.1519
   97RES   O20227274   1.493   2.909   0.809  0.0854 -0.2884 -0.1258
   97RES   C20327275   1.568   2.820   0.894  0.1459  0.2910  0.3031
   97RES   H20427276   1.166   2.821   0.614  0.0496  0.3358 -0.0126
   97RES   H20527277   1.205   2.655   0.551 -0.2149  0.6905 -0.4122
   97RES   H20627278   1.384   2.665   0.748  0.2235 -0.4649 -1.1083
   97RES   H20727279   1.304   2.956   0.731  0.8141 -0.0026  0.4742
   97RES   H20827280   1.308   2.856   0.865 -1.8707  2.4083 -0.4985
   97RES   H20927281   1.513   2.765   0.970  0.7740  1.7193  1.8228
   97RES   H21027282   1.657   2.875   0.924 -1.0949  2.7570 -0.3634
   97RES   H21127283   1.592   2.734   0.831 -1.4061  0.5640 -0.6894
   97RES   O21227284   1.451   2.770   0.567  0.5607  0.5560  0.0608
   97RES   C21327285   1.484   2.650   0.502  0.0119  0.4167 -0.9493
   97RES   C21427286   1.616   2.653   0.413 -0.4139  0.5470  0.3010
   97RES   C21527287   1.631   2.552   0.297  0.4598 -0.3966  0.2079
   97RES   O21627288   1.731   2.594   0.205  0.0282 -0.5276  0.2663
   97RES   C21727289   1.759   2.505   0.095  0.1688  0.1595  0.2908
   97RES   H21827290   1.395   2.624   0.445 -0.1267  0.0684 -0.5743
   97RES   H21927291   1.479   2.572   0.577 -1.9303  0.8359 -0.6094
   97RES   H22027292   1.611   2.750   0.364 -0.3804  0.3681 -0.0575
   97RES   H22127293   1.663   2.455   0.334  1.0314 -0.2492  0.1130
   97RES   H22227294   1.537   2.536   0.244  0.0832  1.5009  0.2677
   97RES   H22327295   1.811   2.551   0.012 -0.8476  0.0707 -0.4089
   97RES   H22427296   1.662   2.481   0.052 -0.9408  3.7250  0.6746
   97RES   H22527297   1.813   2.418   0.131 -1.1189 -0.7397  0.1070
   97RES   O22627298   1.734   2.639   0.488  0.5733 -0.8469 -0.1911
   97RES   C22727299   1.770   2.756   0.558  1.2152  0.2724  0.1943
   97RES   C22827300   1.891   2.736   0.637 -0.7179  0.0472 -0.3185
   97RES   C22927301   1.945   2.861   0.682 -0.1619 -0.7627  0.6246
   97RES   O23027302   2.051   2.828   0.773 -0.1141 -0.8596 -0.0264
   97RES   C23127303   2.071   2.921   0.873 -0.2351 -0.2123  0.0370
   97RES   H23227304   1.691   2.800   0.619 -1.1890 -2.4441 -0.8603
   97RES   H23327305   1.780   2.836   0.485  0.9040  0.4734  0.3682
   97RES   H23427306   1.964   2.687   0.571  1.6647  1.6857  1.0397
   97RES   H23527307   1.878   2.923   0.742 -1.1071  0.9873 -2.1769
   97RES   H23627308   1.979   2.916   0.595 -0.3950 -1.3234  0.1809
   97RES   H23727309   2.162   2.894   0.926 -0.4870 -0.7763  0.1758
   97RES   H23827310   1.986   2.940   0.938  0.9433  0.9403  1.2837
   97RES   H23927311   2.098   3.017   0.827 -1.9060 -0.2987 -1.1441
   97RES   O24027312   1.846   2.663   0.750 -0.3864 -0.0878 -0.1817
   97RES   C24127313   1.905   2.540   0.767 -0.1487 -0.2182 -0.7831
   97RES   C24227314   1.838   2.456   0.872 -0.8639  0.5263  0.3501
   97RES   C24327315   1.688   2.430   0.828  0.7624 -0.1682 -0.1486
   97RES   O24427316   1.608   2.382   0.936 -0.1256 -0.5484 -0.5488
   97RES   C24527317   1.575   2.481   1.034 -0.4311  0.0381 -0.1658
   97RES   H24627318   2.007   2.567   0.795 -0.5917  1.1937 -0.4894
   97RES   H24727319   1.900   2.483   0.674 -0.0230 -1.0617 -0.2818
   97RES   H24827320   1.856   2.509   0.966  0.8058 -0.4778  0.6295
   97RES   H24927321   1.640   2.518   0.786 -0.8512 -0.0907  1.8063
   97RES   H25027322   1.684   2.360   0.745 -2.1550 -0.1160 -0.0955
   97RES   H25127323   1.657   2.537   1.080 -0.4784  0.4138 -0.5288
   97RES   H25227324   1.522   2.434   1.116  0.5787  0.4057  0.7141
   97RES   H25327325   1.503   2.551   0.990 -1.2295 -2.1097 -2.3513
   97RES   O25427326   1.911   2.333   0.871 -0.3285  0.6094  0.0152
   97RES   C25527327   1.872   2.241   0.973  0.2310 -0.0097  0.8038
   97RES   C25627328   1.953   2.114   0.959  0.3688  0.3519 -0.3112
   97RES   C25727329   1.935   2.028   1.082  0.3249  0.6796  0.5592
   97RES   O25827330   2.030   1.919   1.081 -0.0694 -0.0604  0.2226
   97RES   C25927331   1.993   1.801   1.009 -0.4816  0.0307  0.2344
   97RES   H26027332   1.893   2.290   1.068 -1.1931 -0.9836  1.6455
   97RES   H26127333   1.765   2.223   0.987  0.1089 -0.8864 -1.0443
   97RES   H26227334   2.057   2.143   0.945  1.0129 -0.5264  2.3027
   97RES   H26327335   1.983   2.088   1.159 -0.7599  0.0603  1.7276
   97RES   H26427336   1.833   2.008   1.115 -0.1489 -0.1687 -1.3203
   97RES   H26527337   2.023   1.807   0.904  0.2067 -1.2968  0.3517
   97RES   H26627338   1.886   1.787   1.023 -0.7256  0.2906 -1.2161
   97RES   H26727339   2.052   1.719   1.049 -1.0572 -0.3166  0.3793
   97RES   O26827340   1.899   2.033   0.849 -0.0585  0.3652 -0.1964
   97RES   C26927341   1.926   2.093   0.723 -0.3109  0.2934 -0.1292
   97RES   C27027342   1.906   1.982   0.622 -0.2848  0.3621 -0.2220
   97RES   C27127343   1.949   2.028   0.480 -0.6271 -0.2744 -0.3271
   97RES   O27227344   1.855   2.113   0.428  0.4520 -0.2360  0.0041
   97RES   C27327345   1.884   2.198   0.316  0.3448 -0.3820  0.0332
   97RES   H27427346   2.030   2.127   0.715 -0.1981 -0.0872 -0.3266
   97RES   H27527347   1.859   2.175   0.698 -0.0955 -0.4433 -3.4022
   97RES   H27627348   1.970   1.894   0.632  0.5603  1.0247  0.2648
   97RES   H27727349   1.969   1.941   0.417 -1.4661 -2.0811  1.8554
   97RES   H27827350   2.049   2.072   0.491 -1.6815  1.9350  0.6983
   97RES   H27927351   1.969   2.266   0.330 -0.0181  0.3627 -1.3259
   97RES   H28027352   1.798   2.258   0.287  0.0209  0.4702  2.5685
   97RES   H28127353   1.910   2.139   0.229 -3.0364 -2.2216  0.1690
   97RES   H28227354   1.799   1.965   0.616 -0.1086 -0.6858 -0.4929
   98RES     O127355   6.321   5.468   1.550 -0.4215 -0.5530  0.1165
   98RES     C227356   6.194   5.513   1.592 -0.8002  0.3010  0.4763
   98RES     C327357   6.159   5.660   1.551 -0.5737  0.1189 -0.5378
   98RES     C427358   6.117   5.669   1.408 -0.0276  0.6242  0.1159
   98RES     O527359   6.014   5.577   1.375  0.4073 -0.2387 -0.6606
   98RES     C627360   5.972   5.592   1.243 -0.7080  0.1915 -0.1985
   98RES     H727361   6.122   5.444   1.547 -0.3321  1.6189 -2.4121
   98RES     H827362   6.194   5.517   1.701  1.6063 -0.8586  0.5529
   98RES     H927363   6.253   5.714   1.569 -0.2155 -1.1576  1.6006
   98RES    H1027364   6.204   5.643   1.348 -0.1510 -0.0050  0.1978
   98RES    H1127365   6.088   5.772   1.388  0.6004  0.8142  0.1888
   98RES    H1227366   5.957   5.698   1.225 -0.3423  0.2114 -0.3955
   98RES    H1327367   6.049   5.568   1.169  0.0855  1.2200  0.2663
   98RES    H1427368   5.873   5.551   1.224 -0.6184  0.9332 -2.3829
   98RES    H1527369   6.356   5.398   1.603  1.6762 -1.3801 -2.2592
   98RES    O1627370   6.055   5.709   1.635 -0.1264 -0.2874  0.1420
   98RES    C1727371   6.025   5.853   1.628 -0.3388 -0.7736 -0.2342
   98RES    C1827372   5.957   5.895   1.757  0.8817  0.0569  0.3693
   98RES    C1927373   5.983   6.040   1.789 -1.0619 -0.0548 -0.4373
   98RES    O2027374   5.998   6.055   1.926  0.0516 -0.5285  0.0586
   98RES    C2127375   6.044   6.187   1.957  0.5812  0.4444 -0.1733
   98RES    H2227376   5.972   5.879   1.536  0.9345  1.6947 -0.3055
   98RES    H2327377   6.121   5.904   1.619  0.3558 -2.0505 -0.2601
   98RES    H2427378   5.995   5.832   1.838 -1.5822 -1.2447  0.5765
   98RES    H2527379   6.075   6.070   1.739 -0.2141 -1.5216  0.2148
   98RES    H2627380   5.903   6.101   1.747 -0.6865  1.9090  1.5524
   98RES    H2727381   6.132   6.223   1.905  1.3241  2.1735  2.2223
   98RES    H2827382   6.064   6.182   2.064 -2.1352 -2.1376  0.2716
   98RES    H2927383   5.963   6.260   1.954 -1.0209 -1.1075  2.6785
   98RES    O3027384   5.814   5.886   1.744 -0.2004 -0.7178 -0.2774
   98RES    C3127385   5.762   5.757   1.720  0.0056  0.5857 -0.0669
   98RES    C3227386   5.617   5.774   1.690 -0.0120  0.7300 -0.0566
   98RES    C3327387   5.550   5.638   1.641  0.0371  0.7723  1.0741
   98RES    O3427388   5.405   5.629   1.668  0.2897 -0.0976 -0.2583
   98RES    C3527389   5.319   5.701   1.580 -0.1227 -0.0419  0.9950
   98RES    H3627390   5.803   5.711   1.630 -0.0075 -1.9163  1.1675
   98RES    H3727391   5.785   5.688   1.801  0.5949  1.0546  0.1706
   98RES    H3827392   5.561   5.804   1.778 -0.6394  0.1334 -0.2476
   98RES    H3927393   5.598   5.560   1.700 -0.0635 -0.0770  0.0414
   98RES    H4027394   5.570   5.612   1.537 -0.6879 -0.2941  1.1908
   98RES    H4127395   5.213   5.676   1.580 -0.8374  2.4652 -2.8999
   98RES    H4227396   5.358   5.692   1.479  0.7328  0.5817  1.2643
   98RES    H4327397   5.315   5.810   1.591 -0.8258  0.1721 -1.1605
   98RES    O4427398   5.583   5.882   1.604  0.0835 -0.1252 -0.1865
   98RES    C4527399   5.643   5.891   1.479  0.1384  0.8850  0.2231
   98RES    C4627400   5.618   6.030   1.421  0.1574  0.2777  0.1256
   98RES    C4727401   5.469   6.070   1.434  0.0664 -0.2077  0.0819
   98RES    O4827402   5.435   6.159   1.331 -0.0335  0.2150  0.1836
   98RES    C4927403   5.306   6.212   1.349 -0.2731 -0.0687 -0.2367
   98RES    H5027404   5.603   5.814   1.413 -1.3083  1.1761  0.7525
   98RES    H5127405   5.752   5.884   1.479  0.0718 -0.2809  0.0452
   98RES    H5227406   5.658   6.039   1.320 -2.3401  1.6749 -0.7915
   98RES    H5327407   5.402   5.984   1.428 -0.8977  0.6326 -1.7677
   98RES    H5427408   5.443   6.123   1.526  0.6906  0.5604 -0.1789
   98RES    H5527409   5.231   6.137   1.371 -0.2409  0.3552  1.4425
   98RES    H5627410   5.280   6.257   1.253  0.7757  1.5661  0.2122
   98RES    H5727411   5.300   6.293   1.422 -0.3854  0.5663 -0.9399
   98RES    O5827412   5.695   6.110   1.507 -0.0355  0.3965 -0.7812
   98RES    C5927413   5.703   6.245   1.468 -0.3806 -0.2639 -0.2078
   98RES    C6027414   5.776   6.326   1.580 -0.6444 -0.3109 -0.5658
   98RES    C6127415   5.684   6.328   1.706 -0.1364  0.0794  0.4577
   98RES    O6227416   5.757   6.386   1.810 -0.9364  0.1130 -0.1192
   98RES    C6327417   5.688   6.392   1.927 -0.3813 -0.6973  0.1910
   98RES    H6427418   5.607   6.295   1.452 -0.9660 -1.7045 -1.3289
   98RES    H6527419   5.754   6.248   1.372 -0.8160  0.6024 -0.4204
   98RES    H6627420   5.868   6.276   1.610 -0.6292 -1.6073 -2.6955
   98RES    H6727421   5.608   6.402   1.683  0.7856  1.3918  1.5736
   98RES    H6827422   5.653   6.230   1.741 -0.9295  0.4141  0.6988
   98RES    H6927423   5.645   6.299   1.963  1.5698 -2.2249 -1.2825
   98RES    H7027424   5.612   6.470   1.922 -0.3533 -0.8016 -2.7013
   98RES    H7127425   5.754   6.421   2.009 -0.4681 -0.2955  0.1187
   98RES    O7227426   5.797   6.465   1.542  0.3222  0.1542  0.1521
   98RES    C7327427   5.925   6.494   1.489  0.4492  0.0130 -0.1634
   98RES    C7427428   5.971   6.633   1.545  0.7440  0.5471  0.5264
   98RES    C7527429   5.953   6.624   1.705  0.6042 -0.4145  0.1222
   98RES    O7627430   6.002   6.730   1.774 -0.0097 -0.0549 -0.2676
   98RES    C7727431   5.977   6.703   1.912 -0.1153 -0.2358 -0.1974
   98RES    H7827432   5.995   6.420   1.527 -1.6425 -0.8559  2.1573
   98RES    H7927433   5.915   6.503   1.381 -0.7528  0.1905 -0.0417
   98RES    H8027434   6.078   6.637   1.525  0.8512 -3.1260  0.0387
   98RES    H8127435   6.006   6.533   1.731  0.5213 -0.1270  1.3392
   98RES    H8227436   5.846   6.621   1.724  0.6480  1.0215  0.6835
   98RES    H8327437   5.876   6.676   1.944  0.1956 -1.8111 -0.5234
   98RES    H8427438   5.990   6.780   1.987 -2.0863 -0.0429 -0.0126
   98RES    H8527439   6.050   6.624   1.930 -0.2718 -0.2161  0.5377
   98RES    O8627440   5.880   6.731   1.495  0.5513  0.3592 -0.4177
   98RES    C8727441   5.924   6.863   1.506 -0.1590  0.3653  0.6897
   98RES    C8827442   5.819   6.946   1.433  0.5077 -0.3418  0.0380
   98RES    C8927443   5.709   6.991   1.526 -0.3088  0.1433  0.5435
   98RES    O9027444   5.612   7.064   1.443 -0.4644 -0.1905 -0.0239
   98RES    C9127445   5.477   7.077   1.499  0.0257 -0.1304  0.0125
   98RES    H9227446   5.937   6.885   1.612  1.3703 -1.4358  0.9107
   98RES    H9327447   6.019   6.874   1.455  0.2032 -0.9872  1.0421
   98RES    H9427448   5.775   6.897   1.347  0.9628  1.2292 -1.1031
   98RES    H9527449   5.652   6.907   1.565 -0.3232  0.2342  0.7202
   98RES    H9627450   5.735   7.047   1.616 -0.5316  0.9235  0.1342
   98RES    H9727451   5.421   7.150   1.440  2.2666  1.0857 -0.6474
   98RES    H9827452   5.428   6.979   1.501  0.4815 -0.3708 -0.4157
   98RES    H9927453   5.489   7.104   1.603  1.3170 -3.1231  0.6929
   98RES   O10027454   5.893   7.063   1.394 -0.7928 -0.0838  0.5602
   98RES   C10127455   5.869   7.091   1.260  0.1118  0.8104  0.3416
   98RES   C10227456   5.930   7.228   1.226  0.1571 -1.0935  0.4857
   98RES   C10327457   6.082   7.222   1.239 -0.4126 -0.4585 -0.9575
   98RES   O10427458   6.157   7.332   1.175  0.4860 -0.2004  0.2510
   98RES   C10527459   6.294   7.318   1.176  0.0268 -0.0477  0.7154
   98RES   H10627460   5.763   7.105   1.241 -0.1598 -0.3980  0.9015
   98RES   H10727461   5.904   7.011   1.195 -1.7572  0.6542 -0.5079
   98RES   H10827462   5.905   7.253   1.123  0.5597 -1.4114  0.3079
   98RES   H10927463   6.118   7.124   1.206 -0.2597  0.2318 -2.9549
   98RES   H11027464   6.109   7.241   1.342  1.0037  2.3161 -1.7728
   98RES   H11127465   6.331   7.301   1.277  1.2022 -1.3724  0.0714
   98RES   H11227466   6.341   7.405   1.130  0.8959  0.1112  1.8853
   98RES   H11327467   6.324   7.230   1.119  0.3606 -0.0642  0.9180
   98RES   O11427468   5.881   7.328   1.319 -0.0230 -0.0659  0.6524
   98RES   C11527469   5.772   7.408   1.279 -0.0440  0.4926 -0.3481
   98RES   C11627470   5.739   7.496   1.402  0.0970  0.0601 -0.4832
   98RES   C11727471   5.702   7.409   1.529 -0.2888  0.6071 -0.6167
   98RES   O11827472   5.627   7.488   1.618  0.3723  0.2450 -0.4024
   98RES   C11927473   5.707   7.547   1.718 -0.3965  0.1477  0.0177
   98RES   H12027474   5.800   7.465   1.190  0.5077 -2.7891 -2.3253
   98RES   H12127475   5.684   7.348   1.259 -0.2335  0.5469  0.3134
   98RES   H12227476   5.653   7.551   1.364  1.5525  2.0513 -0.9721
   98RES   H12327477   5.633   7.332   1.493 -0.3857 -0.4894  1.8674
   98RES   H12427478   5.798   7.369   1.563 -0.5234  0.7499  0.2060
   98RES   H12527479   5.791   7.603   1.676 -0.7371  2.5233  2.4253
   98RES   H12627480   5.728   7.455   1.773  1.8179  1.5096  1.5143
   98RES   H12727481   5.637   7.608   1.774  0.6690  1.6378 -0.2478
   98RES   O12827482   5.838   7.591   1.438  0.4097 -0.8161 -0.2416
   98RES   C12927483   5.850   7.702   1.356 -0.6031 -0.4277 -0.3228
   98RES   C13027484   5.970   7.779   1.399 -0.1381 -0.5352 -0.0491
   98RES   C13127485   6.106   7.699   1.394 -0.3745 -0.4969  0.8797
   98RES   O13227486   6.221   7.781   1.394 -0.7213  0.1864  0.1589
   98RES   C13327487   6.334   7.715   1.342  0.5031  0.2086 -0.7974
   98RES   H13427488   5.860   7.661   1.255  1.9177  0.3980 -0.4622
   98RES   H13527489   5.760   7.762   1.364  0.9132  1.8434  0.0908
   98RES   H13627490   5.990   0.041   1.326 -0.1960 -2.4599 -2.1884
   98RES   H13727491   6.101   7.643   1.300 -0.4952  1.7305 -0.4846
   98RES   H13827492   6.115   7.625   1.473 -0.9702 -0.8950  0.5805
   98RES   H13927493   6.426   7.774   1.338  0.1513  0.7200 -1.4657
   98RES   H14027494   6.369   7.630   1.400 -1.7602 -0.3103 -0.1424
   98RES   H14127495   6.318   7.680   1.240 -0.0110 -2.5834  0.2263
   98RES   O14227496   5.948   0.024   1.527 -0.2871 -0.5581 -0.2084
   98RES   C14327497   6.029   0.135   1.566 -0.8020 -0.3335 -0.4251
   98RES   C14427498   5.935   0.255   1.551 -0.0314 -0.4265  0.2508
   98RES   C14527499   5.989   0.394   1.545  0.1143 -0.0039  0.4642
   98RES   O14627500   5.926   0.460   1.431 -0.1134  0.0605  0.2364
   98RES   C14727501   5.935   0.600   1.441 -0.6688 -0.6466 -0.4592
   98RES   H14827502   6.055   0.128   1.672 -3.2072 -0.7807  0.1603
   98RES   H14927503   6.118   0.149   1.505 -0.6177  2.1523  0.3257
   98RES   H15027504   5.892   0.247   1.451  0.3277  0.8264 -0.0190
   98RES   H15127505   6.091   0.387   1.506 -0.6131 -2.7164 -1.0953
   98RES   H15227506   5.999   0.430   1.648  0.2896 -0.0489  0.4627
   98RES   H15327507   5.844   0.647   1.405 -1.8768 -0.8852  2.1774
   98RES   H15427508   6.026   0.639   1.394 -0.4355  1.7819  1.8375
   98RES   H15527509   5.938   0.631   1.546  0.5467  1.3671 -1.0577
   98RES   O15627510   5.827   0.252   1.644  0.5490  0.4081 -0.1334
   98RES   C15727511   5.716   0.165   1.618  0.3793  1.2072 -0.2675
   98RES   C15827512   5.585   0.206   1.689  0.8353 -0.5279 -0.5261
   98RES   C15927513   5.483   0.093   1.700  1.1872  0.3609  0.3048
   98RES   O16027514   5.376   0.122   1.791 -0.3265 -0.1836  0.0007
   98RES   C16127515   5.288   0.014   1.813 -0.2538  0.6700 -1.2635
   98RES   H16227516   5.708   0.154   1.510  2.2681  2.1684 -0.5282
   98RES   H16327517   5.743   0.065   1.654  0.9809  1.1795 -0.7973
   98RES   H16427518   5.592   0.237   1.793  0.6061 -1.9265 -0.0836
   98RES   H16527519   5.447   0.059   1.603  3.6057 -1.6080  0.0131
   98RES   H16627520   5.541   0.008   1.736  2.3480  0.4198 -1.3675
   98RES   H16727521   5.204   7.814   1.747 -0.9990  0.1303 -0.1955
   98RES   H16827522   5.252   0.030   1.915 -0.5771  3.1682 -1.7367
   98RES   H16927523   5.348   7.740   1.819 -2.0640 -0.5292 -1.1436
   98RES   O17027524   5.518   0.302   1.605 -0.0395  0.1592 -0.4164
   98RES   C17127525   5.496   0.427   1.669  0.1504 -0.5015  0.6365
   98RES   C17227526   5.444   0.518   1.557  0.0139  0.5128  0.1880
   98RES   C17327527   5.460   0.665   1.602  0.5264 -0.5409  0.2215
   98RES   O17427528   5.400   0.743   1.498 -0.0208  0.1031 -0.3728
   98RES   C17527529   5.308   0.839   1.545 -0.2259 -0.6410  0.6067
   98RES   H17627530   5.585   0.467   1.718  0.2680 -1.6478  1.3795
   98RES   H17727531   5.412   0.413   1.737 -1.6602  1.5795 -1.0965
   98RES   H17827532   5.498   0.506   1.463 -1.3282  1.0637 -0.6701
   98RES   H17927533   5.418   0.675   1.702 -1.7751 -0.1350 -0.7630
   98RES   H18027534   5.563   0.700   1.609  1.1219 -1.9340 -1.2483
   98RES   H18127535   5.280   0.906   1.463 -0.0250 -0.1200  0.9633
   98RES   H18227536   5.342   0.898   1.630 -0.8406  1.7390 -0.7622
   98RES   H18327537   5.219   0.782   1.572 -2.0046  0.5848 -2.3897
   98RES   O18427538   5.304   0.496   1.544 -0.3780 -0.0477 -0.2916
   98RES   C18527539   5.266   0.399   1.445  0.1222 -0.1006 -0.5277
   98RES   C18627540   5.123   0.355   1.459  0.6177 -0.3470  0.3251
   98RES   C18727541   5.089   0.213   1.405 -0.6168  0.3022  0.3222
   98RES   O18827542   5.127   0.186   1.275 -0.4793 -0.4959  0.1636
   98RES   C18927543   5.037   0.243   1.183  0.4698  0.0208 -0.3248
   98RES   H19027544   5.335   0.314   1.443  1.5926  0.9553  2.5541
   98RES   H19127545   5.280   0.443   1.346  0.9243  0.6368 -0.0877
   98RES   H19227546   5.097   0.343   1.565 -0.3247  0.0097  0.1399
   98RES   H19327547   4.984   0.182   1.406 -0.1800 -1.2106  0.2973
   98RES   H19427548   5.141   0.146   1.473 -0.8697  0.6619  0.8725
   98RES   H19527549   4.931   0.220   1.192  0.8028 -2.0538 -1.3746
   98RES   H19627550   5.051   0.351   1.183 -0.9146  0.2405  1.5093
   98RES   H19727551   5.051   0.210   1.080 -0.3278 -1.1339 -0.0679
   98RES   O19827552   5.037   0.454   1.395  0.1692 -0.0689  0.0200
   98RES   C19927553   4.952   0.534   1.479 -0.1632 -0.5520 -0.0687
   98RES   C20027554   4.854   0.621   1.393  0.6056 -0.7838 -0.8667
   98RES   C20127555   4.824   0.751   1.471  0.6670 -0.5063 -1.1445
   98RES   O20227556   4.794   0.734   1.610 -0.2544  0.0010  0.1125
   98RES   C20327557   4.776   0.850   1.680 -0.5425  0.0018  0.3903
   98RES   H20427558   5.018   0.601   1.534 -0.9828 -0.2272  0.5293
   98RES   H20527559   4.894   0.470   1.545 -0.0760 -0.7189 -0.1549
   98RES   H20627560   4.907   0.642   1.300  1.9316 -1.8205 -0.3676
   98RES   H20727561   4.905   0.823   1.457 -0.5690  1.3657  1.0925
   98RES   H20827562   4.734   0.798   1.433  0.3693 -0.0514  0.1132
   98RES   H20927563   4.874   0.898   1.686  0.5806 -2.1583 -0.2593
   98RES   H21027564   4.740   0.829   1.781 -1.1989  1.5409  0.4931
   98RES   H21127565   4.704   0.904   1.618 -0.2573 -1.4512 -1.2461
   98RES   O21227566   4.735   0.553   1.359  0.0106  0.4334  0.6689
   98RES   C21327567   4.755   0.438   1.268 -0.2071  0.2695 -0.0731
   98RES   C21427568   4.619   0.379   1.211 -0.7130 -0.1632  0.0024
   98RES   C21527569   4.627   0.228   1.201 -0.2277  0.0797 -0.2491
   98RES   O21627570   4.496   0.171   1.188 -0.4403 -0.4545 -0.0106
   98RES   C21727571   4.492   0.038   1.146 -0.1377 -0.4923 -0.2146
   98RES   H21827572   4.813   0.367   1.327 -1.0861 -1.8415 -1.6663
   98RES   H21927573   4.823   0.477   1.192 -0.0952 -1.7494 -1.0510
   98RES   H22027574   4.538   0.408   1.277 -1.9278 -2.0910 -0.6038
   98RES   H22127575   4.681   0.207   1.109 -0.2205 -0.3948 -0.1393
   98RES   H22227576   4.682   0.187   1.286 -2.0819  0.6646  1.2632
   98RES   H22327577   4.535   7.773   1.204  1.9868 -0.9350 -2.2850
   98RES   H22427578   4.524   0.032   1.042 -1.0444 -2.6739 -0.4032
   98RES   H22527579   4.385   0.021   1.149 -0.4524  1.1363 -1.5438
   98RES   O22627580   4.597   0.427   1.083  0.2849  0.1266 -0.1340
   98RES   C22727581   4.564   0.565   1.063 -0.3105 -0.0478  0.6682
   98RES   C22827582   4.540   0.586   0.917 -0.4965 -0.0180 -0.0548
   98RES   C22927583   4.477   0.727   0.888 -0.8166 -0.1971  0.5205
   98RES   O23027584   4.394   0.716   0.773  0.0590  0.0465  0.2737
   98RES   C23127585   4.355   0.836   0.709 -0.0028  0.4777  0.9953
   98RES   H23227586   4.637   0.635   1.104  0.9879 -0.9910 -0.0301
   98RES   H23327587   4.472   0.582   1.119 -1.0143 -1.5556 -0.0082
   98RES   H23427588   4.466   0.510   0.892 -1.2208 -0.0323  2.0576
   98RES   H23527589   4.552   0.806   0.882 -2.5418  1.3855 -0.7686
   98RES   H23627590   4.407   0.751   0.968 -1.3926 -0.2944  0.0490
   98RES   H23727591   4.432   0.901   0.668 -0.2723  0.3016  0.2072
   98RES   H23827592   4.286   0.896   0.768 -1.1168  1.4568 -1.2445
   98RES   H23927593   4.293   0.807   0.624  2.9601  0.6450 -1.2938
   98RES   O24027594   4.658   0.561   0.847 -0.5747  0.3329 -0.4171
   98RES   C24127595   4.653   0.583   0.706  0.0815 -0.3060  0.3297
   98RES   C24227596   4.769   0.509   0.652  0.4927  0.4285  0.8717
   98RES   C24327597   4.759   0.470   0.499 -0.3694 -0.1114  0.3026
   98RES   O24427598   4.748   0.583   0.418 -0.2215  0.7002 -0.3808
   98RES   C24527599   4.730   0.546   0.284  0.0097 -0.2356 -0.5716
   98RES   H24627600   4.660   0.691   0.688 -3.5020 -0.2031 -0.8119
   98RES   H24727601   4.558   0.552   0.663  0.8930 -0.0746 -1.7074
   98RES   H24827602   4.774   0.410   0.697  0.6863 -0.3704 -0.8718
   98RES   H24927603   4.853   0.417   0.483 -1.2244 -2.1333  1.7076
   98RES   H25027604   4.682   0.397   0.474  0.6043 -0.2701 -2.3074
   98RES   H25127605   4.747   0.633   0.221  2.7197 -0.8679 -0.7809
   98RES   H25227606   4.626   0.523   0.259 -0.6200  1.6952  0.2551
   98RES   H25327607   4.789   0.463   0.244  0.1416  1.4769 -4.1947
   98RES   O25427608   4.880   0.593   0.682  0.1310  0.0263  0.5062
   98RES   C25527609   5.006   0.520   0.679  0.1063 -1.0266 -0.0038
   98RES   C25627610   5.110   0.606   0.755  0.0615 -0.1660  0.3554
   98RES   C25727611   5.086   0.605   0.909  0.2476 -0.5707  0.0426
   98RES   O25827612   5.185   0.671   0.993 -0.7349 -0.0559  0.2249
   98RES   C25927613   5.154   0.657   1.124  0.5898  0.0767  0.2923
   98RES   H26027614   4.990   0.429   0.737  3.4905 -0.5005  1.8894
   98RES   H26127615   5.035   0.505   0.575 -0.8216 -0.1660 -0.3931
   98RES   H26227616   5.103   0.709   0.720  0.9115  0.1633  1.1447
   98RES   H26327617   4.993   0.661   0.922  0.8032  0.4699 -0.4870
   98RES   H26427618   5.070   0.505   0.951 -1.0805  0.7070  2.7276
   98RES   H26527619   5.055   0.682   1.161  0.5304 -1.0120  0.8679
   98RES   H26627620   5.220   0.719   1.184  2.1539 -2.9292  1.8040
   98RES   H26727621   5.182   0.553   1.138  1.6889  0.2530 -0.5282
   98RES   O26827622   5.239   0.555   0.728 -0.5198 -0.9107 -0.0898
   98RES   C26927623   5.341   0.653   0.731  0.0690  0.1309  0.4419
   98RES   C27027624   5.455   0.602   0.654  0.3665 -0.5521 -0.3876
   98RES   C27127625   5.565   0.702   0.645 -0.0530 -0.3175  0.1788
   98RES   O27227626   5.673   0.665   0.558  0.1424  0.2777 -0.5894
   98RES   C27327627   5.760   0.773   0.528 -0.2749  0.6001  0.2832
   98RES   H27427628   5.367   0.675   0.835 -0.6568  0.0503  0.6394
   98RES   H27527629   5.316   0.748   0.684  1.6052  0.5595  0.4648
   98RES   H27627630   5.480   0.502   0.690 -0.3463 -0.8006 -0.5698
   98RES   H27727631   5.599   0.725   0.746 -1.5228 -0.6757  0.7783
   98RES   H27827632   5.523   0.790   0.595  0.7451 -0.4446 -0.7247
   98RES   H27927633   5.727   0.835   0.444 -0.0225  0.0070 -0.2569
   98RES   H28027634   5.858   0.729   0.511  0.3991  1.4474  1.9610
   98RES   H28127635   5.768   0.824   0.623  2.2698 -1.0646  0.9917
   98RES   H28227636   5.418   0.598   0.551  1.0660  0.4566 -0.6787
   99RES     O127637   0.770   5.790   1.440  0.2076  0.3984 -0.3947
   99RES     C227638   0.746   5.889   1.539 -0.1438 -0.2967  0.4942
   99RES     C327639   0.879   5.946   1.594 -0.4239 -0.1496  0.3048
   99RES     C427640   0.868   6.073   1.680  0.2472 -0.3385  0.4645
   99RES     O527641   0.997   6.117   1.693 -0.3380 -0.5325 -0.5388
   99RES     C627642   0.995   6.241   1.774  0.2129 -0.5858 -0.5657
   99RES     H727643   0.681   5.967   1.499 -1.4068 -0.6439  1.8432
   99RES     H827644   0.688   5.844   1.620  1.0023  1.7602  2.5127
   99RES     H927645   0.948   5.956   1.510 -0.6657 -1.4143 -0.0563
   99RES    H1027646   0.826   6.050   1.778 -2.2683 -2.9720 -1.1471
   99RES    H1127647   0.805   6.152   1.639 -1.6463 -1.6944  0.6889
   99RES    H1227648   0.992   6.213   1.879 -2.2731  2.4799  0.2704
   99RES    H1327649   1.092   6.287   1.762 -1.0590  2.3934  0.2574
   99RES    H1427650   0.906   6.303   1.761  0.8428  0.0766 -1.8151
   99RES    H1527651   0.830   5.728   1.480  1.9303  1.0912 -1.8321
   99RES    O1627652   0.922   5.837   1.683  0.6467  0.4884  0.4043
   99RES    C1727653   1.062   5.812   1.680  0.1124  0.6900  0.2336
   99RES    C1827654   1.088   5.676   1.726 -0.3596  0.5926 -0.2998
   99RES    C1927655   1.060   5.666   1.881 -0.2390  0.2845  0.5934
   99RES    O2027656   1.148   5.566   1.924 -0.7728  0.0135 -0.3352
   99RES    C2127657   1.119   5.525   2.061 -0.1928  0.4769  0.1890
   99RES    H2227658   1.110   5.893   1.736 -1.0849  1.2919  0.4128
   99RES    H2327659   1.105   5.827   1.580  0.6870 -1.0962  0.1986
   99RES    H2427660   1.193   5.654   1.710 -0.5871  0.2533 -1.3542
   99RES    H2527661   1.077   5.755   1.942  0.0216 -0.3309  1.4398
   99RES    H2627662   0.953   5.647   1.893 -0.3433 -0.5173 -1.4574
   99RES    H2727663   1.113   5.609   2.131  3.4013  1.5954 -0.7522
   99RES    H2827664   1.200   5.462   2.097 -1.0745 -1.2682 -0.8293
   99RES    H2927665   1.023   5.474   2.072  0.7250 -0.9561  1.7239
   99RES    O3027666   1.012   5.580   1.655  0.5136  0.0494 -0.0746
   99RES    C3127667   1.037   5.443   1.688  0.1825  0.8310 -0.1993
   99RES    C3227668   0.976   5.344   1.595 -0.2916 -0.0688 -0.1414
   99RES    C3327669   1.010   5.203   1.636  0.3675 -0.1317  0.4505
   99RES    O3427670   0.925   5.120   1.551 -0.1322 -0.5193 -0.1500
   99RES    C3527671   0.952   4.982   1.582 -0.6480 -0.7949 -0.1705
   99RES    H3627672   1.146   5.435   1.680  0.2022  2.6160 -2.0352
   99RES    H3727673   1.006   5.426   1.790 -0.5941  0.0604 -0.5572
   99RES    H3827674   0.867   5.345   1.592 -0.2896  2.2692 -0.4288
   99RES    H3927675   0.983   5.191   1.741  0.4068  1.2468  0.6177
   99RES    H4027676   1.117   5.191   1.624  0.5573 -0.1155  2.0127
   99RES    H4127677   0.904   4.906   1.520  0.7386 -4.1433  2.6462
   99RES    H4227678   0.928   4.972   1.688  1.2486  0.7723  0.4278
   99RES    H4327679   1.059   4.958   1.576 -0.2834  0.5298  0.9065
   99RES    O4427680   1.036   5.354   1.466 -0.7896 -0.0513  0.0985
   99RES    C4527681   0.998   5.468   1.387  0.6659  0.0501 -0.4311
   99RES    C4627682   1.001   5.424   1.232 -0.3096 -0.3422 -0.3088
   99RES    C4727683   0.962   5.552   1.148  0.2531  0.0835 -0.1051
   99RES    O4827684   1.033   5.678   1.175  0.3513 -0.3728  0.2446
   99RES    C4927685   0.983   5.776   1.086  0.0355 -0.2356  0.4704
   99RES    H5027686   1.060   5.557   1.402 -1.2415  1.3013  0.1946
   99RES    H5127687   0.896   5.491   1.416  0.3874 -0.1511 -1.2453
   99RES    H5227688   0.922   5.353   1.209 -0.1199 -0.3046 -1.0705
   99RES    H5327689   0.973   5.520   1.045 -1.8774 -1.5955  0.1501
   99RES    H5427690   0.857   5.572   1.165  0.5365  1.1513  0.4391
   99RES    H5527691   0.881   5.806   1.108 -0.4261  0.3058 -2.2198
   99RES    H5627692   0.984   5.741   0.982  0.8865 -0.7334  0.6429
   99RES    H5727693   1.052   5.860   1.082 -0.1935 -0.0342  0.7407
   99RES    O5827694   1.129   5.379   1.188 -0.1194  0.7842 -0.1262
   99RES    C5927695   1.137   5.237   1.209  0.2371 -0.2676  0.0478
   99RES    C6027696   1.254   5.187   1.121 -0.0986  0.1429 -0.3215
   99RES    C6127697   1.242   5.037   1.104  0.0786  0.2679  1.2862
   99RES    O6227698   1.265   4.975   1.221  0.2632  0.2481  0.3081
   99RES    C6327699   1.240   4.835   1.204 -0.5983 -0.4047 -0.4518
   99RES    H6427700   1.052   5.177   1.180 -0.5592 -0.1403  2.0123
   99RES    H6527701   1.149   5.215   1.315 -2.0191  1.1924  0.6413
   99RES    H6627702   1.233   5.228   1.022 -1.3236  0.5374  0.0845
   99RES    H6727703   1.144   5.017   1.060  0.7904  0.3720 -0.3578
   99RES    H6827704   1.317   5.002   1.034 -1.6946  0.3373 -0.6935
   99RES    H6927705   1.289   4.793   1.116 -0.6199  0.5122 -0.9045
   99RES    H7027706   1.137   4.811   1.179 -0.8914 -2.0400  2.1349
   99RES    H7127707   1.253   4.777   1.296 -2.5080  1.4871  1.0354
   99RES    O7227708   1.381   5.217   1.173  0.5409  0.3229 -0.1110
   99RES    C7327709   1.452   5.334   1.126 -0.1461  1.3632 -0.2199
   99RES    C7427710   1.597   5.310   1.113 -0.1502  0.2729  0.2763
   99RES    C7527711   1.661   5.450   1.103  0.2790 -0.0797  0.5109
   99RES    O7627712   1.803   5.439   1.140 -0.3172  0.4718 -0.0222
   99RES    C7727713   1.849   5.566   1.189  0.5658  0.8481  0.4048
   99RES    H7827714   1.407   5.370   1.034 -0.2220 -0.2008 -0.8030
   99RES    H7927715   1.431   5.405   1.206 -0.1327 -1.1998  2.1477
   99RES    H8027716   1.637   5.254   1.197  1.6040 -0.8985 -1.3292
   99RES    H8127717   1.618   5.517   1.178  0.3023 -0.4685  0.8703
   99RES    H8227718   1.641   5.486   1.002 -0.5102  0.7258  0.9470
   99RES    H8327719   1.814   5.651   1.131 -1.1042 -0.0115  0.1325
   99RES    H8427720   1.957   5.573   1.203  0.6676 -1.4938  0.9250
   99RES    H8527721   1.814   5.567   1.292 -0.1831  2.0510  0.1493
   99RES    O8627722   1.626   5.237   0.995  0.1754  0.4336  0.5714
   99RES    C8727723   1.764   5.209   0.979  0.5287 -0.8845 -0.2935
   99RES    C8827724   1.805   5.126   0.859 -1.2687 -0.3010 -0.0021
   99RES    C8927725   1.960   5.106   0.847 -0.0078  0.4322 -0.3206
   99RES    O9027726   1.992   5.085   0.714  0.3061  0.5195  0.6649
   99RES    C9127727   2.130   5.036   0.702  0.0194 -0.1684  0.6666
   99RES    H9227728   1.816   5.304   0.974 -1.3732  0.1254 -1.0891
   99RES    H9327729   1.796   5.158   1.070  0.4660 -0.2678  0.0739
   99RES    H9427730   1.764   5.176   0.771  0.5449 -0.0164 -0.7121
   99RES    H9527731   2.002   5.204   0.871  1.3086 -0.3620  0.6726
   99RES    H9627732   2.002   5.034   0.917 -1.2752  0.1916  0.2107
   99RES    H9727733   2.197   5.109   0.745 -1.9586  1.4682  1.0379
   99RES    H9827734   2.148   4.935   0.741 -0.4731 -1.0855 -1.3886
   99RES    H9927735   2.160   5.033   0.597  1.2958  2.3866  0.9412
   99RES   O10027736   1.730   5.008   0.856  0.4783 -0.1993 -0.5902
   99RES   C10127737   1.726   4.923   0.746 -0.3893  0.2324 -0.9832
   99RES   C10227738   1.582   4.876   0.736  0.4147  0.0577  0.3039
   99RES   C10327739   1.560   4.752   0.649  0.2136  0.0766  0.4520
   99RES   O10427740   1.437   4.682   0.692  0.0773  0.1015  0.3667
   99RES   C10527741   1.315   4.745   0.664 -0.4309 -0.6094  0.2815
   99RES   H10627742   1.795   4.840   0.759  0.4047  0.9440 -0.6413
   99RES   H10727743   1.754   4.966   0.650 -2.2331 -1.2512 -2.2228
   99RES   H10827744   1.546   4.858   0.837  3.2557 -1.0483  1.1594
   99RES   H10927745   1.646   4.687   0.666 -0.5568 -0.9326  0.5630
   99RES   H11027746   1.564   4.782   0.544 -1.7485  0.3869  0.4450
   99RES   H11127747   1.243   4.673   0.703  0.6819 -2.0664 -0.3220
   99RES   H11227748   1.288   4.759   0.559 -2.1284 -0.1793  0.7559
   99RES   H11327749   1.286   4.835   0.718 -0.8621  0.1688 -1.2311
   99RES   O11427750   1.500   4.967   0.665  0.1651  0.1536  0.2194
   99RES   C11527751   1.478   5.095   0.725 -0.1979  0.3602  1.2004
   99RES   C11627752   1.403   5.178   0.622 -0.9011  0.1184  0.2693
   99RES   C11727753   1.345   5.306   0.680 -0.6970  0.2112  0.0294
   99RES   O11827754   1.263   5.361   0.584  0.2026  0.5777  0.2130
   99RES   C11927755   1.190   5.470   0.636  0.1285 -0.6372  0.3488
   99RES   H12027756   1.417   5.068   0.811  0.1124 -1.1432  0.9590
   99RES   H12127757   1.563   5.157   0.755  0.8275 -0.2973 -0.3010
   99RES   H12227758   1.324   5.115   0.581  1.1526 -2.4487  0.0547
   99RES   H12327759   1.293   5.278   0.772 -0.1672 -1.4784 -0.1565
   99RES   H12427760   1.419   5.377   0.715  1.4379 -2.6131  1.3770
   99RES   H12527761   1.135   5.502   0.547  0.6498 -0.5568  0.0571
   99RES   H12627762   1.263   5.546   0.662 -0.5287 -0.5748  2.0752
   99RES   H12727763   1.132   5.425   0.717 -0.8305  0.1397  0.1095
   99RES   O12827764   1.506   5.218   0.522 -0.1146  0.6724  0.4496
   99RES   C12927765   1.464   5.170   0.388 -0.0209 -0.0773  0.6379
   99RES   C13027766   1.553   5.223   0.271  0.0619  0.0394  0.1406
   99RES   C13127767   1.485   5.202   0.131  0.1997 -0.4348 -0.7774
   99RES   O13227768   1.542   5.277   0.030  0.2428  0.0703 -0.1880
   99RES   C13327769   1.502   5.245   7.712  0.3960  0.0506 -0.0766
   99RES   H13427770   1.450   5.063   0.373  0.2575  0.0728 -0.7383
   99RES   H13527771   1.366   5.219   0.386  0.9431  1.9350  1.0860
   99RES   H13627772   1.593   5.325   0.281 -1.0148  0.4647  0.1107
   99RES   H13727773   1.390   5.254   0.147  0.7186  0.0101  1.0453
   99RES   H13827774   1.465   5.098   0.105 -0.1989 -0.6320  0.2891
   99RES   H13927775   1.496   5.137   7.698 -1.0024 -0.0422  1.1272
   99RES   H14027776   1.400   5.278   7.696  0.0664 -0.4622  0.9453
   99RES   H14127777   1.572   5.283   7.637 -0.7005 -0.0060 -1.1426
   99RES   O14227778   1.662   5.128   0.264  0.0113  0.6566  0.1273
   99RES   C14327779   1.771   5.154   0.357 -0.2962 -0.6469 -0.1577
   99RES   C14427780   1.900   5.086   0.303 -0.2948  0.1114 -0.1966
   99RES   C14527781   1.939   5.146   0.163 -0.2159 -0.6458 -0.1450
   99RES   O14627782   2.063   5.095   0.123 -0.1935  0.6183 -0.2597
   99RES   C14727783   2.097   5.144   7.815  0.2199 -0.3430 -0.2363
   99RES   H14827784   1.792   5.260   0.373  0.7510 -0.6118 -1.6986
   99RES   H14927785   1.743   5.100   0.447 -0.6384  1.4909  1.0589
   99RES   H15027786   1.976   5.094   0.380 -2.4447  1.1130  1.8494
   99RES   H15127787   1.939   5.255   0.158  0.9545 -0.6021  0.6739
   99RES   H15227788   1.862   5.113   0.094 -0.3326  0.9234 -0.7948
   99RES   H15327789   2.041   5.098   7.733  0.4470  0.5035 -0.8751
   99RES   H15427790   2.201   5.120   7.791  1.2044  2.3543  1.1470
   99RES   H15527791   2.084   5.252   7.809  2.4282 -0.1008 -1.2066
   99RES   O15627792   1.867   4.944   0.314  0.0237  0.1543 -0.4073
   99RES   C15727793   1.980   4.863   0.303 -0.5101 -0.0733  0.4559
   99RES   C15827794   1.929   4.717   0.331  0.3176  0.4353  0.2559
   99RES   C15927795   2.043   4.628   0.376 -0.5040 -0.2605 -0.4856
   99RES   O16027796   2.008   4.529   0.478  0.1291  0.4297 -0.0826
   99RES   C16127797   2.101   4.449   0.535 -0.0732 -0.2518  0.0631
   99RES   H16227798   2.024   4.869   0.204 -0.3237  2.5458  0.6661
   99RES   H16327799   2.058   4.891   0.374  0.1465  1.7693 -0.9582
   99RES   H16427800   1.869   4.729   0.421  1.5819 -1.9131  1.4753
   99RES   H16527801   2.098   4.592   0.289  2.3585  0.9415  0.7814
   99RES   H16627802   2.117   4.694   0.420 -0.1534 -1.4273  0.6715
   99RES   H16727803   2.191   4.510   0.547 -0.4485  0.7826 -2.0888
   99RES   H16827804   2.126   4.358   0.481 -2.3737 -1.7208  1.4283
   99RES   H16927805   2.073   4.409   0.632  2.0342  0.3826  0.9598
   99RES   O17027806   1.870   4.654   0.216  0.2857  0.3422 -0.0643
   99RES   C17127807   1.732   4.684   0.209 -0.3071  0.4764  0.2018
   99RES   C17227808   1.652   4.567   0.147 -0.3291 -0.0433 -0.1432
   99RES   C17327809   1.535   4.618   0.052  0.2429 -0.4272  0.2327
   99RES   O17427810   1.511   4.541   7.755  0.3242 -0.1997 -0.1006
   99RES   C17527811   1.409   4.598   7.673 -0.5804 -0.5760 -0.3936
   99RES   H17627812   1.719   4.774   0.149 -0.0795  0.8630  0.7218
   99RES   H17727813   1.688   4.710   0.306  0.3450  1.8348  0.1444
   99RES   H17827814   1.730   4.511   0.097 -0.2281  1.5440 -1.8424
   99RES   H17927815   1.447   4.630   0.115  0.6918 -1.8091  1.1511
   99RES   H18027816   1.563   4.719   0.025  1.2879  0.0395  2.9196
   99RES   H18127817   1.404   4.551   7.575 -2.6796 -0.5391 -0.3337
   99RES   H18227818   1.437   4.700   7.650  0.5570 -0.2163  2.3787
   99RES   H18327819   1.314   4.616   7.723 -0.8419  1.3554 -1.5255
   99RES   O18427820   1.606   4.493   0.260 -0.3021  0.8396 -0.0207
   99RES   C18527821   1.557   4.363   0.233 -0.1554  0.4415  0.9145
   99RES   C18627822   1.545   4.294   0.365  0.4164  0.0243  0.8476
   99RES   C18727823   1.528   4.139   0.341 -0.0021  0.6378  0.6230
   99RES   O18827824   1.588   4.065   0.449 -0.6751 -0.4428  0.3977
   99RES   C18927825   1.587   3.922   0.440  0.0582  0.3578  0.4958
   99RES   H19027826   1.630   4.312   0.170 -2.0711  0.0396 -1.0493
   99RES   H19127827   1.462   4.362   0.179  0.0117  0.3418  0.6275
   99RES   H19227828   1.634   4.329   0.417  0.6799 -1.1146  1.1821
   99RES   H19327829   1.570   4.111   0.244 -2.7019 -1.9507  0.1142
   99RES   H19427830   1.420   4.122   0.335 -0.0932  1.3139  0.2479
   99RES   H19527831   1.485   3.884   0.435  0.4165 -0.6310  0.6267
   99RES   H19627832   1.640   3.887   0.353 -0.5791 -0.5223  0.4525
   99RES   H19727833   1.644   3.890   0.527  0.4046 -0.2523  0.0390
   99RES   O19827834   1.443   4.354   0.442  0.5200  0.4478  0.1961
   99RES   C19927835   1.467   4.342   0.584 -0.0856  0.2171 -0.1908
   99RES   C20027836   1.332   4.352   0.661  0.6543  0.5539 -0.4241
   99RES   C20127837   1.351   4.378   0.816  0.3640  0.5443  0.0598
   99RES   O20227838   1.244   4.455   0.874 -0.6642  0.1333 -0.0863
   99RES   C20327839   1.288   4.526   0.990  0.3531 -0.4831  0.5076
   99RES   H20427840   1.516   4.433   0.619  1.7936 -0.4005 -1.1014
   99RES   H20527841   1.521   4.252   0.612 -0.5955  0.5012  1.7372
   99RES   H20627842   1.279   4.441   0.627 -0.1917 -0.0605 -0.7346
   99RES   H20727843   1.349   4.282   0.866 -1.2391  0.7755  0.4677
   99RES   H20827844   1.453   4.414   0.834  0.8738 -0.0517 -1.5770
   99RES   H20927845   1.318   4.454   1.066  2.1866  2.7032  2.9700
   99RES   H21027846   1.206   4.575   1.044 -0.1648 -0.1829 -0.5408
   99RES   H21127847   1.368   4.596   0.967 -1.4064  0.8616 -1.7537
   99RES   O21227848   1.255   4.234   0.637 -0.5163 -0.3812 -0.3437
   99RES   C21327849   1.112   4.245   0.645 -0.8090 -0.5714 -0.1050
   99RES   C21427850   1.060   4.101   0.645  0.1879 -0.0904 -0.0619
   99RES   C21527851   0.914   4.080   0.611 -0.0212 -0.5767  0.0728
   99RES   O21627852   0.890   3.955   0.559  0.1834  0.1828 -0.9053
   99RES   C21727853   0.874   3.863   0.656  0.6951 -0.4944  0.2501
   99RES   H21827854   1.080   4.293   0.552 -2.8166 -1.9282 -0.1569
   99RES   H21927855   1.080   4.303   0.731  1.9850  0.9141 -0.0149
   99RES   H22027856   1.116   4.045   0.569 -0.0719  0.6642 -0.8182
   99RES   H22127857   0.848   4.106   0.694  1.3218  1.0469  0.6513
   99RES   H22227858   0.890   4.161   0.541  0.3256  1.5330  2.3128
   99RES   H22327859   0.806   3.787   0.617 -0.6863  0.0120  1.6093
   99RES   H22427860   0.844   3.904   0.753 -0.7787 -0.9185 -0.0060
   99RES   H22527861   0.966   3.806   0.667  1.0415 -0.4581 -2.2095
   99RES   O22627862   1.084   4.031   0.771  0.0775  0.8240 -0.1705
   99RES   C22727863   1.217   3.975   0.782 -0.7598  0.0974  0.2252
   99RES   C22827864   1.239   3.913   0.915 -0.7479  0.2931 -1.1291
   99RES   C22927865   1.145   3.799   0.946 -0.1280  0.0905 -0.2275
   99RES   O23027866   1.129   3.798   1.088 -1.1977 -0.1972 -0.1795
   99RES   C23127867   1.086   3.674   1.140 -0.3713 -0.1637 -0.8777
   99RES   H23227868   1.288   4.057   0.772 -0.8361  0.4084  2.0449
   99RES   H23327869   1.215   3.902   0.701  2.3839 -0.3281  0.4716
   99RES   H23427870   1.245   3.993   0.989  1.4311 -1.2903  0.4612
   99RES   H23527871   1.176   3.704   0.903  0.8186 -0.1964  1.0505
   99RES   H23627872   1.053   3.827   0.895 -0.6891 -1.2858  0.0176
   99RES   H23727873   1.082   3.679   1.249 -1.0363 -2.8472 -0.7278
   99RES   H23827874   1.165   3.603   1.117 -0.9586 -1.1579  0.0939
   99RES   H23927875   0.996   3.632   1.096 -3.2268  2.2874  2.3588
   99RES   O24027876   1.377   3.864   0.901  0.1936  0.3740  0.4674
   99RES   C24127877   1.451   3.846   1.023 -0.2310 -0.6435  0.1850
   99RES   C24227878   1.497   3.975   1.085  0.4615 -0.0439  0.5638
   99RES   C24327879   1.495   3.958   1.242 -0.4510 -0.5549  0.1466
   99RES   O24427880   1.382   4.028   1.295 -0.1152  0.5920  0.2067
   99RES   C24527881   1.369   3.992   1.424 -0.1966 -0.1043 -0.2310
   99RES   H24627882   1.542   3.790   0.999  0.3251  1.0825 -1.8749
   99RES   H24727883   1.392   3.787   1.093 -0.1401 -1.6349 -0.5658
   99RES   H24827884   1.434   4.062   1.062  0.5334 -0.2371 -0.3863
   99RES   H24927885   1.499   3.853   1.270 -0.3575 -0.1717  1.5936
   99RES   H25027886   1.581   4.010   1.284  1.2260 -1.0898 -2.5161
   99RES   H25127887   1.280   4.034   1.470 -1.3386 -2.5564 -0.1655
   99RES   H25227888   1.450   4.034   1.484 -1.2748  1.8629 -0.1177
   99RES   H25327889   1.378   3.885   1.440 -1.7022 -0.7222 -3.2095
   99RES   O25427890   1.623   4.013   1.036  0.0242  0.1450  0.0987
   99RES   C25527891   1.635   4.074   0.908 -0.5980  0.0327 -0.4234
   99RES   C25627892   1.785   4.087   0.867 -0.0715  0.3425 -0.4387
   99RES   C25727893   1.807   4.126   0.714  0.1068  0.2637 -0.0690
   99RES   O25827894   1.941   4.080   0.685  0.6569 -0.1033 -0.3370
   99RES   C25927895   1.971   4.085   0.551  0.8827  0.0876  0.2193
   99RES   H26027896   1.583   4.016   0.832  0.4354  2.3500 -2.9750
   99RES   H26127897   1.579   4.168   0.907  1.2607  1.1487 -0.9763
   99RES   H26227898   1.829   3.989   0.883 -2.1192 -0.9558 -2.4909
   99RES   H26327899   1.737   4.083   0.643  2.2421  1.6065 -3.0815
   99RES   H26427900   1.796   4.234   0.702 -0.5384  0.4356  1.8740
   99RES   H26527901   1.979   4.190   0.521  2.6292  0.0725  0.6055
   99RES   H26627902   1.885   4.042   0.499 -0.7188  1.7977  1.3691
   99RES   H26727903   2.064   4.031   0.539  1.3672  1.1530 -0.9521
   99RES   O26827904   1.851   4.166   0.965 -0.6900 -0.2128 -0.3340
   99RES   C26927905   1.995   4.173   0.962 -0.1892  0.0801 -0.1744
   99RES   C27027906   2.022   4.201   1.108 -0.1097  0.9521  0.4689
   99RES   C27127907   2.165   4.242   1.142  0.2002 -0.3522 -0.7758
   99RES   O27227908   2.173   4.285   1.275 -0.8444  0.2964  0.2093
   99RES   C27327909   2.184   4.421   1.295 -0.0255  0.3367 -0.1710
   99RES   H27427910   2.032   4.253   0.899 -0.5496 -0.3044 -0.8785
   99RES   H27527911   2.032   4.074   0.934  0.4554  0.8614 -2.1628
   99RES   H27627912   1.956   4.284   1.136 -2.4915  0.0196 -2.0988
   99RES   H27727913   2.196   4.313   1.065 -0.3495  1.5510  0.7149
   99RES   H27827914   2.237   4.165   1.116  0.8318  0.0051 -0.0854
   99RES   H27927915   2.261   4.477   1.241 -0.1712  0.0326 -0.6949
   99RES   H28027916   2.199   4.434   1.402  1.3800 -0.5481 -0.2528
   99RES   H28127917   2.088   4.470   1.276 -0.2270 -1.2747 -3.5781
   99RES   H28227918   1.994   4.115   1.169 -1.6246  1.5247  0.6132
  100RES     O127919   4.105   1.800   6.423  0.6709 -0.6007  0.1626
  100RES     C227920   4.231   1.829   6.482  0.2718  0.0452  0.3879
  100RES     C327921   4.287   1.957   6.422  0.6435  0.2644 -0.6158
  100RES     C427922   4.424   1.995   6.489  0.2318 -0.2709  0.3965
  100RES     O527923   4.450   2.133   6.510  0.5184 -0.0115 -0.1331
  100RES     C627924   4.365   2.175   6.621 -0.2393 -0.1855  0.6451
  100RES     H727925   4.206   1.834   6.588  1.7476 -1.2191  0.8061
  100RES     H827926   4.304   1.748   6.474  1.7507  1.3935  0.0521
  100RES     H927927   4.216   2.039   6.435  2.4822  1.6800  0.8403
  100RES    H1027928   4.512   1.948   6.446 -0.0885 -1.8208  1.4063
  100RES    H1127929   4.439   1.947   6.586 -1.4574 -0.1890  0.7100
  100RES    H1227930   4.375   2.283   6.626 -0.2894 -0.1446 -0.1388
  100RES    H1327931   4.256   2.167   6.616 -0.3348  1.6309 -0.7213
  100RES    H1427932   4.399   2.150   6.722 -0.4392  0.7903  0.9558
  100RES    H1527933   4.125   1.765   6.338  1.0027 -0.0946  0.0359
  100RES    O1627934   4.309   1.929   6.282 -0.1577 -0.1313 -0.0136
  100RES    C1727935   4.320   2.036   6.190  0.0561  0.1352  0.2239
  100RES    C1827936   4.189   2.115   6.167  0.1499 -0.3681  0.3126
  100RES    C1927937   4.217   2.235   6.074  0.1575  0.3019 -0.4107
  100RES    O2027938   4.095   2.305   6.056 -0.2689 -0.1460 -0.3783
  100RES    C2127939   4.095   2.405   5.955 -0.0802  0.0764 -0.1851
  100RES    H2227940   4.348   2.004   6.089  0.0708  2.5104 -0.5557
  100RES    H2327941   4.396   2.108   6.218  0.9884 -1.6881  2.5007
  100RES    H2427942   4.150   2.152   6.261  0.8949 -0.5683  0.7073
  100RES    H2527943   4.302   2.293   6.110  2.1177 -1.9710 -1.2537
  100RES    H2627944   4.255   2.188   5.983  0.9480 -0.4455  0.3067
  100RES    H2727945   4.175   2.478   5.970  0.2399 -0.1053 -0.9531
  100RES    H2827946   3.998   2.452   5.943 -0.2033  0.1177  0.9786
  100RES    H2927947   4.123   2.367   5.856 -0.4448  0.6400 -0.5074
  100RES    O3027948   4.095   2.032   6.097  0.1700  0.2101  0.1733
  100RES    C3127949   3.986   1.984   6.170  0.3648  0.1881  0.3271
  100RES    C3227950   3.948   1.838   6.113  0.5060 -0.1226  0.2406
  100RES    C3327951   4.065   1.749   6.100 -0.3572  0.3269  0.3276
  100RES    O3427952   4.018   1.612   6.117 -1.1357  0.5463  0.4072
  100RES    C3527953   3.970   1.546   5.995  0.4459 -0.4926 -0.1089
  100RES    H3627954   3.996   1.966   6.277  0.6964 -0.6243  0.1685
  100RES    H3727955   3.903   2.055   6.168  0.3658  0.1619 -2.1010
  100RES    H3827956   3.879   1.798   6.187 -0.7776  1.3375 -0.1546
  100RES    H3927957   4.137   1.747   6.182  0.7147  1.8016 -0.5480
  100RES    H4027958   4.123   1.759   6.008 -2.0598 -2.1791 -1.0722
  100RES    H4127959   3.883   1.601   5.958  1.4563  1.4776  0.3765
  100RES    H4227960   3.932   1.447   6.020  0.8353 -1.5442 -3.4727
  100RES    H4327961   4.053   1.551   5.925  2.8027  1.3611  2.6582
  100RES    O4427962   3.876   1.852   5.992  0.0999 -0.4346  0.3127
  100RES    C4527963   3.735   1.851   6.017  0.0957 -0.6596 -0.5384
  100RES    C4627964   3.647   1.895   5.894 -0.3594  0.1970  0.2762
  100RES    C4727965   3.507   1.848   5.901  0.5935  0.0690 -0.1351
  100RES    O4827966   3.448   1.848   5.772  0.3565 -0.0999  0.1898
  100RES    C4927967   3.388   1.974   5.746  0.3186  0.2801 -0.3014
  100RES    H5027968   3.695   1.917   6.094  1.4574  1.0274 -1.2342
  100RES    H5127969   3.707   1.748   6.037 -0.3892 -0.2437  0.9984
  100RES    H5227970   3.703   1.857   5.808  0.8052  1.4574  0.4589
  100RES    H5327971   3.514   1.743   5.931  0.5967 -0.4213 -1.7958
  100RES    H5427972   3.451   1.899   5.978  0.4437  0.9824 -0.8446
  100RES    H5527973   3.294   1.973   5.801  0.3012  0.3443 -0.3285
  100RES    H5627974   3.375   1.993   5.639  1.0063  1.6169 -0.1556
  100RES    H5727975   3.444   2.059   5.785  0.4293 -0.5662  1.4119
  100RES    O5827976   3.655   2.038   5.898 -0.0736 -0.3994 -0.1437
  100RES    C5927977   3.768   2.099   5.837  0.5797  0.0131 -0.4989
  100RES    C6027978   3.737   2.234   5.758 -0.0455 -1.1107  0.4537
  100RES    C6127979   3.864   2.271   5.695  0.0025 -0.2791 -0.2001
  100RES    O6227980   3.879   2.207   5.565  0.0323 -0.0437  0.8448
  100RES    C6327981   3.986   2.267   5.499  0.3313 -0.2754 -0.7137
  100RES    H6427982   3.803   2.037   5.755 -2.0887  0.2131 -1.8675
  100RES    H6527983   3.851   2.107   5.907  1.7951 -3.5696 -1.4533
  100RES    H6627984   3.669   2.228   5.674 -0.6174 -0.8369  0.8917
  100RES    H6727985   3.861   2.379   5.682  0.3069 -0.1078  1.0335
  100RES    H6827986   3.954   2.265   5.757 -1.0065 -0.4215  1.3010
  100RES    H6927987   4.080   2.263   5.554  0.7968  0.1487 -1.4699
  100RES    H7027988   3.969   2.371   5.471  0.1005 -0.2919 -0.6335
  100RES    H7127989   4.005   2.209   5.408 -0.1923 -2.7044  0.6717
  100RES    O7227990   3.695   2.338   5.850 -0.5719 -0.0118 -0.0723
  100RES    C7327991   3.555   2.346   5.875 -0.2655 -1.1876  0.0328
  100RES    C7427992   3.511   2.475   5.955  0.1242 -0.1519 -0.6724
  100RES    C7527993   3.534   2.615   5.893 -0.1742  0.1126  0.2103
  100RES    O7627994   3.424   2.700   5.889  0.0388  0.2278 -1.5243
  100RES    C7727995   3.366   2.723   6.017  0.3295  0.2435  0.7589
  100RES    H7827996   3.494   2.323   5.787  0.3765 -3.1670  0.0620
  100RES    H7927997   3.527   2.262   5.939  2.0686 -2.5640 -0.7024
  100RES    H8027998   3.403   2.457   5.951 -0.4293  1.8558  2.8719
  100RES    H8127999   3.558   2.596   5.788 -1.0790  0.4467 -0.0638
  100RES    H8228000   3.623   2.666   5.929  2.3343 -3.1448 -1.0665
  100RES    H8328001   3.269   2.773   6.012  0.1002 -0.3923 -1.8154
  100RES    H8428002   3.435   2.799   6.056  1.6796 -0.0631 -0.9615
  100RES    H8528003   3.337   2.641   6.083 -2.5385 -1.3830 -2.3542
  100RES    O8628004   3.546   2.473   6.097 -0.5261 -0.3339  0.2993
  100RES    C8728005   3.690   2.449   6.127 -0.3164 -0.2237  0.5240
  100RES    C8828006   3.721   2.442   6.277 -0.2820 -0.0226  0.2642
  100RES    C8928007   3.868   2.396   6.301 -0.1310  0.0380 -0.8518
  100RES    O9028008   3.902   2.395   6.438 -0.2801 -0.3228 -0.8944
  100RES    C9128009   4.042   2.384   6.468 -0.3112 -0.0130 -0.1871
  100RES    H9228010   3.727   2.356   6.084  2.8760  0.6887  1.1618
  100RES    H9328011   3.746   2.526   6.074 -1.7779  0.7921  0.4243
  100RES    H9428012   3.649   2.379   6.328 -0.6131 -0.0925 -0.2869
  100RES    H9528013   3.868   2.296   6.259 -2.1527 -0.6409  0.7332
  100RES    H9628014   3.932   2.465   6.246 -0.1660 -1.9052 -3.4003
  100RES    H9728015   4.106   2.423   6.388 -1.2534  1.9363 -0.0143
  100RES    H9828016   4.072   2.443   6.555  0.3093 -0.1081 -0.3318
  100RES    H9928017   4.082   2.284   6.484 -0.2017 -0.1546 -1.3105
  100RES   O10028018   3.723   2.574   6.339  0.4459  0.0365  0.3765
  100RES   C10128019   3.589   2.603   6.387 -0.1205 -0.2735 -0.2183
  100RES   C10228020   3.580   2.748   6.443  0.1183 -0.4046 -0.3361
  100RES   C10328021   3.440   2.781   6.505 -0.7338 -0.0513 -0.5996
  100RES   O10428022   3.433   2.896   6.590 -0.3760  0.0109 -0.0213
  100RES   C10528023   3.307   2.947   6.617  0.2839 -0.2151 -0.2844
  100RES   H10628024   3.566   2.534   6.469  3.3905 -1.4292 -0.1088
  100RES   H10728025   3.512   2.593   6.311 -1.6517  0.2292  1.2517
  100RES   H10828026   3.642   2.760   6.532 -0.7955  0.3128  0.2211
  100RES   H10928027   3.405   2.697   6.564  1.6626 -1.0637 -0.5354
  100RES   H11028028   3.372   2.800   6.422 -0.6599 -4.0293 -1.6445
  100RES   H11128029   3.310   3.038   6.677 -1.4485  1.0283 -2.0173
  100RES   H11228030   3.254   2.877   6.683  1.4135 -0.7353  0.0857
  100RES   H11328031   3.248   2.956   6.526 -0.0387  1.4830  0.0829
  100RES   O11428032   3.603   2.849   6.350 -0.3989 -0.5488  0.4862
  100RES   C11528033   3.741   2.882   6.334  0.1042 -0.1575 -0.3455
  100RES   C11628034   3.747   3.011   6.247 -0.2762  0.1522 -0.5246
  100RES   C11728035   3.663   2.989   6.123 -0.7273  0.0140 -0.1395
  100RES   O11828036   3.711   3.094   6.028 -0.1360  0.0330  0.1229
  100RES   C11928037   3.604   3.142   5.950 -0.7329 -0.0035 -0.2207
  100RES   H12028038   3.797   2.896   6.426  0.3987 -0.5129 -0.4670
  100RES   H12128039   3.779   2.792   6.285  1.2899  1.6571 -2.8804
  100RES   H12228040   3.848   3.049   6.232 -0.5486  1.1842  0.1497
  100RES   H12328041   3.683   2.896   6.070 -0.5834 -0.6343  1.0205
  100RES   H12428042   3.555   2.987   6.139 -0.3882  0.9453  2.5279
  100RES   H12528043   3.529   3.196   6.007 -0.8233  0.9919 -1.2689
  100RES   H12628044   3.570   3.052   5.897 -0.2928 -1.2409  1.5652
  100RES   H12728045   3.638   3.202   5.866 -0.7849 -0.9389 -0.9229
  100RES   O12828046   3.678   3.100   6.335  0.4659  0.1448  0.5159
  100RES   C12928047   3.688   3.244   6.318 -0.0749 -0.5828  0.7143
  100RES   C13028048   3.621   3.324   6.432  0.8058  0.4815 -0.3615
  100RES   C13128049   3.654   3.475   6.420  0.0862 -0.9252  0.1511
  100RES   O13228050   3.592   3.545   6.527 -0.2304 -0.1695 -0.6474
  100RES   C13328051   3.637   3.679   6.541 -0.2935 -0.2097 -0.2876
  100RES   H13428052   3.796   3.261   6.313 -0.1806 -0.0350  0.2536
  100RES   H13528053   3.662   3.288   6.222  0.3227 -0.7594  0.5218
  100RES   H13628054   3.518   3.290   6.423  0.8759 -0.4388  1.9737
  100RES   H13728055   3.614   3.509   6.324 -0.6062 -1.7933  0.1275
  100RES   H13828056   3.763   3.478   6.424  0.0878 -0.7709 -0.0476
  100RES   H13928057   3.745   3.688   6.552 -0.3979 -0.6424  1.1569
  100RES   H14028058   3.617   3.707   6.437  0.4032  2.0165  0.1528
  100RES   H14128059   3.576   3.735   6.611  1.3977 -0.0841  1.1193
  100RES   O14228060   3.680   3.285   6.558  0.0625  0.5083  0.0190
  100RES   C14328061   3.638   3.161   6.623  0.0256  0.7896  0.1961
  100RES   C14428062   3.678   3.163   6.765  0.0346  0.4116  0.1629
  100RES   C14528063   3.643   3.030   6.832  0.5352  0.4476 -0.5863
  100RES   O14628064   3.705   3.029   6.964 -0.3503  0.8024 -0.2129
  100RES   C14728065   3.703   2.907   7.033  0.0705 -0.0808 -0.3412
  100RES   H14828066   3.530   3.144   6.619  0.3959 -1.8989  0.7532
  100RES   H14928067   3.688   3.079   6.572  0.5321  0.2871  1.4732
  100RES   H15028068   3.786   3.175   6.773  0.2935 -3.2353  4.0290
  100RES   H15128069   3.672   2.942   6.775 -1.5976 -1.5885  1.3684
  100RES   H15228070   3.536   3.020   6.850  0.1750  4.0794 -0.3363
  100RES   H15328071   3.780   2.838   6.997  3.5195  3.7776 -0.6142
  100RES   H15428072   3.603   2.863   7.028  0.9413 -2.1198 -0.5482
  100RES   H15528073   3.744   2.925   7.132  0.3140 -0.0258 -0.4526
  100RES   O15628074   3.606   3.260   6.846  0.2433  0.1033  0.8876
  100RES   C15728075   3.656   3.395   6.848 -0.1439 -0.5193  0.3024
  100RES   C15828076   3.595   3.473   6.964  0.2002  0.2198  0.5613
  100RES   C15928077   3.585   3.623   6.932 -0.3490 -0.2932 -0.3304
  100RES   O16028078   3.481   3.677   7.018  0.0447  0.2581 -0.2647
  100RES   C16128079   3.362   3.690   6.947  0.0857  0.1966 -0.7599
  100RES   H16228080   3.763   3.387   6.865 -0.5512 -3.7042  1.6890
  100RES   H16328081   3.643   3.439   6.749 -0.9108 -0.6343  0.3505
  100RES   H16428082   3.491   3.439   6.970  0.6606 -1.4860 -0.7489
  100RES   H16528083   3.676   3.673   6.967  0.9299 -2.1444 -0.9728
  100RES   H16628084   3.555   3.649   6.830 -1.0249  0.9598  0.1662
  100RES   H16728085   3.380   3.763   6.869  1.3173 -0.2387 -0.8798
  100RES   H16828086   3.286   3.727   7.017  1.6572  1.0999  0.4867
  100RES   H16928087   3.306   3.610   6.898 -0.9808 -1.0031  2.2564
  100RES   O17028088   3.663   3.460   7.089 -0.2678  0.2887  0.3288
  100RES   C17128089   3.646   3.330   7.141 -0.4739  0.3413  0.4422
  100RES   C17228090   3.672   3.325   7.287 -0.2395 -0.0308  0.2695
  100RES   C17328091   3.692   3.179   7.329 -0.4735 -0.0138 -0.3458
  100RES   O17428092   3.744   3.170   7.462 -0.6426 -0.3753 -0.1865
  100RES   C17528093   3.709   3.048   7.527  0.2318 -0.2308 -0.8035
  100RES   H17628094   3.704   3.253   7.090 -0.4834  0.8636 -0.3617
  100RES   H17728095   3.542   3.302   7.128 -0.2331 -0.2881 -0.1614
  100RES   H17828096   3.755   3.389   7.316 -1.1097  0.9586  0.6353
  100RES   H17928097   3.598   3.124   7.320 -0.1113 -0.6644 -0.2379
  100RES   H18028098   3.751   3.123   7.256  1.4691  1.3023  0.1812
  100RES   H18128099   3.756   3.033   7.624  3.0746  1.6993 -1.8366
  100RES   H18228100   3.738   2.963   7.465  2.5170 -0.4342  0.5053
  100RES   H18328101   3.601   3.049   7.540  0.2380 -0.0497 -0.7735
  100RES   O18428102   3.559   3.364   7.364 -0.0427  0.1791 -0.4364
  100RES   C18528103   3.530   3.505   7.366  0.0386 -0.1069 -0.0319
  100RES   C18628104   3.405   3.547   7.452 -0.2135  0.5884 -0.1912
  100RES   C18728105   3.362   3.694   7.425 -0.0601 -0.3706 -0.1014
  100RES   O18828106   3.226   3.716   7.450  0.1375  0.3145 -0.1080
  100RES   C18928107   3.179   3.847   7.419  0.1001 -0.0032 -0.6469
  100RES   H19028108   3.505   3.536   7.264 -0.1728 -0.5719 -0.1258
  100RES   H19128109   3.606   3.577   7.396  1.5318 -1.9006  0.5931
  100RES   H19228110   3.322   3.482   7.423 -0.9152  0.9887  0.8990
  100RES   H19328111   3.377   3.727   7.322 -1.5014 -0.8141 -0.4623
  100RES   H19428112   3.436   3.753   7.479  0.3074 -0.8477 -0.0745
  100RES   H19528113   3.182   3.867   7.312  0.2627  2.3529 -0.2415
  100RES   H19628114   3.081   3.866   7.462  0.4313  0.2822 -0.0009
  100RES   H19728115   3.255   3.905   7.473 -1.5908  0.1130  1.6915
  100RES   O19828116   3.446   3.533   7.589 -0.5553  0.2896  0.5064
  100RES   C19928117   3.344   3.514   7.685  0.2999  0.4425  0.0532
  100RES   C20028118   3.295   3.369   7.683  0.9296  0.1703 -0.2369
  100RES   C20128119   3.140   3.356   7.662  0.8664  0.8459  0.2125
  100RES   O20228120   3.070   3.410   7.777  0.0888  0.5731 -0.3032
  100RES   C20328121   2.932   3.386   7.767 -0.0671 -0.1824  1.2454
  100RES   H20428122   3.255   3.575   7.670 -0.7983 -1.3725 -0.9571
  100RES   H20528123   3.382   3.545   7.783 -1.0122  2.3622 -0.0218
  100RES   H20628124   3.337   3.323   7.594 -0.5542  0.5708 -1.1606
  100RES   H20728125   3.113   3.429   7.586  0.1206  1.0377  0.6549
  100RES   H20828126   3.102   3.261   7.622 -1.2306  1.3194  1.0148
  100RES   H20928127   2.870   3.422   0.032 -0.7909  0.0191  0.6146
  100RES   H21028128   2.903   3.281   7.770  1.0843 -0.5181  0.8250
  100RES   H21128129   2.891   3.422   7.673  3.6342 -0.0617 -0.4343
  100RES   O21228130   3.333   3.300   7.806  1.1691  0.1868  0.8186
  100RES   C21328131   3.474   3.266   7.808 -0.0101 -0.4008  0.0012
  100RES   C21428132   3.497   3.142   0.077  0.0440 -0.3005 -0.0867
  100RES   C21528133   3.650   3.130   0.100 -0.6382  0.4985  0.4147
  100RES   O21628134   3.674   3.061   0.210 -0.4034  0.7618  0.2632
  100RES   C21728135   3.812   3.035   0.239  0.2527  0.1161  0.1728
  100RES   H21828136   3.524   3.356   0.025  0.2109 -0.9265  1.0638
  100RES   H21928137   3.516   3.245   7.710  2.2788  1.6441  0.5053
  100RES   H22028138   3.443   3.175   0.166  1.9841  0.9240  0.6709
  100RES   H22128139   3.706   3.083   0.020  1.2352  0.8313  1.5022
  100RES   H22228140   3.698   3.227   0.110  0.5948 -0.0759  0.1789
  100RES   H22328141   3.892   3.109   0.233 -0.0147  0.3014 -1.1490
  100RES   H22428142   3.848   2.955   0.174 -2.5459 -1.3664  0.3916
  100RES   H22528143   3.814   2.983   0.335  2.2430  1.7893  1.0682
  100RES   O22628144   3.440   3.029   0.006 -0.2736  0.1167 -0.5025
  100RES   C22728145   3.346   2.950   0.078  0.1605 -0.4222 -0.3410
  100RES   C22828146   3.323   2.821   7.815  0.0058 -0.2462  0.2890
  100RES   C22928147   3.239   2.716   0.067  0.1079  0.1755  0.0499
  100RES   O23028148   3.303   2.661   0.182 -0.4929 -0.3235  0.0197
  100RES   C23128149   3.226   2.554   0.240 -0.8771 -1.0565 -0.4763
  100RES   H23228150   3.249   2.999   0.086 -1.0811 -3.1615  2.5777
  100RES   H23328151   3.385   2.938   0.179  1.0097  0.7256 -0.5229
  100RES   H23428152   3.422   2.788   7.785  0.3484  1.6569 -0.7388
  100RES   H23528153   3.219   2.638   7.810  2.5062  1.5435 -2.0888
  100RES   H23628154   3.144   2.757   0.102 -0.1535  0.3736 -0.8704
  100RES   H23728155   3.276   2.496   0.318 -0.4494 -1.8801 -1.3570
  100RES   H23828156   3.200   2.480   0.165 -3.1192  2.1184 -2.9683
  100RES   H23928157   3.136   2.596   0.285  0.1875  0.9814 -0.1607
  100RES   O24028158   3.262   2.848   7.682 -0.3530  0.0192  0.1003
  100RES   C24128159   3.326   2.935   7.585 -0.4270  0.5427  0.0447
  100RES   C24228160   3.258   2.916   7.453  1.1053 -0.9221  0.2079
  100RES   C24328161   3.335   2.984   7.337  0.3455  0.1547 -0.0050
  100RES   O24428162   3.252   3.001   7.223  0.7333 -0.6737 -0.4488
  100RES   C24528163   3.327   3.020   7.101  0.9299  0.2823  0.6891
  100RES   H24628164   3.430   2.902   7.579 -0.0367  1.6113  0.7158
  100RES   H24728165   3.327   3.041   7.611  1.6770 -0.0652  2.6214
  100RES   H24828166   3.165   2.972   7.462  2.0926  0.9808 -1.2677
  100RES   H24928167   3.367   3.081   7.374 -0.8807  0.5495  0.0305
  100RES   H25028168   3.418   2.917   7.313 -0.6191 -1.1592  0.2542
  100RES   H25128169   3.409   3.090   7.118  1.2327 -0.3618  2.0154
  100RES   H25228170   3.264   3.049   7.017  1.2048  1.6415  0.9476
  100RES   H25328171   3.374   2.925   7.076  0.5601 -0.1387  1.5644
  100RES   O25428172   3.244   2.781   7.430  0.0810 -0.4845  0.2875
  100RES   C25528173   3.121   2.746   7.372 -0.1254  0.0115 -0.0117
  100RES   C25628174   3.106   2.599   7.354  0.7640  0.1293  0.3519
  100RES   C25728175   2.956   2.551   7.337 -0.1576 -0.6722  0.3097
  100RES   O25828176   2.867   2.580   7.447 -0.1463  0.2692  0.0430
  100RES   C25928177   2.731   2.548   7.421 -0.0009  0.7259  0.6968
  100RES   H26028178   3.043   2.768   7.445  1.2748 -0.9800  1.8201
  100RES   H26128179   3.097   2.794   7.278  0.4490  0.5752  0.1227
  100RES   H26228180   3.134   2.540   7.442  0.4309  0.4429  0.6695
  100RES   H26328181   2.909   2.598   7.250 -0.3554 -1.4143  0.0123
  100RES   H26428182   2.959   2.442   7.332  0.1642 -0.6420 -0.2209
  100RES   H26528183   2.670   2.562   7.511 -0.5742 -0.0244  0.4295
  100RES   H26628184   2.725   2.442   7.398  0.6345  0.5276  1.4074
  100RES   H26728185   2.682   2.595   7.337 -0.4616  0.3265  0.7414
  100RES   O26828186   3.178   2.552   7.238 -0.2018  0.2042  0.0810
  100RES   C26928187   3.317   2.524   7.268  0.3534  0.2298  0.5251
  100RES   C27028188   3.337   2.380   7.310 -0.5962 -0.6016 -0.5067
  100RES   C27128189   3.349   2.288   7.193  0.4718  0.0227  0.1541
  100RES   O27228190   3.417   2.177   7.235 -0.3371  0.4437 -0.3648
  100RES   C27328191   3.395   2.075   7.142 -0.3822 -0.3976 -0.2280
  100RES   H27428192   3.364   2.585   7.346  0.4734  1.3623 -0.4281
  100RES   H27528193   3.375   2.549   7.179 -1.1376  1.5392 -0.1016
  100RES   H27628194   3.432   2.372   7.363 -0.0484 -0.6262 -1.4825
  100RES   H27728195   3.403   2.338   7.113  1.2760 -2.8144 -1.1397
  100RES   H27828196   3.249   2.274   7.151 -0.5620  0.5416  2.3322
  100RES   H27928197   3.440   2.109   7.049  3.8060 -1.3131  1.3778
  100RES   H28028198   3.293   2.037   7.139 -0.1395 -1.1744  1.3843
  100RES   H28128199   3.449   1.983   7.161 -0.3295 -0.3781 -0.2821
  100RES   H28228200   3.264   2.347   7.385  1.0840 -1.6011  0.7217
  101RES     O128201   6.886   2.009   7.486  0.1190 -0.2966 -0.2498
  101RES     C228202   6.971   1.977   7.377  0.1924  0.5393 -0.4849
  101RES     C328203   6.968   1.823   7.363 -0.1061  0.6761  0.6596
  101RES     C428204   7.004   1.783   7.216 -0.2676  0.0763  0.3680
  101RES     O528205   7.020   1.646   7.194  0.4690  0.3967  0.1402
  101RES     C628206   7.027   1.621   7.054 -0.2405  0.2836 -0.3824
  101RES     H728207   6.934   2.031   7.290 -0.8421  0.9711  0.2132
  101RES     H828208   7.067   2.020   7.407  1.2188  0.5013 -3.5545
  101RES     H928209   6.875   1.776   7.394 -0.4356 -0.1441 -1.5074
  101RES    H1028210   7.105   1.820   7.196  0.0361 -1.7184 -1.6343
  101RES    H1128211   6.932   1.827   7.147 -0.5394 -0.7067  0.1395
  101RES    H1228212   7.017   1.513   7.043 -1.3398  0.2600  0.7621
  101RES    H1328213   6.945   1.667   6.999  0.5658 -0.3244 -2.1209
  101RES    H1428214   7.120   1.658   7.012 -0.3087  1.3779  0.4219
  101RES    H1528215   6.908   1.957   7.561  0.1295  1.4929  1.0106
  101RES    O1628216   7.072   1.785   7.451 -0.0160 -0.4440  0.2799
  101RES    C1728217   7.092   1.646   7.470  0.1084 -1.0415 -0.4712
  101RES    C1828218   7.161   1.635   7.597  0.2386 -0.7286  0.4221
  101RES    C1928219   7.196   1.486   7.627 -0.3381  0.1024 -0.4208
  101RES    O2028220   7.255   1.461   7.752  0.5549 -0.2005  0.1006
  101RES    C2128221   7.157   1.465   0.034  0.9350  0.2061  0.2131
  101RES    H2228222   7.148   1.600   7.389 -0.5001 -1.3043 -0.7480
  101RES    H2328223   6.989   1.611   7.474 -0.3395  0.3874  0.9485
  101RES    H2428224   7.084   1.652   7.673  0.1397 -2.3234  0.6993
  101RES    H2528225   7.121   1.411   7.602  0.0207 -0.1416 -0.7745
  101RES    H2628226   7.270   1.463   7.551 -0.4096 -0.9741 -0.1766
  101RES    H2728227   7.119   1.566   0.049  2.6881  0.8056  0.8176
  101RES    H2828228   7.190   1.421   0.129 -1.3511  1.3306  1.5703
  101RES    H2928229   7.069   1.406   0.010  1.3588 -0.4946  0.3470
  101RES    O3028230   7.281   1.710   7.607  0.4077  0.8071 -0.1788
  101RES    C3128231   7.271   1.842   7.672 -0.6236 -0.4931  0.3394
  101RES    C3228232   7.370   1.933   7.624 -0.5747 -0.2027  0.3683
  101RES    C3328233   7.519   1.895   7.669 -0.8921 -0.2907 -0.3088
  101RES    O3428234   7.610   1.983   7.596  0.0443  0.3434  0.3128
  101RES    C3528235   7.743   1.943   7.582 -0.2942 -0.3441 -0.7343
  101RES    H3628236   7.168   1.879   7.668 -0.2096  0.8291  1.8041
  101RES    H3728237   7.280   1.829   7.780  1.2594  1.6667  0.4546
  101RES    H3828238   7.361   1.932   7.515 -0.1854 -4.0959  0.2900
  101RES    H3928239   7.530   1.790   7.642 -2.2893 -0.8365  1.1865
  101RES    H4028240   7.522   1.910   7.777  1.2439 -1.6228 -0.1516
  101RES    H4128241   7.795   2.033   7.547  1.7491 -1.7742 -1.4647
  101RES    H4228242   7.754   1.876   7.497 -0.3955  0.2841 -1.2457
  101RES    H4328243   7.780   1.916   7.681 -1.8360 -0.7291 -0.2522
  101RES    O4428244   7.351   2.064   7.681 -0.3669  0.2613  0.4783
  101RES    C4528245   7.382   2.165   7.591  0.2244 -0.0707  0.2814
  101RES    C4628246   7.296   2.288   7.636 -0.6644 -0.3069 -0.1302
  101RES    C4728247   7.318   2.323   7.782 -0.2657 -0.0343  0.4454
  101RES    O4828248   7.226   2.416   0.014  0.4574 -0.1824  0.1160
  101RES    C4928249   7.269   2.553   7.809 -0.1223  0.2662 -0.0035
  101RES    H5028250   7.338   2.148   7.493  2.8542 -1.6959 -0.6700
  101RES    H5128251   7.487   2.188   7.575  1.1677 -0.3706  5.1325
  101RES    H5228252   7.188   2.272   7.634 -0.5124 -1.4512  0.2643
  101RES    H5328253   7.308   2.238   0.033 -1.0502 -0.7259 -0.5148
  101RES    H5428254   7.421   2.356   7.798  0.6000 -1.5976 -1.7064
  101RES    H5528255   7.187   2.613   7.771  0.8370  1.0765 -0.8370
  101RES    H5628256   7.346   2.563   7.732  0.4513 -1.7336  0.2684
  101RES    H5728257   7.306   2.583   0.090  0.9298 -0.2919 -0.2152
  101RES    O5828258   7.331   2.403   7.551  0.6607  0.6812  0.0105
  101RES    C5928259   7.226   2.423   7.458  0.4587  0.0064  0.3099
  101RES    C6028260   7.250   2.560   7.390 -0.6616 -0.4315 -0.3019
  101RES    C6128261   7.125   2.623   7.326 -0.9380  0.1643 -0.3579
  101RES    O6228262   7.068   2.530   7.235  0.4969  0.3747  0.4176
  101RES    C6328263   6.945   2.587   7.183 -0.2921  0.3391 -0.1918
  101RES    H6428264   7.126   2.435   7.498 -0.4375 -0.4572 -1.7273
  101RES    H6528265   7.216   2.350   7.378 -0.0344  1.0760 -0.6292
  101RES    H6628266   7.279   2.629   7.469  1.2594 -1.8753  0.3021
  101RES    H6728267   7.055   2.648   7.406  1.7539  1.0823  1.7800
  101RES    H6828268   7.159   2.716   7.281  0.0064  0.2232  0.4645
  101RES    H6928269   6.894   2.512   7.122  0.6967 -2.3005  2.1474
  101RES    H7028270   6.968   2.678   7.128  0.3537  0.8790  0.9486
  101RES    H7128271   6.879   2.600   7.268  3.1693  1.3043  2.4710
  101RES    O7228272   7.358   2.549   7.303  0.1552 -0.1065 -0.5098
  101RES    C7328273   7.436   2.667   7.279  0.8702 -0.8253 -0.4175
  101RES    C7428274   7.537   2.645   7.162 -0.0927 -0.2226 -0.4170
  101RES    C7528275   7.644   2.753   7.155 -0.4561  0.0938 -0.0484
  101RES    O7628276   7.749   2.705   7.070  0.0714 -0.6026  0.5897
  101RES    C7728277   7.721   2.729   6.927 -0.3196  0.4613 -0.0115
  101RES    H7828278   7.368   2.749   7.255  0.1574 -0.5421  2.3781
  101RES    H7928279   7.485   2.704   7.369 -2.8701  3.1770  0.1806
  101RES    H8028280   7.586   2.548   7.170 -1.0753 -0.6274  0.7893
  101RES    H8128281   7.683   2.783   7.252 -0.0316 -0.8238  0.0661
  101RES    H8228282   7.620   2.849   7.108  1.2515 -0.1277 -1.4411
  101RES    H8328283   7.664   2.822   6.914 -0.9005 -0.0597 -1.2630
  101RES    H8428284   7.670   2.656   6.866  1.4553 -0.8676  0.0659
  101RES    H8528285   7.815   2.748   6.877  0.2329  1.0775  1.2289
  101RES    O8628286   7.473   2.648   7.036 -0.0514 -1.0651 -0.3230
  101RES    C8728287   7.370   2.558   7.000 -0.3878  0.4407  0.0847
  101RES    C8828288   7.334   2.580   6.852 -0.0780 -0.1901 -0.0673
  101RES    C8928289   7.264   2.445   6.807  1.6238 -0.2826 -0.3151
  101RES    O9028290   7.255   2.434   6.664 -0.0826  0.8685 -0.5106
  101RES    C9128291   7.157   2.352   6.616  0.2972  0.2101  0.0706
  101RES    H9228292   7.409   2.459   7.023 -3.2060 -0.7319 -0.0729
  101RES    H9328293   7.282   2.568   7.062 -0.2146  1.1930  0.2112
  101RES    H9428294   7.423   2.596   6.791 -1.2061  0.7675 -1.5084
  101RES    H9528295   7.322   2.356   6.835 -0.9092 -2.2416 -1.0620
  101RES    H9628296   7.172   2.433   6.863  3.2790 -0.8162  2.3506
  101RES    H9728297   7.064   2.367   6.671 -0.4812 -0.6139 -0.9896
  101RES    H9828298   7.135   2.371   6.511  0.1176 -0.7001 -0.0616
  101RES    H9928299   7.180   2.245   6.614 -0.1850  0.1201 -0.5053
  101RES   O10028300   7.253   2.690   6.838 -0.3947 -0.2638 -0.7144
  101RES   C10128301   7.326   2.811   6.815  0.7863 -0.0398 -0.0390
  101RES   C10228302   7.228   2.933   6.787  0.1711 -0.5345  0.3814
  101RES   C10328303   7.311   3.047   6.724 -0.1496  0.4303 -0.6071
  101RES   O10428304   7.231   3.157   6.692 -0.2886  0.0756  0.3017
  101RES   C10528305   7.298   3.250   6.609  0.2092  0.4961  0.6316
  101RES   H10628306   7.385   2.801   6.724  1.6421 -0.0039  0.5052
  101RES   H10728307   7.394   2.824   6.900  2.5790  0.4481 -1.5209
  101RES   H10828308   7.145   2.913   6.719  0.9981  0.5327 -0.9677
  101RES   H10928309   7.355   2.996   6.639 -1.5207  0.1986 -1.1962
  101RES   H11028310   7.400   3.082   6.777 -2.2835  1.3557  2.4866
  101RES   H11128311   7.397   3.260   6.655  0.9609  0.1329 -0.8688
  101RES   H11228312   7.261   3.352   6.599 -1.3827 -0.1719 -0.5050
  101RES   H11328313   7.307   3.210   6.508  0.2327 -0.8981  1.1820
  101RES   O11428314   7.185   2.981   6.915  0.7644  0.3151 -0.4546
  101RES   C11528315   7.069   2.921   6.972 -0.3236 -0.3197  0.1748
  101RES   C11628316   7.031   3.010   7.095 -0.1222 -0.5350  0.0028
  101RES   C11728317   6.887   2.991   7.146 -0.0297  0.1192 -0.3316
  101RES   O11828318   6.809   3.093   7.090 -0.4432  0.0262 -0.1440
  101RES   C11928319   6.677   3.072   7.148  0.3915 -0.2903 -0.1404
  101RES   H12028320   6.992   2.932   6.896 -0.0981 -0.0997 -0.0218
  101RES   H12128321   7.083   2.815   6.988  1.2522 -0.1846 -0.2970
  101RES   H12228322   7.034   3.113   7.061 -3.9580 -0.7003 -1.1661
  101RES   H12328323   6.859   2.891   7.113 -2.7374  0.5331  0.6559
  101RES   H12428324   6.874   2.986   7.254  1.7739  1.5385 -0.0141
  101RES   H12528325   6.636   2.973   7.130  0.4813  0.0003 -2.0668
  101RES   H12628326   6.624   3.126   7.069  0.2180 -0.8324 -0.3925
  101RES   H12728327   6.670   3.114   7.248  0.4122 -2.4702  0.7849
  101RES   O12828328   7.112   2.970   7.205 -0.2457 -0.6275  0.1987
  101RES   C12928329   7.245   3.025   7.210  0.7536  0.2745 -0.3355
  101RES   C13028330   7.277   3.041   7.354 -0.0253 -0.2550  0.6115
  101RES   C13128331   7.413   3.112   7.378  0.1427  0.1440 -0.6033
  101RES   O13228332   7.527   3.034   7.335  0.3789 -0.3244  0.6333
  101RES   C13328333   7.652   3.101   7.358  0.3668  0.2444 -0.4872
  101RES   H13428334   7.318   2.978   7.144 -1.4069 -1.0597 -1.8252
  101RES   H13528335   7.239   3.126   7.168 -0.9919  0.0633 -0.6057
  101RES   H13628336   7.206   3.105   7.407 -0.5522 -0.8651  0.6391
  101RES   H13728337   7.423   3.134   7.484 -2.2953  0.5964 -0.4272
  101RES   H13828338   7.414   3.200   7.314  0.1839  0.8346  0.3471
  101RES   H13928339   7.735   3.030   7.355 -0.9031 -1.2260 -1.7224
  101RES   H14028340   7.684   3.178   7.288 -0.7094 -1.0218 -2.4332
  101RES   H14128341   7.659   3.146   7.457 -1.1638 -0.5479  0.0035
  101RES   O14228342   7.279   2.910   7.421  0.4309  0.0666  0.0206
  101RES   C14328343   7.275   2.900   7.565  0.9005  0.4002  0.8298
  101RES   C14428344   7.144   2.936   7.631 -0.5932  0.1138  0.3413
  101RES   C14528345   7.157   2.977   7.781  0.5697  0.1952  0.0763
  101RES   O14628346   7.021   3.014   0.015  0.4198  0.8908  0.5131
  101RES   C14728347   7.029   3.070   0.146 -0.2500  0.3175 -0.1752
  101RES   H14828348   7.304   2.799   7.597 -1.4505 -0.2620  0.9472
  101RES   H14928349   7.360   2.960   7.599  0.7383  0.8759  0.4070
  101RES   H15028350   7.093   3.018   7.580  1.8591  2.2147  1.1931
  101RES   H15128351   7.212   3.070   7.793 -0.5431  1.1634 -2.0003
  101RES   H15228352   7.192   2.890   0.020 -1.1922 -0.3149  0.4159
  101RES   H15328353   7.074   2.996   0.212 -2.3824 -0.4998  0.4101
  101RES   H15428354   6.930   3.100   0.181  0.4901  1.2855  1.1042
  101RES   H15528355   7.094   3.156   0.153 -0.3426  0.3510  0.2796
  101RES   O15628356   7.064   2.821   7.629 -0.2228 -0.5548 -0.7014
  101RES   C15728357   6.939   2.846   7.571  0.1424  0.1246 -0.0569
  101RES   C15828358   6.836   2.730   7.597  0.2851  0.3538  0.5195
  101RES   C15928359   6.724   2.757   7.495  0.2866  1.0937 -0.1725
  101RES   O16028360   6.647   2.638   7.474  0.0315  0.1527 -0.4130
  101RES   C16128361   6.566   2.589   7.582  0.5699  0.5936 -0.3728
  101RES   H16228362   6.894   2.936   7.614 -1.1031 -0.2566 -0.5416
  101RES   H16328363   6.950   2.864   7.464  0.0018  0.8126  0.0406
  101RES   H16428364   6.880   2.630   7.589 -0.1354  0.1036  1.3410
  101RES   H16528365   6.656   2.833   7.532 -1.0637  0.8583 -2.1090
  101RES   H16628366   6.760   2.789   7.398 -0.1528  1.1068 -0.3342
  101RES   H16728367   6.623   2.560   7.671 -0.9625  0.1864  0.4906
  101RES   H16828368   6.504   2.514   7.535 -0.5972  0.0752  1.9399
  101RES   H16928369   6.507   2.673   7.618 -0.9538 -0.4406 -0.4356
  101RES   O17028370   6.779   2.753   7.723  0.1282 -0.3697  0.4264
  101RES   C17128371   6.855   2.707   0.016  0.5959 -0.0890  0.2105
  101RES   C17228372   6.756   2.703   0.131 -0.3617  0.1956 -0.9760
  101RES   C17328373   6.828   2.662   0.263 -0.2243 -0.5980 -0.4326
  101RES   O17428374   6.726   2.655   0.370  0.2651 -0.0217  0.6075
  101RES   C17528375   6.774   2.613   0.496  0.4024  0.1077 -0.1867
  101RES   H17628376   6.936   2.779   0.023 -2.2184  3.4152 -1.2159
  101RES   H17728377   6.906   2.614   7.811  0.5615  0.6082 -3.1255
  101RES   H17828378   6.703   2.797   0.139  1.1700  0.9741  0.0702
  101RES   H17928379   6.873   2.563   0.249 -0.9409 -1.3692  2.2421
  101RES   H18028380   6.910   2.728   0.289 -2.7432  2.6400 -0.4126
  101RES   H18128381   6.692   2.618   0.567 -0.1143 -0.1145 -0.7653
  101RES   H18228382   6.863   2.669   0.526  0.5269  0.0013 -0.3555
  101RES   H18328383   6.802   2.508   0.481 -0.9378 -0.2643 -0.1384
  101RES   O18428384   6.659   2.600   0.113  0.1845  0.2086 -0.3543
  101RES   C18528385   6.523   2.642   0.150 -0.0516 -0.6182  0.4044
  101RES   C18628386   6.414   2.531   0.131 -0.0523  0.5278  0.9091
  101RES   C18728387   6.275   2.594   0.108  0.1068  0.0420  0.0771
  101RES   O18828388   6.229   2.679   0.211 -0.0550 -0.8526 -0.1670
  101RES   C18928389   6.121   2.768   0.171 -0.7377 -0.3147 -0.8980
  101RES   H19028390   6.509   2.725   0.081  2.4941  1.1114  1.8926
  101RES   H19128391   6.512   2.678   0.252 -1.5896 -0.0760  0.0663
  101RES   H19228392   6.441   2.471   0.044  1.4774 -1.9859  3.0195
  101RES   H19328393   6.207   2.510   0.098 -1.1867  0.9796  0.8822
  101RES   H19428394   6.280   2.658   0.020  0.6080 -0.9940 -0.6559
  101RES   H19528395   6.030   2.712   0.149 -0.1848 -1.6419  0.1310
  101RES   H19628396   6.089   2.838   0.248  0.6170 -1.9394  1.1933
  101RES   H19728397   6.151   2.837   0.091  1.8434 -0.1620  0.1656
  101RES   O19828398   6.415   2.447   0.247  0.7109 -0.0960  0.5847
  101RES   C19928399   6.515   2.348   0.237 -0.8329 -0.2233  0.2080
  101RES   C20028400   6.538   2.277   0.371  0.1730 -0.8359  0.4912
  101RES   C20128401   6.638   2.160   0.365  0.5992  0.0442  0.4406
  101RES   O20228402   6.725   2.154   0.482 -0.0631 -0.1996  0.0659
  101RES   C20328403   6.806   2.046   0.461 -0.0509 -0.2595 -0.5494
  101RES   H20428404   6.607   2.397   0.205  0.2949 -1.9807  0.7364
  101RES   H20528405   6.470   2.290   0.156  0.1034 -2.8942  1.5378
  101RES   H20628406   6.574   2.354   0.439  0.2884 -1.3059  0.9697
  101RES   H20728407   6.594   2.062   0.346 -1.3206  1.3322 -2.2129
  101RES   H20828408   6.696   2.166   0.272 -2.4884 -1.8931 -1.7307
  101RES   H20928409   6.845   2.024   0.560 -0.1706 -0.4314 -0.5390
  101RES   H21028410   6.889   2.055   0.392  0.5242 -0.0665  0.1582
  101RES   H21128411   6.758   1.951   0.436  1.7845 -0.8570 -1.9162
  101RES   O21228412   6.419   2.236   0.425  0.0840  0.1055 -0.0793
  101RES   C21328413   6.423   2.189   0.560 -0.3364 -0.0617  0.0050
  101RES   C21428414   6.283   2.147   0.599  0.3232 -0.0446 -0.4605
  101RES   C21528415   6.272   2.149   0.760  0.6477 -0.1195 -0.0003
  101RES   O21628416   6.144   2.140   0.799  0.0774  0.5510  0.2901
  101RES   C21728417   6.116   2.179   0.932 -0.2357  0.0225 -0.2867
  101RES   H21828418   6.451   2.279   0.614  1.1747 -0.2937 -0.3545
  101RES   H21928419   6.496   2.113   0.588 -0.6154 -1.3396 -2.5840
  101RES   H22028420   6.219   2.219   0.547  0.2025  0.7081  0.7230
  101RES   H22128421   6.332   2.080   0.818 -1.9249 -1.0610  1.6095
  101RES   H22228422   6.300   2.249   0.794  0.4183  0.0483 -0.3037
  101RES   H22328423   6.180   2.130   1.006 -0.3876  0.6444  0.2621
  101RES   H22428424   6.009   2.162   0.945 -0.2635 -0.0601 -0.6194
  101RES   H22528425   6.137   2.285   0.950 -0.1650 -0.0221 -0.1078
  101RES   O22628426   6.266   2.013   0.555  0.0577  0.1750 -0.2809
  101RES   C22728427   6.141   1.973   0.512  0.0820 -0.1080 -0.1945
  101RES   C22828428   6.149   1.814   0.504  0.4921  0.2388  0.5229
  101RES   C22928429   6.029   1.748   0.583 -0.0350 -1.2162  0.5988
  101RES   O23028430   6.058   1.616   0.621  1.0348  0.3079 -0.3426
  101RES   C23128431   5.950   1.551   0.688  0.5883  0.2765  0.3147
  101RES   H23228432   6.098   2.016   0.422  1.2625  0.4494 -0.4975
  101RES   H23328433   6.066   1.998   0.587  0.8240 -0.7826  0.7851
  101RES   H23428434   6.244   1.786   0.547  0.0457 -0.5487  1.0136
  101RES   H23528435   5.942   1.756   0.517 -2.0808 -0.9148  3.2288
  101RES   H23628436   6.015   1.796   0.679  1.9705 -0.8976  0.7497
  101RES   H23728437   5.865   1.523   0.625  1.0228 -0.7710  0.1932
  101RES   H23828438   5.919   1.611   0.774 -0.7051  0.1230 -0.0298
  101RES   H23928439   5.978   1.456   0.733  2.4698  1.0499  0.8043
  101RES   O24028440   6.129   1.792   0.364 -0.5238  0.3844 -0.2438
  101RES   C24128441   6.182   1.672   0.318  0.2970  0.0600 -0.4180
  101RES   C24228442   6.319   1.708   0.252  0.6751 -0.2748 -0.8567
  101RES   C24328443   6.324   1.846   0.185  0.3855  0.1697 -0.2403
  101RES   O24428444   6.440   1.859   0.098 -0.0690 -0.3998 -0.4114
  101RES   C24528445   6.455   1.986   0.035 -0.4390  0.0597  0.3577
  101RES   H24628446   6.123   1.627   0.238  0.2080  0.2249 -0.4432
  101RES   H24728447   6.191   1.594   0.393 -0.4638 -0.4540 -0.8476
  101RES   H24828448   6.334   1.639   0.169  0.0362 -0.9124 -0.4407
  101RES   H24928449   6.238   1.848   0.119  0.1678 -1.6699 -0.0349
  101RES   H25028450   6.307   1.922   0.261  0.5614  1.5103 -1.5205
  101RES   H25128451   6.552   2.017   7.812  0.4281 -1.1424  1.4781
  101RES   H25228452   6.434   2.070   0.101 -0.0859  0.1626  0.3376
  101RES   H25328453   6.381   1.991   7.772  0.0753 -0.6106 -0.1629
  101RES   O25428454   6.416   1.692   0.360  0.0552  0.6984  0.6065
  101RES   C25528455   6.554   1.679   0.324  0.1597  0.3440 -0.0024
  101RES   C25628456   6.633   1.627   0.453  0.2117 -0.4231 -0.4069
  101RES   C25728457   6.769   1.561   0.402 -0.1879 -0.1834 -0.1260
  101RES   O25828458   6.731   1.456   0.319 -0.3667 -0.0398  0.6120
  101RES   C25928459   6.832   1.445   0.217 -0.4666  0.6164  0.3558
  101RES   H26028460   6.566   1.612   0.239 -0.1904  2.2518 -1.5746
  101RES   H26128461   6.597   1.775   0.297  0.8782  0.1796  0.5208
  101RES   H26228462   6.578   1.548   0.503 -1.0551 -0.3934 -1.7340
  101RES   H26328463   6.837   1.636   0.360  0.1099 -1.1115 -1.3375
  101RES   H26428464   6.815   1.508   0.485  3.3775 -0.1248 -1.9777
  101RES   H26528465   6.814   1.359   0.152 -1.7603  0.1824  1.2639
  101RES   H26628466   6.933   1.421   0.252  0.0033  0.9194 -0.7622
  101RES   H26728467   6.843   1.536   0.158  0.4419  1.3465  1.6345
  101RES   O26828468   6.663   1.743   0.543 -0.1758 -0.0224 -0.0146
  101RES   C26928469   6.551   1.803   0.599 -0.3448 -0.6304  0.2625
  101RES   C27028470   6.593   1.885   0.713  0.1987  0.1296  0.4101
  101RES   C27128471   6.637   1.820   0.845  0.4449  0.0765  0.0073
  101RES   O27228472   6.634   1.915   0.952 -0.1993  0.0041  1.1288
  101RES   C27328473   6.678   1.859   1.070 -0.4226  0.1130 -0.6437
  101RES   H27428474   6.476   1.727   0.620 -0.8750 -0.4357 -0.8831
  101RES   H27528475   6.502   1.863   0.522  1.1655  0.7709  0.3789
  101RES   H27628476   6.677   1.948   0.682 -0.6344  0.2520 -1.6330
  101RES   H27728477   6.735   1.772   0.841  0.9346  1.0888 -0.2835
  101RES   H27828478   6.561   1.745   0.864  0.8014  0.0867  1.5649
  101RES   H27928479   6.708   1.950   1.122  1.0411 -1.1366  0.7456
  101RES   H28028480   6.767   1.797   1.056 -0.7038 -0.9317  1.9061
  101RES   H28128481   6.601   1.802   1.121 -1.2270 -0.6722 -2.6534
  101RES   H28228482   6.505   1.948   0.728  1.8038  2.3567  0.8991
  102RES     O128483   4.186   5.400   6.808 -0.5503  0.8677 -0.0587
  102RES     C228484   4.152   5.315   6.701 -0.1915 -0.8143 -0.2876
  102RES     C328485   4.071   5.200   6.763  0.9323  0.1425  0.0427
  102RES     C428486   3.947   5.154   6.685  0.1776  0.0335  0.3393
  102RES     O528487   3.826   5.186   6.751 -0.5389 -0.0947 -0.2476
  102RES     C628488   3.712   5.148   6.684  0.2922 -0.4920 -0.6322
  102RES     H728489   4.096   5.378   6.632 -1.4903  1.8720  3.0688
  102RES     H828490   4.240   5.273   6.652 -0.3497  1.1248 -2.3233
  102RES     H928491   4.041   5.225   6.864 -0.4239 -1.6368  0.1009
  102RES    H1028492   3.930   5.046   6.676 -1.3897  0.4577 -2.4552
  102RES    H1128493   3.971   5.195   6.587  2.2043  1.2900  1.3446
  102RES    H1228494   3.642   5.215   6.734  0.6027 -0.6059 -0.0428
  102RES    H1328495   3.708   5.184   6.581  0.7769 -2.1162 -1.2255
  102RES    H1428496   3.677   5.045   6.694  1.9375 -1.1488 -1.5623
  102RES    H1528497   4.244   5.352   6.865 -1.8778 -0.5612  0.1332
  102RES    O1628498   4.156   5.082   6.765 -0.7130 -0.0552 -0.8038
  102RES    C1728499   4.150   5.000   6.887  0.1044  0.5521 -0.4144
  102RES    C1828500   4.195   4.860   6.848  0.2309 -0.0443  0.5310
  102RES    C1928501   4.291   4.808   6.961 -0.0650 -0.1548  0.7681
  102RES    O2028502   4.382   4.707   6.923 -0.1719  0.1613  0.4594
  102RES    C2128503   4.340   4.581   6.962  0.4199 -0.2737  0.3797
  102RES    H2228504   4.054   4.988   6.936 -0.1743  0.8419 -0.8880
  102RES    H2328505   4.220   5.040   6.961 -1.9963  1.6192  1.0444
  102RES    H2428506   4.247   4.867   6.753  0.8989  3.1411  1.0725
  102RES    H2528507   4.353   4.887   7.004  0.7327 -0.9113  1.0305
  102RES    H2628508   4.234   4.787   7.052 -2.8999 -0.6214 -1.0599
  102RES    H2728509   4.389   4.502   6.906  0.3485 -0.1528  0.1452
  102RES    H2828510   4.235   4.565   6.939  1.4424 -0.9138 -4.4188
  102RES    H2928511   4.362   4.557   7.066  0.9438 -0.2507  0.2744
  102RES    O3028512   4.087   4.770   6.856 -0.2078 -0.1468 -0.0055
  102RES    C3128513   4.061   4.709   6.730  0.6693 -0.4086 -0.2653
  102RES    C3228514   3.951   4.602   6.722  0.2141 -0.6328  0.0865
  102RES    C3328515   3.960   4.541   6.581  0.3914  0.0865 -0.2466
  102RES    O3428516   4.047   4.429   6.588  0.6121  0.1012  0.2578
  102RES    C3528517   4.034   4.340   6.475 -0.8768  0.0629  0.5646
  102RES    H3628518   4.034   4.793   6.666 -0.4982  0.7789  1.7223
  102RES    H3728519   4.150   4.660   6.692 -1.2915 -2.3479 -2.5626
  102RES    H3828520   3.975   4.529   6.799  0.1521 -0.1811  0.5396
  102RES    H3928521   3.991   4.606   6.500  0.9664 -0.7816 -0.7172
  102RES    H4028522   3.861   4.504   6.555  0.7219  0.9097 -2.8013
  102RES    H4128523   4.081   4.244   6.498 -0.4513  0.1454  0.0723
  102RES    H4228524   4.080   4.381   6.385 -0.8565  2.1006  1.4739
  102RES    H4328525   3.931   4.310   6.457 -0.7452  0.5654 -1.1622
  102RES    O4428526   3.814   4.646   6.729  0.0778  0.6865 -0.3091
  102RES    C4528527   3.767   4.704   6.850  0.6481 -0.1449  0.5737
  102RES    C4628528   3.622   4.671   6.882 -0.3471  0.4070 -0.0131
  102RES    C4728529   3.579   4.761   6.997  0.5425  0.2793  0.3324
  102RES    O4828530   3.465   4.717   7.062  0.5174  0.7121  0.5255
  102RES    C4928531   3.440   4.779   7.190 -0.1215 -0.5250  0.0104
  102RES    H5028532   3.778   4.813   6.850  1.8892 -0.2506  1.9237
  102RES    H5128533   3.824   4.662   6.933  0.0588 -1.1449  0.4826
  102RES    H5228534   3.605   4.563   6.892 -1.1352  0.6866  2.0149
  102RES    H5328535   3.663   4.773   7.066  1.7664 -0.9326 -0.9171
  102RES    H5428536   3.562   4.865   6.968 -2.4548 -0.2912 -0.0252
  102RES    H5528537   3.332   4.787   7.194 -0.0604  1.0604 -0.9570
  102RES    H5628538   3.489   4.876   7.200 -0.5050 -0.3579  0.2427
  102RES    H5728539   3.486   4.719   7.269  1.8550  0.1416 -0.6074
  102RES    O5828540   3.552   4.716   6.770  0.6613  0.3814 -0.2645
  102RES    C5928541   3.407   4.703   6.770  0.1339 -0.1788 -0.8617
  102RES    C6028542   3.354   4.685   6.619  0.7764  0.0180 -0.3735
  102RES    C6128543   3.206   4.739   6.612  0.1031 -0.9271 -0.6299
  102RES    O6228544   3.168   4.755   6.475  0.0761 -0.5458  0.2777
  102RES    C6328545   3.095   4.653   6.409 -0.3355 -0.5137 -0.0020
  102RES    H6428546   3.368   4.794   6.817 -0.4925 -0.1427 -1.4419
  102RES    H6528547   3.387   4.615   6.831 -0.9188  2.2995  2.5477
  102RES    H6628548   3.409   4.745   6.546 -0.9164  0.7885 -1.0341
  102RES    H6728549   3.127   4.687   6.667  1.2818 -1.1931  0.8173
  102RES    H6828550   3.188   4.832   6.665 -1.9260 -1.8103  0.3053
  102RES    H6928551   3.010   4.622   6.470 -0.7975 -0.1980 -0.4889
  102RES    H7028552   3.168   4.572   6.405 -0.8744 -1.2809  3.4243
  102RES    H7128553   3.056   4.687   6.313 -0.3389  0.5521  0.3624
  102RES    O7228554   3.355   4.549   6.583  0.2293  0.5705  0.0203
  102RES    C7328555   3.480   4.503   6.530  0.2048 -0.0790  0.3160
  102RES    C7428556   3.488   4.348   6.546  0.2881  0.0849  0.4133
  102RES    C7528557   3.632   4.307   6.575 -0.5018 -0.3976 -0.7808
  102RES    O7628558   3.652   4.169   6.596  0.2566 -0.5155  0.0970
  102RES    C7728559   3.726   4.133   6.712  0.5982  0.5624  0.4411
  102RES    H7828560   3.511   4.523   6.427 -1.9433  0.6841 -0.1970
  102RES    H7928561   3.551   4.556   6.594 -2.6935  1.2103  2.5971
  102RES    H8028562   3.425   4.314   6.628 -1.1994 -0.3067 -0.8755
  102RES    H8128563   3.678   4.361   6.657  0.1255 -0.0231 -1.3774
  102RES    H8228564   3.698   4.346   6.498 -1.0359 -0.9881 -1.5498
  102RES    H8328565   3.827   4.169   6.696  1.1717 -1.3346 -0.3629
  102RES    H8428566   3.738   4.026   6.727 -0.8764  0.2056 -0.7913
  102RES    H8528567   3.681   4.174   6.802  0.5438  0.1157  0.6214
  102RES    O8628568   3.440   4.289   6.421 -0.3708 -0.0073  0.4856
  102RES    C8728569   3.299   4.284   6.409 -0.2332  0.6533  0.5495
  102RES    C8828570   3.251   4.310   6.265  0.0479 -0.1219 -0.0856
  102RES    C8928571   3.108   4.276   6.250  0.7701  0.0446 -0.2406
  102RES    O9028572   3.077   4.138   6.239  0.6194  0.1798  0.3942
  102RES    C9128573   2.952   4.098   6.293  0.0151  0.6813  0.2845
  102RES    H9228574   3.279   4.178   6.421  0.9472 -0.0065 -2.8692
  102RES    H9328575   3.252   4.345   6.486  1.3774  0.0226  2.0834
  102RES    H9428576   3.301   4.236   6.203  0.3578  1.4580 -1.7615
  102RES    H9528577   3.060   4.318   6.339  2.0591 -0.2550  0.6113
  102RES    H9628578   3.069   4.320   6.158  3.0278 -0.5470 -1.5097
  102RES    H9728579   2.870   4.145   6.238  0.0936  0.3555 -0.1154
  102RES    H9828580   2.939   3.992   6.270 -3.5530  1.1275 -0.1146
  102RES    H9928581   2.927   4.111   6.399 -0.5763  0.5274  0.1678
  102RES   O10028582   3.272   4.442   6.210 -0.3892 -0.1234 -0.0529
  102RES   C10128583   3.376   4.455   6.113  0.0136 -0.3955 -0.2446
  102RES   C10228584   3.347   4.582   6.034  0.0220  0.3692  0.0514
  102RES   C10328585   3.381   4.566   5.884  0.3646  0.0821 -0.0158
  102RES   O10428586   3.503   4.491   5.883 -0.0622 -0.1938 -0.1136
  102RES   C10528587   3.555   4.471   5.755 -0.5992  0.1077  0.7695
  102RES   H10628588   3.383   4.371   6.044 -0.8168  0.1328 -0.9882
  102RES   H10728589   3.475   4.461   6.158  0.0701 -1.6064 -0.1869
  102RES   H10828590   3.240   4.601   6.040  0.2978  2.3816 -0.9232
  102RES   H10928591   3.383   4.658   5.827 -0.4500  0.3351  0.3585
  102RES   H11028592   3.304   4.499   5.845 -1.8809  1.3715  2.0955
  102RES   H11128593   3.479   4.434   5.686 -0.6715  0.7025  0.5264
  102RES   H11228594   3.638   4.402   5.767 -0.3213  0.3057  0.0301
  102RES   H11328595   3.591   4.568   5.719  2.4340 -0.9693  0.7558
  102RES   O11428596   3.418   4.695   6.098 -0.0664  0.7961 -0.3965
  102RES   C11528597   3.365   4.748   6.217  0.5551  0.0678 -0.6967
  102RES   C11628598   3.441   4.876   6.259  0.4477 -0.1876 -0.2267
  102RES   C11728599   3.362   4.957   6.361 -0.5538  0.3142  0.2639
  102RES   O11828600   3.392   5.090   6.341 -0.8919 -0.2039  0.0013
  102RES   C11928601   3.337   5.183   6.435 -0.6128 -0.3453  0.5072
  102RES   H12028602   3.260   4.772   6.198 -0.2037 -0.1043  2.9324
  102RES   H12128603   3.386   4.679   6.299  0.1587  1.5539  0.6664
  102RES   H12228604   3.470   4.926   6.166  0.4427  1.6068  0.7019
  102RES   H12328605   3.255   4.942   6.351 -0.6415  1.9601 -1.5547
  102RES   H12428606   3.385   4.941   6.467  1.4460  0.5281 -0.1094
  102RES   H12528607   3.377   5.150   6.531  1.4778  0.0668 -0.2065
  102RES   H12628608   3.229   5.187   6.425 -0.2135  0.0717 -5.1451
  102RES   H12728609   3.393   5.276   6.423  1.8912 -1.8799 -0.1972
  102RES   O12828610   3.562   4.835   6.327  0.2398 -0.0872 -0.3251
  102RES   C12928611   3.674   4.910   6.291  0.0012 -0.1747 -0.2900
  102RES   C13028612   3.793   4.863   6.373 -0.2628 -0.6770 -0.2342
  102RES   C13128613   3.919   4.961   6.362 -0.3225 -0.5429 -0.1740
  102RES   O13228614   4.022   4.920   6.456  0.4674 -0.5027 -0.3646
  102RES   C13328615   4.138   4.997   6.425 -0.8762  0.0099 -1.0181
  102RES   H13428616   3.691   4.909   6.183  1.6507 -2.0098 -0.0591
  102RES   H13528617   3.660   5.013   6.323 -0.1586  0.3929 -2.1292
  102RES   H13628618   3.766   4.861   6.479 -0.4900 -0.5219 -0.2876
  102RES   H13728619   3.890   5.061   6.392  0.9068 -0.2060 -0.0917
  102RES   H13828620   3.949   4.974   6.258 -0.5886  2.1315  0.0611
  102RES   H13928621   4.177   4.952   6.333  1.4871  0.5875 -0.3352
  102RES   H14028622   4.114   5.103   6.433 -1.6894 -0.1659 -1.1358
  102RES   H14128623   4.206   4.977   6.508 -3.8079 -0.5245  1.3388
  102RES   O14228624   3.843   4.731   6.342 -0.2167 -0.1104 -0.1334
  102RES   C14328625   3.830   4.689   6.200 -0.0739  0.5222  0.1482
  102RES   C14428626   3.932   4.576   6.186 -0.9731 -0.7732  0.6636
  102RES   C14528627   4.080   4.631   6.187  0.1311  0.2083  0.3549
  102RES   O14628628   4.162   4.517   6.183 -0.1092 -0.4254 -0.5018
  102RES   C14728629   4.300   4.553   6.186 -0.1977 -0.0510  0.4103
  102RES   H14828630   3.731   4.647   6.188  0.9135 -1.0186 -3.0152
  102RES   H14928631   3.855   4.768   6.129  1.1302 -1.4895 -1.7111
  102RES   H15028632   3.920   4.513   6.274 -0.5472 -0.0352  1.2531
  102RES   H15128633   4.105   4.689   6.276 -0.5093 -1.5292  1.7104
  102RES   H15228634   4.098   4.692   6.099  0.8997 -0.0742  0.3107
  102RES   H15328635   4.312   4.615   6.275 -0.4063 -1.2286  1.2592
  102RES   H15428636   4.328   4.606   6.095 -1.7616  0.7029  0.3459
  102RES   H15528637   4.365   4.467   6.202 -1.8555 -0.8866  3.0148
  102RES   O15628638   3.897   4.493   6.075 -0.5292  0.3424 -0.3543
  102RES   C15728639   3.802   4.388   6.097  1.0467 -0.0799 -0.0461
  102RES   C15828640   3.804   4.281   5.992  0.4275 -0.1054  0.0671
  102RES   C15928641   3.665   4.209   5.970  0.1845  0.0298  0.1859
  102RES   O16028642   3.665   4.171   5.835 -0.5061  0.0939 -0.1576
  102RES   C16128643   3.551   4.087   5.801  0.1781 -0.0342 -0.1618
  102RES   H16228644   3.833   4.339   6.189  1.6554 -0.2639 -0.3477
  102RES   H16328645   3.700   4.421   6.118  0.2034 -3.1936  0.9355
  102RES   H16428646   3.814   4.332   5.896 -0.6305 -0.2186 -0.1119
  102RES   H16528647   3.646   4.126   6.037  0.2537  0.7949  1.1715
  102RES   H16628648   3.585   4.283   5.982 -1.5202 -1.7078 -0.2660
  102RES   H16728649   3.457   4.117   5.848 -0.4758 -0.9758 -0.8663
  102RES   H16828650   3.575   3.987   5.836  0.4259 -0.5616 -1.7812
  102RES   H16928651   3.539   4.072   5.694  0.1615 -0.3471 -0.1152
  102RES   O17028652   3.901   4.179   6.021  0.4742  0.3590 -0.3454
  102RES   C17128653   4.040   4.224   6.022 -0.3778  0.7331  0.0744
  102RES   C17228654   4.135   4.109   6.040 -0.2171 -0.0636 -0.7767
  102RES   C17328655   4.263   4.138   6.120 -0.7954  0.3231 -0.0815
  102RES   O17428656   4.287   4.016   6.196  0.5036  0.2710 -0.1435
  102RES   C17528657   4.414   4.005   6.259 -0.0164  0.1865 -0.0457
  102RES   H17628658   4.040   4.293   6.106 -0.4995  0.0657  0.6227
  102RES   H17728659   4.056   4.290   5.937  0.8256 -0.9720 -1.0510
  102RES   H17828660   4.080   4.038   6.102  1.8128 -0.0472  1.0831
  102RES   H17928661   4.344   4.160   6.050 -1.0030 -2.5981 -1.3295
  102RES   H18028662   4.255   4.222   6.189 -0.5237  0.0365  0.2955
  102RES   H18128663   4.428   3.907   6.303 -0.5439  0.5912  1.0501
  102RES   H18228664   4.424   4.082   6.336  0.5584  0.8323 -0.7507
  102RES   H18328665   4.500   4.012   6.193  0.1257  0.6444  0.1875
  102RES   O18428666   4.171   4.048   5.918  0.0149  0.8107 -0.0835
  102RES   C18528667   4.070   3.978   5.845 -0.3549  0.1801 -0.1691
  102RES   C18628668   4.128   3.868   5.759 -0.2663 -0.3210  0.3727
  102RES   C18728669   4.198   3.932   5.644 -0.2785  0.4982 -0.1074
  102RES   O18828670   4.234   3.831   5.545 -0.2334 -0.3787  0.5894
  102RES   C18928671   4.290   3.882   5.422 -0.3026  0.1791  0.0908
  102RES   H19028672   4.008   4.051   5.793 -1.5318 -0.7656 -0.1170
  102RES   H19128673   4.011   3.925   5.920 -1.2274 -0.2925 -1.1780
  102RES   H19228674   4.208   3.815   5.811 -0.4473 -0.3608  0.6116
  102RES   H19328675   4.283   3.995   5.669 -0.5180  1.1243 -0.8537
  102RES   H19428676   4.124   3.994   5.594 -0.4645  0.3115 -0.0653
  102RES   H19528677   4.308   3.792   5.362 -0.3632  0.6252 -0.6005
  102RES   H19628678   4.226   3.963   5.388  0.8534  0.5221 -1.3233
  102RES   H19728679   4.384   3.936   5.437 -0.2336 -0.0037  0.3180
  102RES   O19828680   4.036   3.776   5.694 -0.2476  0.3641  0.2155
  102RES   C19928681   3.957   3.696   5.776  0.3066 -0.2587 -0.4887
  102RES   C20028682   4.049   3.588   5.849 -0.5595  0.1268  0.3316
  102RES   C20128683   3.967   3.460   5.880 -0.6708  0.0359 -0.2527
  102RES   O20228684   4.044   3.340   5.891  0.5744  0.4695  0.9841
  102RES   C20328685   4.086   3.297   5.760  0.5897  0.6358 -0.5433
  102RES   H20428686   3.891   3.637   5.712  0.1750  0.0825 -0.6636
  102RES   H20528687   3.904   3.761   5.845 -0.7457 -0.9534 -0.6238
  102RES   H20628688   4.137   3.564   5.790  0.6759 -0.2088  2.2693
  102RES   H20728689   3.922   3.480   5.977 -2.2881  0.6243 -1.1024
  102RES   H20828690   3.891   3.441   5.804  0.4320 -0.7064 -1.2042
  102RES   H20928691   4.154   3.368   5.715 -0.4297  0.7724 -1.8980
  102RES   H21028692   3.998   3.287   5.696  0.0767 -0.0836  0.2560
  102RES   H21128693   4.126   3.196   5.771 -2.0472 -0.4354 -0.2759
  102RES   O21228694   4.098   3.643   5.972  0.1653 -0.1030 -0.2812
  102RES   C21328695   4.216   3.584   6.028  0.1821  0.2302  0.6915
  102RES   C21428696   4.227   3.627   6.173 -0.2668  0.3753 -0.5019
  102RES   C21528697   4.328   3.546   6.257  0.7278 -0.0694  0.4378
  102RES   O21628698   4.329   3.597   6.386 -0.0699 -0.2954  0.0183
  102RES   C21728699   4.426   3.536   6.466 -0.7507  0.2166  0.4548
  102RES   H21828700   4.303   3.608   5.967  2.0105 -5.1859  0.9620
  102RES   H21928701   4.222   3.476   6.024  0.4548  0.2527  0.4928
  102RES   H22028702   4.250   3.733   6.188  0.7242 -0.1014  1.5807
  102RES   H22128703   4.306   3.440   6.254  0.8973 -0.0757 -0.7760
  102RES   H22228704   4.430   3.564   6.224  1.2052  0.1977  2.0082
  102RES   H22328705   4.397   3.434   6.490 -0.2219 -0.2658 -0.9355
  102RES   H22428706   4.435   3.592   6.559 -0.5834  1.9963 -0.6074
  102RES   H22528707   4.521   3.533   6.413 -0.2596  2.8606  1.0957
  102RES   O22628708   4.109   3.592   6.235  0.6509  0.0443  0.4510
  102RES   C22728709   4.020   3.701   6.256 -0.3642  0.2737 -0.4725
  102RES   C22828710   4.052   3.781   6.392 -0.2570  0.3965  1.4760
  102RES   C22928711   3.998   3.921   6.386  0.1084 -0.3558 -0.4628
  102RES   O23028712   3.863   3.917   6.339  0.5809  0.0505 -0.2664
  102RES   C23128713   3.797   4.036   6.336  0.2555 -0.0852  0.0517
  102RES   H23228714   3.922   3.654   6.262 -0.1902 -0.4230 -2.7155
  102RES   H23328715   4.023   3.766   6.168  0.4204  0.3845 -0.3687
  102RES   H23428716   4.158   3.803   6.408 -0.2029  0.8811  0.4677
  102RES   H23528717   4.069   3.977   6.325  0.8576 -2.5719 -1.6909
  102RES   H23628718   3.990   3.963   6.486  2.0730  2.6554 -1.4909
  102RES   H23728719   3.807   4.095   6.245  0.3459  0.1965  0.2446
  102RES   H23828720   3.810   4.091   6.429 -0.8170  0.1079  0.1021
  102RES   H23928721   3.690   4.018   6.345  0.4477 -0.9732  0.6543
  102RES   O24028722   3.993   3.721   6.501  0.7013  0.3513 -0.5412
  102RES   C24128723   4.060   3.605   6.552 -0.3165  0.7256 -0.0616
  102RES   C24228724   3.999   3.570   6.684  0.1242  0.5904  0.4011
  102RES   C24328725   4.024   3.425   6.716 -0.3417 -0.5551  0.4572
  102RES   O24428726   4.147   3.387   6.658 -0.0653  0.0438  0.3131
  102RES   C24528727   4.259   3.389   6.755 -0.0318 -0.2699  0.0554
  102RES   H24628728   4.165   3.620   6.576 -0.0162 -0.9305 -0.2722
  102RES   H24728729   4.057   3.522   6.481 -2.0737 -2.5612  3.7090
  102RES   H24828730   3.891   3.586   6.687 -0.0503  0.8119 -3.6711
  102RES   H24928731   4.021   3.432   6.825  1.7179 -0.8236  0.5576
  102RES   H25028732   3.945   3.361   6.677  0.1508 -1.0078  0.2042
  102RES   H25128733   4.250   3.319   6.839 -2.5759  0.5380  0.5179
  102RES   H25228734   4.249   3.491   6.791 -0.5918 -0.5212  0.6362
  102RES   H25328735   4.355   3.395   6.704 -0.2360  0.9733 -0.1789
  102RES   O25428736   4.058   3.646   6.790  0.3343  0.3206  0.2394
  102RES   C25528737   4.044   3.791   6.796  0.2592 -0.0794  0.2636
  102RES   C25628738   4.174   3.867   6.813 -0.0503  0.2294 -0.1158
  102RES   C25728739   4.278   3.846   6.706 -0.4858 -0.0075 -1.1180
  102RES   O25828740   4.399   3.913   6.733  0.3108 -0.1038  0.1279
  102RES   C25928741   4.508   3.859   6.673 -0.1734  0.2570 -0.1443
  102RES   H26028742   3.971   3.837   6.731  0.5099  1.1299  0.8139
  102RES   H26128743   3.993   3.810   6.890 -0.5002  0.8002 -0.3216
  102RES   H26228744   4.211   3.855   6.915 -0.9809  0.1699  0.2228
  102RES   H26328745   4.306   3.742   6.717 -1.1958  0.0398  1.1707
  102RES   H26428746   4.245   3.876   6.606 -2.1115  1.8405 -0.0481
  102RES   H26528747   4.583   3.937   6.683  0.2435 -0.2350  0.6015
  102RES   H26628748   4.492   3.837   6.567  0.4091  0.2174 -0.2249
  102RES   H26728749   4.535   3.769   6.727 -1.1779 -0.7013 -1.2061
  102RES   O26828750   4.137   4.006   6.803  0.0198  0.3362 -0.3298
  102RES   C26928751   4.216   4.119   6.850  0.0733 -0.0107  0.7699
  102RES   C27028752   4.242   4.115   7.011  0.5564 -0.0882 -0.0914
  102RES   C27128753   4.328   4.232   7.049  0.5612  0.2240  0.2959
  102RES   O27228754   4.361   4.211   7.183  0.2193 -0.4919 -1.1335
  102RES   C27328755   4.441   4.312   7.249 -0.5966  0.5273 -0.3047
  102RES   H27428756   4.157   4.204   6.815  0.0560  0.2722  1.4781
  102RES   H27528757   4.313   4.114   6.801 -0.2689 -5.8350  0.4138
  102RES   H27628758   4.156   4.120   7.077  0.2899  1.0210 -0.5107
  102RES   H27728759   4.275   4.326   7.032  0.0795  0.0132  0.6130
  102RES   H27828760   4.417   4.236   6.986  0.5300 -1.0698  0.1612
  102RES   H27928761   4.377   4.400   7.252 -2.5029 -0.9034  2.1483
  102RES   H28028762   4.529   4.340   7.190 -1.6080  1.1897 -1.5057
  102RES   H28128763   4.470   4.276   7.348 -2.5586 -3.8238 -1.1900
  102RES   H28228764   4.284   4.019   7.041 -0.3135 -0.2230  0.7370
  103RES     O128765   7.734   0.530   1.626  0.7249 -0.0562 -0.2680
  103RES     C228766   7.690   0.628   1.713  0.6333  0.3831  0.2806
  103RES     C328767   7.811   0.700   1.776 -0.0706  0.5487 -0.0069
  103RES     C428768   7.756   0.819   1.855  0.2355 -0.1579  0.0402
  103RES     O528769   0.046   0.889   1.925 -0.1679 -0.7381 -0.1128
  103RES     C628770   0.007   1.019   1.967  0.6987  0.4230 -0.7064
  103RES     H728771   7.629   0.700   1.659  2.8514  1.1123 -1.3278
  103RES     H828772   7.628   0.583   1.790  0.2877  0.9214  0.3206
  103RES     H928773   0.069   0.719   1.699 -0.4331 -0.8973 -0.7212
  103RES    H1028774   7.678   0.785   1.923  0.6152 -0.0025  0.5547
  103RES    H1128775   7.704   0.886   1.787  0.1511 -1.2134 -0.9604
  103RES    H1228776   0.008   1.084   1.878 -0.7577  0.6218 -0.5948
  103RES    H1328777   7.731   1.018   2.023 -0.5399  2.1425 -2.6441
  103RES    H1428778   0.077   1.057   2.041  0.0176 -0.7639  0.5447
  103RES    H1528779   7.745   0.449   1.675  0.2891  0.3423  0.5031
  103RES    O1628780   0.057   0.618   1.875 -0.3370  0.2694 -0.0522
  103RES    C1728781   0.178   0.554   1.836 -0.1967  0.4320  0.0242
  103RES    C1828782   0.256   0.486   1.955  0.2683  0.3119  0.6549
  103RES    C1928783   0.343   0.373   1.907 -0.2937 -0.6588  0.7220
  103RES    O2028784   0.390   0.281   2.007  0.0608 -0.7170  0.3569
  103RES    C2128785   0.486   0.181   1.955 -0.2043  0.2612  0.0109
  103RES    H2228786   0.236   0.629   1.783  3.2443 -1.3393  1.1149
  103RES    H2328787   0.162   0.472   1.766  1.3117 -0.2640  0.4577
  103RES    H2428788   0.190   0.443   2.030  1.1702 -2.7788 -0.2824
  103RES    H2528789   0.285   0.323   1.830 -4.4762  1.9152  2.0584
  103RES    H2628790   0.431   0.415   1.858 -0.5188 -0.9003  0.1028
  103RES    H2728791   0.450   0.107   1.884  1.9998 -0.4188 -0.4249
  103RES    H2828792   0.520   0.121   2.039 -2.2545 -0.6862  0.1944
  103RES    H2928793   0.574   0.228   1.910  2.0591 -3.1749  0.6509
  103RES    O3028794   0.343   0.573   2.019 -0.0766 -0.5270  0.0418
  103RES    C3128795   0.285   0.666   2.115  0.2683 -0.3677 -0.1868
  103RES    C3228796   0.264   0.613   2.251 -0.2033  0.3328 -0.6221
  103RES    C3328797   0.160   0.699   2.335 -0.2128  0.1494  0.0537
  103RES    O3428798   0.130   0.628   2.458 -0.0326 -0.3026 -0.2335
  103RES    C3528799   0.035   0.693   2.539  0.4444 -0.1964  0.3699
  103RES    H3628800   0.346   0.756   2.115 -0.7456  0.3417 -1.2398
  103RES    H3728801   0.187   0.698   2.078 -0.8516 -3.9051 -0.4686
  103RES    H3828802   0.217   0.515   2.245  2.4033 -1.2833  3.3751
  103RES    H3928803   0.071   0.700   2.273  0.4889 -0.0162 -0.9829
  103RES    H4028804   0.203   0.799   2.338 -2.0884  0.9363  1.4992
  103RES    H4128805   0.062   0.795   2.568  3.4652 -1.4615  2.3221
  103RES    H4228806   0.022   0.624   2.623  0.8248  1.3090  1.6914
  103RES    H4328807   7.755   0.714   2.494 -0.1150  0.2525  1.7449
  103RES    O4428808   0.388   0.604   2.321  0.0352 -0.2507  0.1412
  103RES    C4528809   0.449   0.487   2.308 -0.1009  0.4603  0.5218
  103RES    C4628810   0.590   0.505   2.372  0.1291 -0.3652 -0.0987
  103RES    C4728811   0.638   0.362   2.406  0.0078  0.1255 -0.6818
  103RES    O4828812   0.755   0.378   2.483 -0.3729  0.1211 -0.1542
  103RES    C4928813   0.810   0.250   2.522  0.3246  0.0428  0.0466
  103RES    H5028814   0.468   0.484   2.200 -0.7328  0.8437  0.4021
  103RES    H5128815   0.392   0.408   2.356 -0.7882 -0.0636 -1.1242
  103RES    H5228816   0.583   0.576   2.455 -0.9693  1.5188 -1.7630
  103RES    H5328817   0.568   0.315   2.475  1.3538  0.4055  0.9045
  103RES    H5428818   0.661   0.304   2.317  0.5007 -1.2297  0.3161
  103RES    H5528819   0.798   0.175   2.445 -2.5181 -0.2020  0.6643
  103RES    H5628820   0.769   0.213   2.616 -2.7239  0.4148 -1.0760
  103RES    H5728821   0.915   0.269   2.544  0.6282 -0.7521 -0.6981
  103RES    O5828822   0.690   0.548   2.281  0.5852  0.2844  0.3674
  103RES    C5928823   0.690   0.685   2.264 -0.4026  0.2704 -0.9558
  103RES    C6028824   0.749   0.741   2.133 -0.5635 -0.5435 -0.9320
  103RES    C6128825   0.685   0.663   2.016 -0.3508 -0.3325  0.1086
  103RES    O6228826   0.722   0.719   1.889  0.4162 -0.1389 -0.5680
  103RES    C6328827   0.666   0.645   1.782 -0.3567 -0.3175 -0.5596
  103RES    H6428828   0.738   0.730   2.350 -3.7080 -0.2103  1.2318
  103RES    H6528829   0.586   0.719   2.273 -0.9006 -1.2997 -0.7088
  103RES    H6628830   0.707   0.841   2.135  0.3725 -0.1686  1.6690
  103RES    H6728831   0.719   0.560   2.018  0.8965  0.0044 -2.2069
  103RES    H6828832   0.578   0.654   2.033 -0.2901 -0.0246  0.6618
  103RES    H6928833   0.557   0.645   1.773 -0.4869  1.4017  0.8157
  103RES    H7028834   0.679   0.537   1.791  0.9969 -0.2253 -1.3273
  103RES    H7128835   0.715   0.681   1.692 -2.1225  0.0904 -1.3749
  103RES    O7228836   0.891   0.754   2.146  0.4265  0.0007 -0.0651
  103RES    C7328837   0.960   0.865   2.085 -0.1220  0.5421 -0.7085
  103RES    C7428838   1.103   0.823   2.099  0.6163  0.1631  0.2002
  103RES    C7528839   1.165   0.875   2.231  0.2783 -0.7281  0.6551
  103RES    O7628840   1.293   0.827   2.255  0.0545  0.0109  0.5756
  103RES    C7728841   1.350   0.876   2.380 -0.0470 -0.0355 -0.1914
  103RES    H7828842   0.913   0.866   1.987  0.3409 -0.8390 -0.9589
  103RES    H7928843   0.943   0.963   2.130 -1.8404  1.2059 -2.7351
  103RES    H8028844   1.115   0.715   2.093  0.1227 -0.0237  2.1633
  103RES    H8128845   1.098   0.842   2.311 -1.0441  2.9064  1.1688
  103RES    H8228846   1.164   0.983   2.245 -0.6380 -0.5776 -0.4986
  103RES    H8328847   1.451   0.838   2.390 -0.8376 -2.1851 -0.1295
  103RES    H8428848   1.291   0.845   2.466 -0.1486  0.4442 -0.0845
  103RES    H8528849   1.370   0.983   2.380  0.4583 -0.1172  1.5421
  103RES    O8628850   1.168   0.875   1.989  0.0467 -0.2093  0.3276
  103RES    C8728851   1.297   0.835   1.969 -0.3136 -0.4162  0.0023
  103RES    C8828852   1.308   0.819   1.816 -0.1145 -0.6664  0.1044
  103RES    C8928853   1.448   0.785   1.787  0.2281  0.1947  0.1240
  103RES    O9028854   1.465   0.809   1.648  0.0819 -0.2918 -0.5769
  103RES    C9128855   1.598   0.812   1.613  0.0227  0.2310  0.1153
  103RES    H9228856   1.364   0.915   2.000 -2.2354  1.6961 -1.1235
  103RES    H9328857   1.320   0.741   2.019  1.9625 -0.5231 -1.1779
  103RES    H9428858   1.286   0.920   1.781  1.3147  0.0998  1.3705
  103RES    H9528859   1.512   0.850   1.846 -1.1751  0.1362  1.7790
  103RES    H9628860   1.472   0.680   1.806 -2.1350 -0.6599 -1.3776
  103RES    H9728861   1.609   0.804   1.504 -0.6333  0.0168  0.0679
  103RES    H9828862   1.645   0.904   1.650  0.1148  0.4769 -0.5863
  103RES    H9928863   1.643   0.726   1.662  0.0932  1.5682  2.4383
  103RES   O10028864   1.228   0.710   1.771  0.0687  0.0521 -0.1547
  103RES   C10128865   1.114   0.757   1.703  0.1380  0.5478 -0.1016
  103RES   C10228866   1.029   0.628   1.684 -0.2869  0.2451 -0.3934
  103RES   C10328867   1.021   0.547   1.820 -0.2362  0.1302  0.0079
  103RES   O10428868   0.913   0.460   1.811 -0.1520  0.1905  0.6806
  103RES   C10528869   0.906   0.362   1.911  0.9699  0.1377  0.0790
  103RES   H10628870   1.133   0.817   1.614 -0.7177 -2.1908 -2.2174
  103RES   H10728871   1.052   0.812   1.773 -0.0490 -1.2041  1.1588
  103RES   H10828872   0.931   0.664   1.653  0.5416  1.5542 -1.5701
  103RES   H10928873   1.016   0.624   1.898  3.2961  0.8350 -0.4071
  103RES   H11028874   1.116   0.496   1.831 -0.4578 -0.6165 -1.4769
  103RES   H11128875   0.809   0.316   1.890 -0.0186  2.0818  0.2041
  103RES   H11228876   0.884   0.403   2.010  1.8265 -0.8313  0.6769
  103RES   H11328877   0.981   0.284   1.899  0.3802 -0.2139 -1.4202
  103RES   O11428878   1.093   0.533   1.590 -0.1769  0.2259  0.1613
  103RES   C11528879   1.070   0.558   1.454  0.2708  0.9291 -0.0990
  103RES   C11628880   0.929   0.562   1.401  0.0870  0.1478  0.1903
  103RES   C11728881   0.834   0.457   1.464 -1.1774 -0.3150 -0.0298
  103RES   O11828882   0.704   0.463   1.403  0.2250 -0.4635  0.8782
  103RES   C11928883   0.603   0.392   1.475 -0.5633 -0.2001 -0.4503
  103RES   H12028884   1.117   0.653   1.430  2.8112 -0.2899 -0.1592
  103RES   H12128885   1.109   0.470   1.404 -0.8847 -0.1277  0.8105
  103RES   H12228886   0.926   0.541   1.294  1.7610 -1.1190  0.3613
  103RES   H12328887   0.869   0.355   1.448 -0.4785 -0.7324  3.7421
  103RES   H12428888   0.824   0.469   1.572 -1.5882 -2.2613  0.1787
  103RES   H12528889   0.518   0.374   1.410 -1.2733  1.4962 -0.0231
  103RES   H12628890   0.597   0.451   1.566 -0.5113  1.9538 -1.8104
  103RES   H12728891   0.654   0.298   1.498  0.9097 -0.0871 -3.1092
  103RES   O12828892   0.882   0.694   1.421  0.3369  0.3725  0.4596
  103RES   C12928893   0.774   0.743   1.337 -0.8983  0.4071  0.0173
  103RES   C13028894   0.761   0.892   1.329  0.0133 -0.0568  0.2536
  103RES   C13128895   0.642   0.939   1.250 -0.8841 -0.3393 -0.2404
  103RES   O13228896   0.597   1.062   1.307 -0.6060 -0.5061  0.7727
  103RES   C13328897   0.512   1.143   1.224  0.4159 -0.1416  0.5825
  103RES   H13428898   0.786   0.704   1.236  0.8788  1.6219 -0.2554
  103RES   H13528899   0.680   0.698   1.370  0.5509 -1.7272  1.3295
  103RES   H13628900   0.747   0.927   1.431 -0.3962  0.4786  0.0146
  103RES   H13728901   0.568   0.860   1.258 -0.3234 -0.6319  2.6421
  103RES   H13828902   0.672   0.936   1.145  0.8842  0.3113  0.2291
  103RES   H13928903   0.488   1.227   1.289  0.7541 -0.2920  0.8982
  103RES   H14028904   0.569   1.200   1.150  2.6337 -0.6848  1.8405
  103RES   H14128905   0.432   1.078   1.189 -0.5256  2.0749 -1.5930
  103RES   O14228906   0.880   0.943   1.273  0.2869  1.0184 -0.7846
  103RES   C14328907   0.967   0.995   1.373  0.4051 -0.8144  1.1018
  103RES   C14428908   1.093   1.042   1.310 -0.2662  0.4545  0.6373
  103RES   C14528909   1.213   1.042   1.404  0.0901 -0.3179 -0.4658
  103RES   O14628910   1.332   1.060   1.331  0.3035 -0.2989  0.3534
  103RES   C14728911   1.443   1.027   1.406  0.7770  0.1392 -0.4801
  103RES   H14828912   0.919   1.074   1.431 -1.2912 -0.4395 -0.7857
  103RES   H14928913   0.982   0.916   1.447  0.0092 -1.0447  0.9327
  103RES   H15028914   1.137   0.975   1.236  2.2165  2.5464  0.1582
  103RES   H15128915   1.214   0.951   1.464  0.3132  0.6741  1.0720
  103RES   H15228916   1.208   1.124   1.475 -1.0910  1.7404 -2.8665
  103RES   H15328917   1.456   1.071   1.505  1.2202 -2.8700  0.8698
  103RES   H15428918   1.535   1.041   1.349  0.6152  1.8687 -0.3297
  103RES   H15528919   1.437   0.918   1.412  3.4539 -0.0309 -0.2776
  103RES   O15628920   1.076   1.169   1.249  0.0893  0.6563 -0.6502
  103RES   C15728921   1.001   1.161   1.120 -0.1191  1.3082  0.1718
  103RES   C15828922   1.057   1.280   1.038  0.2072 -0.3559  0.1340
  103RES   C15928923   1.209   1.277   1.016 -0.0221  0.4463  0.5539
  103RES   O16028924   1.243   1.349   0.893  0.5149 -0.3601  0.3091
  103RES   C16128925   1.377   1.358   0.852 -0.0266 -0.3252 -0.4719
  103RES   H16228926   1.018   1.067   1.068 -0.0458  0.3738  1.8387
  103RES   H16328927   0.896   1.167   1.148 -0.3751 -0.2319 -0.4023
  103RES   H16428928   0.995   1.281   0.948 -0.0833  0.4232  0.3377
  103RES   H16528929   1.242   1.334   1.103  0.9572  0.9652 -0.1570
  103RES   H16628930   1.250   1.176   1.010 -1.0864 -0.0009  0.5848
  103RES   H16728931   1.429   1.367   0.947  1.2990 -0.5651 -1.1688
  103RES   H16828932   1.387   1.441   0.783  0.7556 -0.6398 -0.7479
  103RES   H16928933   1.405   1.265   0.802  1.4732 -0.6100  0.8500
  103RES   O17028934   1.030   1.404   1.105  0.0280 -0.1895  0.0626
  103RES   C17128935   1.014   1.516   1.021  0.3552 -0.5464  0.3641
  103RES   C17228936   0.939   1.639   1.085 -0.6116  0.2199  0.5038
  103RES   C17328937   0.902   1.743   0.974 -0.3345  0.5182 -0.4996
  103RES   O17428938   0.774   1.808   0.996 -0.2792  0.0280  0.2724
  103RES   C17528939   0.744   1.906   0.892  0.4419 -0.0453  0.7030
  103RES   H17628940   0.947   1.484   0.942 -0.2488  0.0859  0.6182
  103RES   H17728941   1.113   1.546   0.986  1.8974 -2.5286  2.8088
  103RES   H17828942   0.847   1.592   1.120  0.0417 -0.9219  0.6970
  103RES   H17928943   0.982   1.817   0.962 -0.0357  0.3767  0.6272
  103RES   H18028944   0.898   1.693   0.877 -2.2069 -0.1273 -0.0863
  103RES   H18128945   0.823   1.973   0.859  1.8624 -1.9508  0.1652
  103RES   H18228946   0.673   1.978   0.931 -0.6971 -1.2902  0.9684
  103RES   H18328947   0.698   1.861   0.803 -0.3657 -0.4413  1.3130
  103RES   O18428948   1.021   1.704   1.182  0.4752  0.1676 -0.5133
  103RES   C18528949   0.965   1.725   1.311 -0.1666  0.2107  0.1646
  103RES   C18628950   1.052   1.813   1.400  0.1499  0.1512  0.2552
  103RES   C18728951   0.977   1.840   1.525  0.5268 -0.4604 -0.3240
  103RES   O18828952   1.062   1.897   1.623  0.0156 -0.2262 -0.3146
  103RES   C18928953   0.998   1.945   1.745 -0.2203 -0.1071  0.8927
  103RES   H19028954   0.953   1.628   1.359  0.2646 -0.9013 -1.9020
  103RES   H19128955   0.865   1.765   1.297 -0.0914  0.6520  0.9093
  103RES   H19228956   1.146   1.759   1.408 -0.8140 -1.3101  1.8253
  103RES   H19328957   0.938   1.755   1.581  0.8720  0.4714  1.3755
  103RES   H19428958   0.891   1.904   1.505  1.5721  0.8292 -0.7981
  103RES   H19528959   1.064   1.985   1.822  1.8109 -0.4502 -0.6476
  103RES   H19628960   0.929   2.026   1.721  1.5343  1.2167  0.2052
  103RES   H19728961   0.946   1.861   1.791 -0.2325 -0.0068  1.0626
  103RES   O19828962   1.056   1.940   1.337 -0.8036 -0.0220  0.4711
  103RES   C19928963   1.174   2.019   1.350  0.0447 -0.6625  0.2379
  103RES   C20028964   1.254   2.022   1.218  0.2818 -0.2200 -0.2879
  103RES   C20128965   1.405   2.047   1.246  0.7726  0.2302  0.8444
  103RES   O20228966   1.478   2.008   1.132  0.5654 -0.2682 -0.0380
  103RES   C20328967   1.518   1.878   1.108 -0.5931  0.0339 -0.3001
  103RES   H20428968   1.242   1.982   1.427  2.4667  1.1108 -0.9909
  103RES   H20528969   1.154   2.122   1.380  1.0188 -0.9638  2.0311
  103RES   H20628970   1.241   1.922   1.179  1.3173 -0.5727  0.2385
  103RES   H20728971   1.431   2.150   1.268  0.2539  0.2716  1.2534
  103RES   H20828972   1.437   1.988   1.332  1.9903  0.3622  0.4918
  103RES   H20928973   1.590   1.880   1.026  0.3810 -2.8265  0.4324
  103RES   H21028974   1.432   1.817   1.080 -2.2597  2.5934 -0.9945
  103RES   H21128975   1.570   1.829   1.190 -0.2340 -1.9741 -1.6871
  103RES   O21228976   1.206   2.126   1.138 -0.2921 -0.2785  0.1744
  103RES   C21328977   1.067   2.113   1.098 -0.4851 -0.5728  0.1088
  103RES   C21428978   1.034   2.240   1.016  0.4652  0.1373 -0.1067
  103RES   C21528979   0.879   2.276   1.037 -0.0038  0.3686  0.5301
  103RES   O21628980   0.842   2.396   0.964  0.1193  0.2414  0.3977
  103RES   C21728981   0.710   2.423   0.977  0.2481  0.1931 -0.9149
  103RES   H21828982   1.002   2.105   1.184  0.6792  0.3572  1.0838
  103RES   H21928983   1.043   2.024   1.039 -1.5253  0.1273 -0.5457
  103RES   H22028984   1.093   2.327   1.046  0.6113 -0.4541  1.4090
  103RES   H22128985   0.829   2.190   0.993  2.2752 -0.6160 -0.1876
  103RES   H22228986   0.848   2.281   1.141  2.8818 -1.8329  1.5705
  103RES   H22328987   0.675   2.474   1.067  0.4555 -1.6720  0.2660
  103RES   H22428988   0.653   2.330   0.973  1.1288 -0.4182  0.4345
  103RES   H22528989   0.674   2.487   0.896  1.1719  1.6501 -0.1953
  103RES   O22628990   1.053   2.210   0.881  0.0933 -0.2898 -0.1828
  103RES   C22728991   1.178   2.254   0.838 -0.0451 -0.0112  0.2947
  103RES   C22828992   1.205   2.209   0.695 -0.2002 -0.5273 -0.1057
  103RES   C22928993   1.342   2.268   0.651  0.2253 -0.4641  0.2192
  103RES   O23028994   1.339   2.244   0.507 -0.7675 -0.3823  0.2418
  103RES   C23128995   1.470   2.236   0.462  0.0172  0.0786  0.6325
  103RES   H23228996   1.247   2.196   0.899 -0.2351 -2.5506 -1.7875
  103RES   H23328997   1.192   2.362   0.844 -1.7963  0.3728 -1.7983
  103RES   H23428998   1.129   2.254   0.631 -0.6982 -1.4531 -0.1710
  103RES   H23528999   1.424   2.222   0.706  0.2960 -0.4180  0.1526
  103RES   H23629000   1.341   2.376   0.670 -3.9588 -0.4383  0.4573
  103RES   H23729001   1.473   2.222   0.354 -0.5741  1.0021  0.4932
  103RES   H23829002   1.523   2.159   0.519  0.2870  0.6899  1.2311
  103RES   H23929003   1.525   2.328   0.484  0.2184  0.4867 -1.5450
  103RES   O24029004   1.198   2.071   0.664 -0.6122 -0.3429  0.5555
  103RES   C24129005   1.276   1.979   0.749 -0.4662  0.6963  0.5053
  103RES   C24229006   1.322   1.861   0.659  0.0660  0.0744  0.0341
  103RES   C24329007   1.421   1.762   0.729  0.1935 -0.3670  0.3110
  103RES   O24429008   1.486   1.674   0.648 -0.6203 -0.0615  0.6661
  103RES   C24529009   1.599   1.739   0.587 -0.1610 -0.7426  0.8698
  103RES   H24629010   1.221   1.932   0.830 -0.0138 -2.0953 -0.7581
  103RES   H24729011   1.365   2.032   0.781 -0.1604  0.4223  0.1105
  103RES   H24829012   1.370   1.899   0.569  0.7869  0.5700  0.6273
  103RES   H24929013   1.490   1.819   0.791  0.3100  0.7716 -0.8142
  103RES   H25029014   1.362   1.710   0.803 -0.4744 -2.8415 -1.8894
  103RES   H25129015   1.565   1.813   0.514 -0.9018 -1.3045  0.6294
  103RES   H25229016   1.652   1.670   0.520  1.8409  1.1297  0.4911
  103RES   H25329017   1.662   1.780   0.665 -0.9262  0.0828  1.0604
  103RES   O25429018   1.209   1.779   0.633 -0.0730 -0.3786 -0.1120
  103RES   C25529019   1.217   1.720   0.503  0.0256 -0.1387  0.6532
  103RES   C25629020   1.131   1.595   0.485 -0.4007  0.9673  0.5448
  103RES   C25729021   1.180   1.481   0.577  0.3019 -0.5883 -0.5469
  103RES   O25829022   1.124   1.359   0.536 -0.2130  0.1299 -0.7782
  103RES   C25929023   1.123   1.254   0.639  0.1186  0.3964  0.2503
  103RES   H26029024   1.188   1.795   0.430  1.6482 -0.1656 -0.0502
  103RES   H26129025   1.320   1.687   0.486  0.2285  1.1174 -0.6510
  103RES   H26229026   1.140   1.557   0.383 -1.0179  0.4653  0.6732
  103RES   H26329027   1.288   1.482   0.564  0.2497  0.8391 -0.9369
  103RES   H26429028   1.164   1.496   0.684 -1.5010 -1.5414 -0.6654
  103RES   H26529029   1.075   1.165   0.598 -3.5670  1.1985  2.5760
  103RES   H26629030   1.064   1.265   0.730 -0.6260 -0.3055 -0.1479
  103RES   H26729031   1.223   1.222   0.667  0.9659 -0.0911 -3.1416
  103RES   O26829032   0.997   1.631   0.529 -0.1997 -0.7429  0.7834
  103RES   C26929033   0.893   1.539   0.502 -0.2352 -1.3066 -0.2039
  103RES   C27029034   0.780   1.622   0.453 -0.2634 -0.0512 -0.2964
  103RES   C27129035   0.727   1.726   0.549 -0.8870 -0.3077  0.5264
  103RES   O27229036   0.603   1.681   0.588  0.2213 -0.3489  0.2219
  103RES   C27329037   0.608   1.595   0.707 -0.4713  0.4236  0.0660
  103RES   H27429038   0.878   1.490   0.598 -0.3941 -0.5178  0.1781
  103RES   H27529039   0.927   1.470   0.424  4.1279  0.4444  0.0197
  103RES   H27629040   0.807   1.669   0.359  1.5730  2.5865  1.4594
  103RES   H27729041   0.715   1.830   0.517  1.6918 -0.0481  0.2771
  103RES   H27829042   0.800   1.736   0.629  1.3893  1.1498 -1.6335
  103RES   H27929043   0.656   1.643   0.792 -0.1996  0.4937 -0.1270
  103RES   H28029044   0.667   1.507   0.680 -0.3924  0.2594  0.7498
  103RES   H28129045   0.506   1.568   0.735 -0.5016  1.0815  0.6133
  103RES   H28229046   0.705   1.555   0.412 -2.9113  1.4573  1.8747
  104RES     O129047   7.528   7.222   6.600 -0.0329  0.4434  0.3334
  104RES     C229048   7.586   7.319   6.684  0.2194  0.4756 -0.6841
  104RES     C329049   7.584   7.279   6.830  0.4217  0.6379 -0.5186
  104RES     C429050   7.435   7.247   6.864 -0.3752  0.0635 -0.0019
  104RES     O529051   7.409   7.253   7.005 -0.2370 -0.2823  0.5148
  104RES     C629052   7.273   7.255   7.035 -0.0161 -0.0284 -0.2292
  104RES     H729053   7.692   7.331   6.659  0.5243 -0.2414  0.2479
  104RES     H829054   7.539   7.416   6.666  0.5905  1.0811  1.4456
  104RES     H929055   7.631   7.363   6.882 -0.9793  0.6066  0.8645
  104RES    H1029056   7.401   7.154   6.820 -1.1065  0.0819  0.5296
  104RES    H1129057   7.376   7.329   6.822  1.7809  2.1081  0.8555
  104RES    H1229058   7.214   7.321   6.971 -0.3188 -0.4601 -0.3959
  104RES    H1329059   7.241   7.152   7.022  1.7605 -0.4084 -1.8114
  104RES    H1429060   7.244   7.292   7.134 -1.5905 -1.2508 -0.2200
  104RES    H1529061   7.574   7.143   6.625 -1.8056 -0.4385  0.9344
  104RES    O1629062   7.661   7.160   6.849 -0.7186 -0.2491  0.1462
  104RES    C1729063   7.699   7.136   6.984  0.3068  0.1487 -0.2013
  104RES    C1829064   7.790   7.017   6.973  0.0034 -0.1536  0.1448
  104RES    C1929065   0.028   6.976   7.112  0.0728 -0.1705  0.0951
  104RES    O2029066   0.141   6.892   7.097 -0.1214 -0.3594  0.4357
  104RES    C2129067   0.202   6.853   7.218 -0.5769  0.4157  0.7715
  104RES    H2229068   7.625   7.124   7.063 -0.3210 -0.4377 -0.8703
  104RES    H2329069   7.744   7.227   7.023 -1.4868  0.6042  0.8789
  104RES    H2429070   0.049   7.039   6.899 -1.6015  0.5487 -1.3382
  104RES    H2529071   0.047   7.059   7.181  1.2429 -0.5816  0.2652
  104RES    H2629072   7.767   6.919   7.163 -1.7924  0.7146 -1.7125
  104RES    H2729073   0.292   6.795   7.197 -1.2115 -0.9127  1.6712
  104RES    H2829074   0.128   6.803   7.280  2.0330 -1.4075  2.5489
  104RES    H2929075   0.250   6.944   7.254  0.2237 -0.7755  2.7678
  104RES    O3029076   7.709   6.912   6.926  0.0485  0.0621  0.2203
  104RES    C3129077   7.768   6.805   6.858  0.1702  0.4352 -0.5662
  104RES    C3229078   7.655   6.715   6.800 -0.3561 -0.4192  0.3383
  104RES    C3329079   7.579   6.777   6.694  0.0857 -0.2385 -0.0700
  104RES    O3429080   7.518   6.684   6.607 -0.2565  0.0900  0.1453
  104RES    C3529081   7.431   6.746   6.511 -0.5360 -0.5666  0.4801
  104RES    H3629082   0.010   6.843   6.774 -0.9127  1.0100 -1.0703
  104RES    H3729083   0.012   6.747   6.927  0.9518 -1.0800 -2.4831
  104RES    H3829084   7.693   6.627   6.749 -2.2122 -0.6573 -0.6750
  104RES    H3929085   7.647   6.837   6.634 -1.3615 -0.5648 -2.0674
  104RES    H4029086   7.509   6.852   6.733  0.5691 -0.6496  1.6266
  104RES    H4129087   7.378   6.666   6.458  0.4699 -1.9699  1.5486
  104RES    H4229088   7.489   6.800   6.437  1.8550 -3.7186 -0.0622
  104RES    H4329089   7.362   6.821   6.550 -1.6262 -0.5648 -1.3784
  104RES    O4429090   7.564   6.677   6.904  0.2641 -0.0619  1.0248
  104RES    C4529091   7.598   6.555   6.972 -0.0001 -0.0127  0.1865
  104RES    C4629092   7.534   6.569   7.114  0.1692 -0.3325  0.8118
  104RES    C4729093   7.560   6.452   7.214 -0.2681 -0.2517  0.7639
  104RES    O4829094   7.690   6.397   7.207 -0.2732  0.2258 -0.0881
  104RES    C4929095   7.794   6.481   7.252 -0.6142  0.3078 -0.2576
  104RES    H5029096   7.707   6.548   6.974  0.1445 -0.4239 -4.3933
  104RES    H5129097   7.576   6.466   6.913 -3.1491 -0.3866  1.8147
  104RES    H5229098   7.428   6.581   7.090  0.5747  1.8233  0.0372
  104RES    H5329099   7.539   6.481   7.317  2.2306  0.3197  1.1575
  104RES    H5429100   7.498   6.374   7.171  1.7636 -0.4598 -1.8994
  104RES    H5529101   0.066   6.427   7.284 -1.4459 -2.1034 -1.8195
  104RES    H5629102   7.756   6.526   7.343  0.4838 -0.5768  0.6593
  104RES    H5729103   0.006   6.558   7.180 -1.8961  0.4327 -0.6475
  104RES    O5829104   7.594   6.696   7.158  0.5872  0.4001 -0.7336
  104RES    C5929105   7.514   6.762   7.254  0.1714  0.3646  0.6960
  104RES    C6029106   7.431   6.876   7.183 -0.3203  0.0585  0.1201
  104RES    C6129107   7.423   7.002   7.263  0.2701  0.6679 -0.4907
  104RES    O6229108   7.375   6.968   7.392 -0.4705  0.5602  0.6063
  104RES    C6329109   7.236   6.959   7.404 -0.0188 -0.0277 -0.2791
  104RES    H6429110   7.578   6.800   7.334 -0.6644  0.6736  1.2247
  104RES    H6529111   7.447   6.697   7.311  0.4519  0.9756  1.7480
  104RES    H6629112   7.485   6.899   7.091 -1.8784  2.5570 -0.2069
  104RES    H6729113   7.524   7.039   7.282  0.8657 -2.0649  2.0998
  104RES    H6829114   7.363   7.079   7.215 -0.1508  0.9884  0.5282
  104RES    H6929115   7.214   6.954   7.511 -1.2597  1.0201 -0.4712
  104RES    H7029116   7.185   6.876   7.355 -0.8446 -0.6879  1.6648
  104RES    H7129117   7.185   7.049   7.368  0.1818 -0.2717 -1.1730
  104RES    O7229118   7.304   6.833   7.142 -0.0268  0.2092 -0.0906
  104RES    C7329119   7.273   6.829   6.998  0.1745 -0.2689  0.3272
  104RES    C7429120   7.134   6.781   6.948 -0.0782  0.6361  0.3083
  104RES    C7529121   7.127   6.747   6.795  0.3341 -0.3019 -1.1722
  104RES    O7629122   6.998   6.728   6.749  0.5480  0.2513  0.2176
  104RES    C7729123   6.993   6.696   6.614 -0.1328  0.1502 -0.5787
  104RES    H7829124   7.302   6.926   6.957  1.3875 -0.6277  0.3265
  104RES    H7929125   7.347   6.761   6.956  0.2139  0.3412 -0.6069
  104RES    H8029126   7.109   6.694   7.008 -0.8969  0.7649  0.1586
  104RES    H8129127   7.197   6.671   6.760  0.0237 -0.5054 -1.3414
  104RES    H8229128   7.163   6.836   6.743  0.5899  0.2211 -0.1187
  104RES    H8329129   7.060   6.752   6.549  0.5127  2.2538  1.8460
  104RES    H8429130   6.889   6.714   6.586 -0.4315 -0.6862 -0.0360
  104RES    H8529131   7.025   6.592   6.605  0.8828  0.5503 -1.7591
  104RES    O8629132   7.030   6.881   6.958 -0.1480  0.3083  0.0060
  104RES    C8729133   6.980   6.907   7.082  0.2764 -0.2804  0.4190
  104RES    C8829134   6.848   6.985   7.064  0.8485  0.8876 -0.1673
  104RES    C8929135   6.773   6.995   7.194 -0.1926 -0.4761 -0.4396
  104RES    O9029136   6.834   7.085   7.290  0.5509 -0.0480  0.9760
  104RES    C9129137   6.742   7.121   7.393 -0.1407  0.0503 -0.3532
  104RES    H9229138   6.941   6.812   7.118 -1.6628  0.5938  0.7059
  104RES    H9329139   7.054   6.955   7.146  0.4829  1.6578 -1.2225
  104RES    H9429140   6.788   6.935   6.988 -0.5821  0.3636  1.3161
  104RES    H9529141   6.679   7.043   7.166 -1.0228 -1.8820 -0.1380
  104RES    H9629142   6.751   6.893   7.227  2.8002 -1.2361 -0.6314
  104RES    H9729143   6.779   7.212   7.442 -1.0283  0.2241  0.0113
  104RES    H9829144   6.638   7.141   7.365 -1.2553 -1.8980  2.1649
  104RES    H9929145   6.732   7.052   7.477 -0.7660  1.0428  0.4140
  104RES   O10029146   6.865   7.118   7.019  0.2372  0.1929 -0.2825
  104RES   C10129147   6.893   7.152   6.887  0.0474 -0.7822  0.2317
  104RES   C10229148   6.881   7.309   6.863  0.4721  0.0164 -0.2533
  104RES   C10329149   6.738   7.366   6.866 -0.5529  0.1603 -0.7999
  104RES   O10429150   6.750   7.502   6.892  0.8081  0.2945  0.1146
  104RES   C10529151   6.624   7.558   6.904 -0.0686 -0.3885  0.4970
  104RES   H10629152   6.838   7.094   6.813  0.3718  1.4472 -1.8130
  104RES   H10729153   6.997   7.124   6.875  0.4510  0.8792 -0.3513
  104RES   H10829154   6.941   7.351   6.943  0.2311  2.9592 -1.5516
  104RES   H10929155   6.681   7.309   6.939 -0.2475  1.8880  0.8208
  104RES   H11029156   6.707   7.348   6.763  0.0285  1.8348 -1.2877
  104RES   H11129157   6.640   7.660   6.869 -1.4447 -0.0480  0.8718
  104RES   H11229158   6.600   7.549   7.010  1.3171  3.6638  1.2229
  104RES   H11329159   6.550   7.516   6.836 -0.9925  2.4043 -0.2870
  104RES   O11429160   6.930   7.353   6.742  0.7041 -0.2071 -0.5697
  104RES   C11529161   7.070   7.388   6.736  0.3276  0.3698 -0.1878
  104RES   C11629162   7.098   7.468   6.611  0.1232 -0.1265  0.5677
  104RES   C11729163   7.251   7.469   6.575  0.1125  0.0781  0.7188
  104RES   O11829164   7.274   7.598   6.517 -0.3423 -0.1114 -0.3879
  104RES   C11929165   7.388   7.612   6.432 -0.1699  0.7279 -0.7695
  104RES   H12029166   7.101   7.453   6.818 -0.2852  0.4634 -0.0322
  104RES   H12129167   7.131   7.298   6.740  0.0957  0.1037 -2.3051
  104RES   H12229168   7.064   7.571   6.624 -0.6397  0.0560 -2.5272
  104RES   H12329169   7.315   7.460   6.663  0.4357  0.0408  0.4806
  104RES   H12429170   7.285   7.394   6.504 -1.0591 -0.3125  0.5574
  104RES   H12529171   7.465   7.547   6.472  0.2486  0.6366 -1.7054
  104RES   H12629172   7.415   7.718   6.429  0.9742  0.5359  1.5630
  104RES   H12729173   7.372   7.577   6.330  2.0603 -2.8648  0.0220
  104RES   O12829174   7.017   7.414   6.505 -0.3958  0.2567  0.0524
  104RES   C12929175   7.003   7.490   6.388  0.1526  0.3162 -0.3607
  104RES   C13029176   6.913   7.427   6.280 -0.4511 -0.0586 -0.0164
  104RES   C13129177   6.958   7.490   6.137  0.0058  0.0351 -0.1654
  104RES   O13229178   6.924   7.420   6.023  0.4886 -0.2325  0.3507
  104RES   C13329179   6.977   7.479   5.903 -0.6430  0.1937 -0.2331
  104RES   H13429180   6.969   7.593   6.393 -1.8382 -0.4054  1.6834
  104RES   H13529181   7.100   7.493   6.338  0.8300 -2.1724  0.7453
  104RES   H13629182   6.938   7.322   6.268 -1.3030 -0.2067 -0.5013
  104RES   H13729183   7.064   7.514   6.131  0.3208 -1.2886 -0.0541
  104RES   H13829184   6.908   7.587   6.139  0.6637  0.3569  0.7013
  104RES   H13929185   6.979   7.588   5.906 -1.4397  0.1766  2.2670
  104RES   H14029186   7.073   7.440   5.869 -1.0355  0.5520 -1.7632
  104RES   H14129187   6.926   7.456   5.809  0.6187 -1.8096 -0.4604
  104RES   O14229188   6.779   7.455   6.313  0.2390 -0.1379 -0.2455
  104RES   C14329189   6.681   7.384   6.232  0.5152  0.5209  0.5004
  104RES   C14429190   6.544   7.451   6.255  0.2985 -0.1024 -0.3350
  104RES   C14529191   6.426   7.359   6.220  0.4236 -0.5685 -0.4348
  104RES   O14629192   6.310   7.429   6.276 -0.0719 -0.0732  0.4025
  104RES   C14729193   6.184   7.375   6.247  0.1463  0.5826  0.6304
  104RES   H14829194   6.716   7.382   6.128  0.6061  0.8828  0.5245
  104RES   H14929195   6.695   7.279   6.257 -1.5751  0.6099  2.1431
  104RES   H15029196   6.538   7.481   6.359  0.4290 -0.7760 -0.1339
  104RES   H15129197   6.435   7.257   6.258  0.0752 -0.6519 -0.5728
  104RES   H15229198   6.417   7.362   6.111  1.5594 -2.4046 -0.6082
  104RES   H15329199   6.193   7.350   6.141 -1.8293 -0.2328  0.6518
  104RES   H15429200   6.096   7.439   6.255  0.3542  0.7430  1.6597
  104RES   H15529201   6.176   7.286   6.309 -2.2398 -1.0726 -1.9273
  104RES   O15629202   6.530   7.562   6.165  0.7661  0.1822  0.5187
  104RES   C15729203   6.593   7.678   6.204  0.0672  0.1221  0.5225
  104RES   C15829204   6.611   7.781   6.091  0.1569  0.1891  0.0432
  104RES   C15929205   6.748   0.039   6.082 -0.0933 -0.3785  0.2609
  104RES   O16029206   6.842   7.795   5.990  0.3763 -0.4992  0.2435
  104RES   C16129207   6.934   0.067   5.936 -0.4150  0.3634 -0.0157
  104RES   H16229208   6.524   7.722   6.275  0.4038 -1.2325  1.6935
  104RES   H16329209   6.687   7.658   6.255 -0.8313 -0.1198  2.1179
  104RES   H16429210   6.614   7.720   6.001 -1.1072  0.1002  0.0610
  104RES   H16529211   6.746   0.148   6.076 -1.6145 -0.5037 -2.1461
  104RES   H16629212   6.797   0.034   6.180  0.7578  1.4256 -0.0392
  104RES   H16729213   7.001   0.015   5.867  0.8797  1.7521  0.1806
  104RES   H16829214   7.000   0.103   6.014 -0.5460  0.2893  0.1275
  104RES   H16929215   6.909   0.152   5.872  1.0784  0.3088 -0.6805
  104RES   O17029216   6.513   0.070   6.080 -0.6838  0.1808  0.7230
  104RES   C17129217   6.481   0.115   5.947  0.6544  0.4401 -0.4872
  104RES   C17229218   6.348   0.198   5.952 -0.2817 -0.2118 -0.1943
  104RES   C17329219   6.336   0.319   6.058  0.3798 -0.0946 -0.2192
  104RES   O17429220   6.266   0.425   6.001 -0.0954 -0.1952  0.3759
  104RES   C17529221   6.191   0.509   6.091 -0.4106 -0.3325 -0.8635
  104RES   H17629222   6.463   0.026   5.887 -2.5455  0.8034 -0.1435
  104RES   H17729223   6.565   0.171   5.907  0.7217  1.3293  0.8679
  104RES   H17829224   6.344   0.246   5.855 -1.2575 -1.9284 -1.0275
  104RES   H17929225   6.303   0.283   6.155 -0.2881  0.7873 -0.1139
  104RES   H18029226   6.439   0.355   6.068  0.8945 -1.8209  0.7633
  104RES   H18129227   6.112   0.451   6.137 -1.3035  0.6200 -1.1606
  104RES   H18229228   6.155   0.600   6.042  1.0179  0.0474 -1.2499
  104RES   H18329229   6.244   0.540   6.181 -1.6836 -1.1755  0.1803
  104RES   O18429230   6.245   0.116   5.967  0.4673  0.3364 -0.2346
  104RES   C18529231   6.115   0.162   5.935  0.0847 -0.1945  0.5645
  104RES   C18629232   6.021   0.066   6.010 -0.3523  0.7590 -0.3868
  104RES   C18729233   5.877   0.117   5.987 -0.2174 -0.2774 -0.2172
  104RES   O18829234   5.789   0.007   5.981  0.3880 -0.3082  0.2714
  104RES   C18929235   5.661   0.051   5.998  0.7080 -0.4261 -0.5370
  104RES   H19029236   6.105   0.169   5.827 -1.4265  1.3160  0.7804
  104RES   H19129237   6.091   0.259   5.978 -0.4618  0.3762 -1.0092
  104RES   H19229238   6.033   7.784   5.965  1.0083  0.8587 -0.2682
  104RES   H19329239   5.878   0.176   5.895  1.8272 -0.9820 -0.6729
  104RES   H19429240   5.849   0.185   6.068  0.5408 -0.1863 -0.0275
  104RES   H19529241   5.586   7.789   6.000  0.2085  0.0391 -0.7275
  104RES   H19629242   5.644   0.111   6.088  0.3081 -0.4241 -0.6123
  104RES   H19729243   5.643   0.122   5.918  0.5931 -0.0254 -0.1599
  104RES   O19829244   6.056   0.074   6.150 -0.4052 -0.7953  0.2524
  104RES   C19929245   6.083   7.769   6.212  0.8449  0.2246  0.4144
  104RES   C20029246   6.120   7.815   6.362 -0.6254  0.0038 -0.0051
  104RES   C20129247   6.194   7.704   6.424 -1.0461 -0.1167 -0.1862
  104RES   O20229248   6.234   7.736   6.557 -0.6167  0.4024 -0.1023
  104RES   C20329249   6.348   7.664   6.597 -0.3365  0.3083 -1.0877
  104RES   H20429250   6.158   7.712   6.158 -0.2153  0.6608 -1.5866
  104RES   H20529251   5.992   7.708   6.215  1.9599 -1.5330 -0.6723
  104RES   H20629252   6.178   0.088   6.378 -0.6617 -0.1673  1.1399
  104RES   H20729253   6.139   7.612   6.440 -2.0632  0.3785 -0.7695
  104RES   H20829254   6.279   7.684   6.358 -0.1249 -1.1455  1.2931
  104RES   H20929255   6.341   7.561   6.561 -1.2281  0.5159 -1.5320
  104RES   H21029256   6.362   7.674   6.705  1.4380 -1.5879 -1.1122
  104RES   H21129257   6.428   7.723   6.553 -2.8387  2.1058 -3.4057
  104RES   O21229258   5.995   0.016   6.438 -0.6067  0.0092  0.0832
  104RES   C21329259   5.926   0.141   6.423  0.2332  0.7645 -0.4282
  104RES   C21429260   5.995   0.264   6.495  0.1134  0.1871 -0.6276
  104RES   C21529261   6.072   0.212   6.621  0.0050 -0.1640 -0.6830
  104RES   O21629262   6.151   0.323   6.666 -0.3297 -0.8052 -0.0160
  104RES   C21729263   6.234   0.283   6.780 -0.2893  0.2518 -0.1570
  104RES   H21829264   5.828   0.129   6.470  0.5901 -1.5080 -0.2168
  104RES   H21929265   5.906   0.152   6.316 -2.3786 -0.9368 -0.1652
  104RES   H22029266   6.063   0.316   6.427 -0.7349  1.6156 -0.4154
  104RES   H22129267   6.008   0.175   6.702  2.3559  0.0762  1.3263
  104RES   H22229268   6.136   0.125   6.610  2.2861  1.3153  0.4016
  104RES   H22329269   6.300   0.368   6.798 -0.0094  0.5638 -2.4269
  104RES   H22429270   6.292   0.196   6.749  3.5293  3.4191 -2.5755
  104RES   H22529271   6.182   0.261   6.873 -2.4663  1.0634 -1.1585
  104RES   O22629272   5.884   0.329   6.548 -0.0095 -0.3802 -0.5018
  104RES   C22729273   5.842   0.447   6.473  0.5854  0.6027 -1.4300
  104RES   C22829274   5.936   0.574   6.465  0.6554 -0.1942  0.9188
  104RES   C22929275   5.898   0.660   6.340  0.1065  0.1074  0.0066
  104RES   O23029276   5.918   0.586   6.220  0.0434 -0.0536  0.1647
  104RES   C23129277   5.864   0.659   6.108 -0.0720  0.1142  0.4861
  104RES   H23229278   5.758   0.489   6.530  0.4242 -0.1269 -1.1268
  104RES   H23329279   5.813   0.403   6.378  0.6134  0.8712 -1.5641
  104RES   H23429280   6.036   0.537   6.444 -0.0503 -2.1224  0.8554
  104RES   H23529281   5.967   0.744   6.340  0.1779  0.0648 -1.7616
  104RES   H23629282   5.795   0.695   6.347  0.5887  1.3117  1.2230
  104RES   H23729283   5.906   0.609   6.021 -1.3489 -0.2767  0.0706
  104RES   H23829284   5.897   0.763   6.108 -0.9040  0.3838  1.3247
  104RES   H23929285   5.755   0.653   6.102  0.0195 -1.4207  0.2845
  104RES   O24029286   5.915   0.656   6.582 -0.2429 -0.8228 -0.2603
  104RES   C24129287   5.971   0.630   6.705  0.7253 -0.2126 -0.2354
  104RES   C24229288   5.869   0.573   6.805 -0.8776  0.6716  0.4276
  104RES   C24329289   5.940   0.467   6.895 -0.1278 -0.3301 -0.3466
  104RES   O24429290   6.063   0.511   6.957  0.1220  0.4531 -0.0091
  104RES   C24529291   6.044   0.589   7.082  0.1812 -0.6904  0.3896
  104RES   H24629292   6.004   0.730   6.734 -0.7134  0.6324 -1.3979
  104RES   H24729293   6.057   0.564   6.695  2.0131  1.1545  1.4926
  104RES   H24829294   5.791   0.517   6.753  0.5926 -2.1421  1.1439
  104RES   H24929295   5.872   0.433   6.972 -1.3101 -1.6837 -1.9347
  104RES   H25029296   5.947   0.369   6.847 -0.4106 -0.9150  0.7892
  104RES   H25129297   6.007   0.531   7.166  1.2289 -2.3054 -0.2616
  104RES   H25229298   5.969   0.667   7.068  2.1503  1.0385 -0.8414
  104RES   H25329299   6.138   0.638   7.107  1.3540 -2.8271  0.2133
  104RES   O25429300   5.825   0.673   6.882  0.1310  0.2878  0.1364
  104RES   C25529301   5.693   0.703   6.855  0.3775  0.1687 -0.4124
  104RES   C25629302   5.628   0.817   6.942 -0.5140 -0.2610 -0.1261
  104RES   C25729303   5.683   0.817   7.089 -0.1546 -0.0022 -0.3491
  104RES   O25829304   5.603   0.907   7.166  0.7092  0.1775  0.0538
  104RES   C25929305   5.587   0.873   7.297 -0.6318  0.7869 -0.1855
  104RES   H26029306   5.682   0.714   6.747 -0.3114  1.1352 -0.2477
  104RES   H26129307   5.639   0.609   6.866 -1.5204  1.3907  1.0966
  104RES   H26229308   5.520   0.805   6.949 -0.5208 -1.3494 -1.8296
  104RES   H26329309   5.656   0.718   7.126  1.4103 -0.7282 -1.0626
  104RES   H26429310   5.787   0.846   7.105 -1.1117  2.4658  1.6679
  104RES   H26529311   5.541   0.775   7.301  1.7200 -0.3437 -0.1965
  104RES   H26629312   5.516   0.950   7.331 -0.3323  0.4222  1.3009
  104RES   H26729313   5.675   0.894   7.358  0.3362 -1.0400 -0.9349
  104RES   O26829314   5.649   0.942   6.876 -0.2523 -0.6539 -0.1239
  104RES   C26929315   5.561   0.964   6.762  0.9242 -0.1272 -1.0893
  104RES   C27029316   5.588   1.108   6.716  0.1275  0.0307  0.2620
  104RES   C27129317   5.501   1.140   6.592 -0.5362 -0.1947  0.2499
  104RES   O27229318   5.534   1.280   6.554 -0.0448  0.3202  0.2201
  104RES   C27329319   5.468   1.320   6.440 -0.0038  0.2803 -0.3236
  104RES   H27429320   5.457   0.945   6.787  0.7491  0.9648 -0.9515
  104RES   H27529321   5.599   0.890   6.691  2.1495 -1.1781  0.6277
  104RES   H27629322   5.559   1.175   6.797  0.6184  0.5024  0.0521
  104RES   H27729323   5.395   1.122   6.607 -0.8810  0.4265 -1.3870
  104RES   H27829324   5.544   1.082   6.510 -1.2275  2.0161 -1.7300
  104RES   H27929325   5.475   1.424   6.409  0.9395  0.0665 -0.8351
  104RES   H28029326   5.362   1.300   6.456  0.5634 -1.7667  1.1566
  104RES   H28129327   5.502   1.266   6.352  1.8390 -1.5617  1.4544
  104RES   H28229328   5.696   1.122   6.711  0.3675 -2.1540 -1.1187
  105RES     O129329   6.482   6.841   7.159 -0.6919 -0.5256 -0.2257
  105RES     C229330   6.403   6.749   7.226 -0.4359 -1.1004 -0.1065
  105RES     C329331   6.354   6.631   7.143  0.3613  0.3045 -0.3837
  105RES     C429332   6.282   6.524   7.221  0.5373  0.1493 -0.6642
  105RES     O529333   6.265   6.409   7.144 -0.5534 -0.2315  0.2461
  105RES     C629334   6.181   6.305   7.205  0.2758  0.3750  0.8306
  105RES     H729335   6.440   6.718   7.324  2.0595 -2.3172 -1.4224
  105RES     H829336   6.316   6.805   7.261 -0.0691  0.6142 -1.8673
  105RES     H929337   6.437   6.580   7.092  0.4320  0.0332  0.0044
  105RES    H1029338   6.187   6.548   7.268  0.2848 -0.1919 -0.9983
  105RES    H1129339   6.350   6.487   7.297  0.3960  2.7528  0.7967
  105RES    H1229340   6.078   6.337   7.189  0.3347 -0.6813 -1.9295
  105RES    H1329341   6.191   6.213   7.146  1.2295  0.2146  1.2241
  105RES    H1429342   6.221   6.293   7.306  0.4017  1.1486  0.8702
  105RES    H1529343   6.432   6.902   7.107  0.5724 -0.0915 -0.9480
  105RES    O1629344   6.264   6.691   7.049  0.0951  0.3601 -0.4602
  105RES    C1729345   6.248   6.629   6.920  0.7478  0.5664 -0.2799
  105RES    C1829346   6.173   6.725   6.822  0.7516 -0.3963  0.0141
  105RES    C1929347   6.161   6.644   6.688 -0.3464  0.5298  1.1672
  105RES    O2029348   6.118   6.701   6.564 -0.3820 -0.0033  0.1473
  105RES    C2129349   6.180   6.825   6.539  0.0904 -0.0038 -0.4749
  105RES    H2229350   6.197   6.534   6.935  0.4504  0.7938  0.1869
  105RES    H2329351   6.345   6.617   6.871 -0.3141  0.3418 -2.3687
  105RES    H2429352   6.242   6.807   6.804  0.2970  0.0619  0.3457
  105RES    H2529353   6.260   6.605   6.668 -1.0581 -0.8466  0.2765
  105RES    H2629354   6.098   6.555   6.697  0.5001 -0.3005 -0.9371
  105RES    H2729355   6.287   6.822   6.556  0.3691 -0.4806 -2.1287
  105RES    H2829356   6.130   6.918   6.568  2.4149  1.2746 -0.5039
  105RES    H2929357   6.181   6.836   6.430  2.0596 -0.5109 -0.5205
  105RES    O3029358   6.043   6.738   6.876  0.4471  0.5275 -0.4391
  105RES    C3129359   5.946   6.819   6.812 -0.1872 -0.0668  0.0697
  105RES    C3229360   5.923   6.945   6.886 -0.0842 -0.3477  0.7531
  105RES    C3329361   5.818   7.035   6.813  0.6875  1.0460 -0.3808
  105RES    O3429362   5.785   7.154   6.881  0.0543 -0.1745 -0.5300
  105RES    C3529363   5.698   7.242   6.810 -0.1758 -0.2831  0.5717
  105RES    H3629364   5.952   6.846   6.706  2.4262  0.6953  0.3801
  105RES    H3729365   5.851   6.765   6.820 -0.3561  0.2858  0.4610
  105RES    H3829366   5.889   6.918   6.986  1.2600 -0.8871  1.0809
  105RES    H3929367   5.730   6.974   6.795 -0.4444  2.7685 -0.8128
  105RES    H4029368   5.840   7.048   6.708 -0.7069  1.1474 -0.6717
  105RES    H4129369   5.748   7.266   6.716 -1.8305 -1.5758 -0.6605
  105RES    H4229370   5.675   7.330   6.870 -1.7101 -1.3287  1.5410
  105RES    H4329371   5.603   7.192   6.795 -0.9283  0.6498  2.1001
  105RES    O4429372   6.039   7.025   6.886  0.1356  0.2855  0.0798
  105RES    C4529373   6.116   7.017   6.998 -0.8100 -0.5904  0.4049
  105RES    C4629374   6.225   7.126   6.997 -0.3717  0.1304  0.1689
  105RES    C4729375   6.269   7.160   7.133  0.2821  0.6254 -0.8797
  105RES    O4829376   6.336   7.279   7.117 -0.2549 -0.1592 -0.1614
  105RES    C4929377   6.321   7.361   7.236  0.9801 -0.3994 -0.0122
  105RES    H5029378   6.162   6.920   7.020 -0.9502 -0.1644  2.6128
  105RES    H5129379   6.054   7.032   7.086  1.0862 -0.7832  1.8209
  105RES    H5229380   6.190   7.225   6.967 -0.1601  0.2673  0.3682
  105RES    H5329381   6.184   7.172   7.200  1.1890  0.2065  0.3740
  105RES    H5429382   6.331   7.081   7.177 -0.1277  0.1467 -1.1556
  105RES    H5529383   6.215   7.386   7.243  0.7552 -1.7598  1.8219
  105RES    H5629384   6.365   7.459   7.214 -0.1869  0.2022  0.2988
  105RES    H5729385   6.364   7.307   7.321  1.1433  1.1114  0.8884
  105RES    O5829386   6.337   7.086   6.915 -0.3621 -0.4098 -0.5802
  105RES    C5929387   6.340   7.131   6.777 -0.4007 -0.1096  0.2423
  105RES    C6029388   6.474   7.108   6.709  0.2980  0.0129 -0.1423
  105RES    C6129389   6.472   7.178   6.573 -0.1665 -0.5454  0.0728
  105RES    O6229390   6.584   7.140   6.495  0.0498  0.1685  0.3042
  105RES    C6329391   6.703   7.200   6.536 -0.1516 -0.2997  0.0982
  105RES    H6429392   6.314   7.237   6.776  1.8414  0.4836  0.5717
  105RES    H6529393   6.263   7.082   6.718  1.0184 -1.9281 -0.1672
  105RES    H6629394   6.551   7.136   6.781 -0.3630  1.2557  0.0822
  105RES    H6729395   6.380   7.150   6.520  0.1789  0.9702 -1.3642
  105RES    H6829396   6.473   7.286   6.582 -1.0981 -0.4847 -0.4818
  105RES    H6929397   6.702   7.309   6.545  0.9303 -0.2207 -0.6247
  105RES    H7029398   6.785   7.188   6.465  0.0325  0.9275  0.0938
  105RES    H7129399   6.736   7.166   6.634  0.7313  0.6100  0.1331
  105RES    O7229400   6.471   6.969   6.678  0.1203 -0.1680 -0.6612
  105RES    C7329401   6.571   6.896   6.755 -0.1250  0.5097  0.1137
  105RES    C7429402   6.544   6.749   6.725  0.7550  0.9903  0.2709
  105RES    C7529403   6.625   6.651   6.812  0.0936  0.5377  0.5751
  105RES    O7629404   6.561   6.521   6.808 -0.0572 -0.2669 -0.3176
  105RES    C7729405   6.622   6.414   6.881  0.4089  0.5038 -0.7971
  105RES    H7829406   6.670   6.919   6.718 -0.4400 -0.3883 -1.3429
  105RES    H7929407   6.569   6.918   6.862 -2.5577 -1.5036  0.5575
  105RES    H8029408   6.435   6.740   6.735  1.0014 -1.4192  1.0183
  105RES    H8129409   6.627   6.680   6.918 -0.0436  2.1328  0.1647
  105RES    H8229410   6.727   6.651   6.776  0.3468  1.3777  1.2566
  105RES    H8329411   6.618   6.431   6.989  0.6613  0.8992 -0.8459
  105RES    H8429412   6.725   6.399   6.848  0.7596 -0.2818  0.6330
  105RES    H8529413   6.573   6.320   6.857  0.6794  0.6422 -1.8862
  105RES    O8629414   6.586   6.733   6.596  0.2725  0.0158  0.5021
  105RES    C8729415   6.524   6.640   6.513  0.0318 -0.0267 -0.1518
  105RES    C8829416   6.603   6.652   6.378 -0.1155 -0.0634 -0.3352
  105RES    C8929417   6.591   6.525   6.287  0.1648 -0.0603 -0.1948
  105RES    O9029418   6.702   6.502   6.210  0.0382  0.5733 -0.4733
  105RES    C9129419   6.694   6.571   6.083  0.0392 -0.5485 -0.2841
  105RES    H9229420   6.545   6.544   6.560  2.1404 -0.9774 -2.8506
  105RES    H9329421   6.417   6.651   6.502  0.0663 -0.3234 -0.7912
  105RES    H9429422   6.709   6.674   6.392 -0.0882 -0.8849  0.8038
  105RES    H9529423   6.584   6.436   6.350  2.0936 -0.2591 -0.2283
  105RES    H9629424   6.499   6.530   6.228  1.3331  1.0258 -1.9713
  105RES    H9729425   6.698   6.678   6.102  0.6234 -0.2523 -2.0040
  105RES    H9829426   6.781   6.545   6.023  0.3326  1.8561 -0.9396
  105RES    H9929427   6.603   6.537   6.032 -0.9356  0.4574  0.7592
  105RES   O10029428   6.536   6.756   6.299  1.0160  0.2072  0.0193
  105RES   C10129429   6.571   6.892   6.333  0.1033 -0.0915 -0.2810
  105RES   C10229430   6.538   6.984   6.220 -0.2539  0.3592  0.1626
  105RES   C10329431   6.385   6.976   6.180  0.0916  0.5378 -0.6067
  105RES   O10429432   6.349   7.081   6.089  0.2011 -0.6612  0.5702
  105RES   C10529433   6.213   7.058   6.040 -0.2460  0.0274 -0.1231
  105RES   H10629434   6.677   6.916   6.348 -0.0069  2.5292 -3.0682
  105RES   H10729435   6.518   6.916   6.425  1.2900  2.1999 -0.1432
  105RES   H10829436   6.566   7.085   6.250 -0.8117  0.6763 -0.3636
  105RES   H10929437   6.335   6.999   6.275  1.3761 -0.8718  0.4381
  105RES   H11029438   6.364   6.873   6.150 -0.2903  0.5613 -0.4360
  105RES   H11129439   6.208   6.961   5.991  1.5907  0.5005 -1.2977
  105RES   H11229440   6.187   7.140   5.973  2.3268 -1.1985 -2.7055
  105RES   H11329441   6.132   7.045   6.111  0.1302  1.0641  0.5160
  105RES   O11429442   6.612   6.933   6.115  0.7308  0.3945  0.9499
  105RES   C11529443   6.690   7.036   6.044 -0.0923  0.2003  0.3314
  105RES   C11629444   6.809   6.951   5.978  0.2830 -0.2381  0.3206
  105RES   C11729445   6.852   7.015   5.850 -0.0999  0.5283  0.4366
  105RES   O11829446   6.896   6.916   5.759 -0.1980  0.3256 -0.0402
  105RES   C11929447   7.030   6.859   5.780 -0.1888 -0.0784 -0.5781
  105RES   H12029448   6.632   7.075   5.960  1.2913  1.8735  0.1302
  105RES   H12129449   6.724   7.122   6.101 -0.8926 -0.0225  1.1419
  105RES   H12229450   6.792   6.846   5.957  2.8281 -0.6121  0.0698
  105RES   H12329451   6.769   7.059   5.795  1.3217  2.8451  0.0627
  105RES   H12429452   6.917   7.101   5.866 -0.2922  0.0275  4.2656
  105RES   H12529453   7.098   6.943   5.795 -0.1529  0.2175 -2.3675
  105RES   H12629454   7.054   6.806   5.688  0.7971  1.0545 -0.9930
  105RES   H12729455   7.044   6.787   5.861  0.1650 -1.3452 -1.7468
  105RES   O12829456   6.920   6.964   6.065 -0.2910 -0.2572 -0.0881
  105RES   C12929457   6.943   6.850   6.142 -0.0092  0.0299 -0.0042
  105RES   C13029458   7.073   6.877   6.223  0.4579 -0.2460  0.2844
  105RES   C13129459   7.050   7.003   6.310 -0.6403  0.2006 -0.4536
  105RES   O13229460   7.148   6.986   6.421  0.2702 -0.1222 -0.2924
  105RES   C13329461   7.154   7.087   6.520 -0.5346 -0.8687 -0.6039
  105RES   H13429462   6.860   6.841   6.213  0.2813  0.8182  0.4452
  105RES   H13529463   6.952   6.754   6.091  1.5894 -1.1925  2.4506
  105RES   H13629464   7.114   6.800   6.287 -1.2806 -0.7057  0.8785
  105RES   H13729465   6.952   6.995   6.358 -0.4528 -2.3424 -0.4414
  105RES   H13829466   7.053   7.098   6.256  1.0772  0.5907  0.2785
  105RES   H13929467   7.193   7.050   6.615 -2.0057 -0.4235  0.1929
  105RES   H14029468   7.221   7.158   6.472  0.3179 -0.4496  1.1604
  105RES   H14129469   7.054   7.128   6.540 -0.8682 -1.1300 -1.6986
  105RES   O14229470   7.167   6.902   6.119 -0.1058  0.3788 -0.1033
  105RES   C14329471   7.298   6.911   6.154  0.4997 -0.3421 -0.0947
  105RES   C14429472   7.379   6.905   6.022 -0.0370  0.0564 -0.2033
  105RES   C14529473   7.527   6.886   6.040 -0.4827  0.1765  0.3341
  105RES   O14629474   7.567   6.814   5.922  0.0387 -0.4026  0.1018
  105RES   C14729475   7.705   6.784   5.926  0.7572 -0.6192 -0.5546
  105RES   H14829476   7.317   7.002   6.211  0.4809  0.1129 -0.8051
  105RES   H14929477   7.336   6.830   6.216  0.7162 -1.3637 -1.5279
  105RES   H15029478   7.336   6.817   5.972 -1.4504  0.9087 -0.4983
  105RES   H15129479   7.539   6.815   6.122 -0.0120  1.5744  1.4927
  105RES   H15229480   7.580   6.975   6.074 -0.6360 -0.1496  1.4822
  105RES   H15329481   7.730   6.694   5.982  0.7129 -0.4065 -0.1974
  105RES   H15429482   7.763   6.859   5.979  1.8222 -0.7096 -1.5506
  105RES   H15529483   7.743   6.770   5.824  0.7448 -3.1016 -0.2394
  105RES   O15629484   7.355   7.027   5.947 -0.4009  0.0779  0.4717
  105RES   C15729485   7.382   7.021   5.804  0.2150  0.1540 -0.2171
  105RES   C15829486   7.311   7.133   5.728 -0.4518  0.2568  0.1983
  105RES   C15929487   7.283   7.096   5.585 -0.3098 -0.1342  0.5592
  105RES   O16029488   7.220   7.210   5.519  0.2764 -0.3963 -0.0246
  105RES   C16129489   7.200   7.176   5.382 -0.0041 -0.2416  0.3119
  105RES   H16229490   7.485   7.014   5.769  1.1172  1.3841  1.9971
  105RES   H16329491   7.347   6.930   5.757  0.1580  0.2503 -0.3581
  105RES   H16429492   7.218   7.163   5.776 -0.5956 -1.8408  1.2519
  105RES   H16529493   7.374   7.066   5.535 -1.0746 -0.6152 -0.5608
  105RES   H16629494   7.215   7.011   5.578 -1.0055  0.5017 -0.5624
  105RES   H16729495   7.157   7.077   5.370 -0.8495  0.3549 -1.9215
  105RES   H16829496   7.296   7.183   5.330 -0.2606  0.0610 -0.1351
  105RES   H16929497   7.129   7.244   5.334 -0.3999  0.0281  1.2659
  105RES   O17029498   7.400   7.244   5.717  0.8091  0.6368  0.4268
  105RES   C17129499   7.412   7.315   5.838  0.3272  0.1053  0.4276
  105RES   C17229500   7.447   7.461   5.812 -0.2466  0.5160  0.3676
  105RES   C17329501   7.508   7.520   5.947  0.2629  0.2880 -0.6891
  105RES   O17429502   7.543   7.652   5.952 -0.2222 -0.2551  0.3140
  105RES   C17529503   7.646   7.683   5.858  0.8551 -0.5297  0.7112
  105RES   H17629504   7.496   7.278   5.897 -0.6213  0.6535  2.1727
  105RES   H17729505   7.324   7.307   5.902  0.6262 -1.8439  0.6078
  105RES   H17829506   7.522   7.478   5.735  1.4437  0.3890  1.9501
  105RES   H17929507   7.443   7.507   6.034  2.2199  1.9621  1.1015
  105RES   H18029508   7.600   7.463   5.959 -0.1080 -0.7806 -2.8043
  105RES   H18129509   7.709   7.757   5.907  0.1015 -0.9686  2.3844
  105RES   H18229510   7.602   7.708   5.761 -0.0609  1.3713  1.5805
  105RES   H18329511   7.716   7.603   5.834 -1.0006 -2.0986  0.3964
  105RES   O18429512   7.332   7.542   5.768 -0.3936 -0.0394  0.1317
  105RES   C18529513   7.285   7.504   5.639  0.0154 -0.2930  0.1139
  105RES   C18629514   7.177   7.600   5.589  0.3589  0.1972 -0.6845
  105RES   C18729515   7.102   7.532   5.469  0.2792  0.6679 -0.2018
  105RES   O18829516   6.973   7.587   5.458 -0.1483 -0.0033 -0.0513
  105RES   C18929517   6.901   7.519   5.357 -0.2499  0.2458  0.6345
  105RES   H19029518   7.242   7.405   5.653 -0.8064  0.3473  2.3695
  105RES   H19129519   7.373   7.511   5.575 -1.5454 -0.4319 -2.0895
  105RES   H19229520   7.103   7.600   5.669  0.7512 -0.7785 -0.3167
  105RES   H19329521   7.098   7.425   5.486  0.5485  0.8139  0.7961
  105RES   H19429522   7.154   7.547   5.375 -1.9365  0.3152 -1.5222
  105RES   H19529523   6.945   7.536   5.258 -0.3102 -2.5624  0.0746
  105RES   H19629524   6.894   7.413   5.380  0.5376  0.3586  1.4349
  105RES   H19729525   6.803   7.562   5.338 -0.6406 -0.1286  1.7652
  105RES   O19829526   7.225   7.732   5.554  0.1637 -0.2857 -0.0984
  105RES   C19929527   7.262   7.816   5.667 -0.0980 -0.6862 -0.1786
  105RES   C20029528   7.250   0.151   5.631 -0.0611 -0.0690 -0.5200
  105RES   C20129529   7.301   0.261   5.729 -0.2590  0.1179  0.2600
  105RES   O20229530   7.248   0.228   5.855  0.1666  0.2057  0.3268
  105RES   C20329531   7.265   0.330   5.951  0.3001  0.0191  0.0692
  105RES   H20429532   7.367   7.789   5.680  0.6738  2.3566  0.2162
  105RES   H20529533   7.206   7.786   5.755 -0.9745  2.6429  0.4425
  105RES   H20629534   7.309   0.159   5.540  1.1492  1.6595  0.3785
  105RES   H20729535   7.410   0.261   5.738 -0.2734  1.0685  0.5007
  105RES   H20829536   7.266   0.358   5.694 -0.6995  0.9806  2.9507
  105RES   H20929537   7.244   0.290   6.050  2.1273 -0.2362  0.3705
  105RES   H21029538   7.186   0.402   5.927  1.1386  0.7537 -0.5627
  105RES   H21129539   7.366   0.372   5.941  0.3121 -0.8018 -4.1552
  105RES   O21229540   7.115   0.186   5.605 -0.1265 -0.2546 -0.4149
  105RES   C21329541   7.077   0.155   5.466 -0.1695 -0.3000  0.0917
  105RES   C21429542   6.951   0.238   5.427 -0.0201  0.5899  0.3928
  105RES   C21529543   6.938   0.373   5.501  0.3675 -0.5664  0.2979
  105RES   O21629544   6.848   0.455   5.434 -0.1816 -0.1294  0.5232
  105RES   C21729545   6.711   0.426   5.446  0.3748  0.1583 -0.3200
  105RES   H21829546   7.050   0.051   5.445 -0.6659 -0.1114 -0.2023
  105RES   H21929547   7.161   0.183   5.403 -0.2696  2.3505  1.0881
  105RES   H22029548   6.959   0.253   5.319  2.5642 -2.8076  0.0454
  105RES   H22129549   6.915   0.367   5.607  0.4227 -1.4418  0.2609
  105RES   H22229550   7.037   0.419   5.496  1.4962 -2.8054  1.2968
  105RES   H22329551   6.661   0.507   5.392 -0.9858 -1.1956 -1.1350
  105RES   H22429552   6.673   0.413   5.548  1.0298 -1.0512 -0.2181
  105RES   H22529553   6.689   0.339   5.384 -1.5142  0.1850  0.2584
  105RES   O22629554   6.842   0.147   5.442 -0.4915 -0.2129 -0.1601
  105RES   C22729555   6.830   0.091   5.575  0.1005 -0.0111  0.6427
  105RES   C22829556   6.728   7.793   5.576  0.4731 -0.3570  0.1272
  105RES   C22929557   6.719   7.687   5.686  0.3188 -0.7983  0.2604
  105RES   O23029558   6.620   7.589   5.648  0.5628 -0.6571 -0.0266
  105RES   C23129559   6.595   7.494   5.751 -0.3566  0.2450 -0.2493
  105RES   H23229560   6.812   0.161   5.657  0.4089 -0.2426  0.9122
  105RES   H23329561   6.914   0.030   5.609 -0.7931 -1.7869 -0.2628
  105RES   H23429562   6.743   7.743   5.480  3.3041  0.8622 -0.0933
  105RES   H23529563   6.698   7.734   5.782  0.5385 -2.4232  1.1349
  105RES   H23629564   6.813   7.633   5.687  1.1530  0.6307  2.6850
  105RES   H23729565   6.504   7.438   5.729  0.3033 -0.4597 -1.1808
  105RES   H23829566   6.565   7.546   5.842 -0.2871  0.5838 -0.4214
  105RES   H23929567   6.685   7.439   5.779 -1.7624 -2.0094 -0.0698
  105RES   O24029568   6.606   0.049   5.578 -0.8518 -0.3787 -0.3189
  105RES   C24129569   6.538   0.054   5.455 -0.1130 -0.0388 -0.0877
  105RES   C24229570   6.383   0.082   5.465 -0.3272 -0.1024 -0.0535
  105RES   C24329571   6.318   0.122   5.326  0.2375  0.0180  0.6549
  105RES   O24429572   6.214   0.227   5.346  0.2633 -0.3883  0.2480
  105RES   C24529573   6.101   0.175   5.414  0.0571 -0.1489 -0.1502
  105RES   H24629574   6.542   7.774   5.406  0.2777  0.1866 -0.5121
  105RES   H24729575   6.593   0.123   5.390 -0.2126  0.8727  0.7840
  105RES   H24829576   6.373   0.169   5.530  0.8369  1.8551 -2.4014
  105RES   H24929577   6.393   0.153   5.254  0.5717  3.2145  2.2650
  105RES   H25029578   6.278   0.028   5.290 -1.6664  1.1731 -0.3256
  105RES   H25129579   6.078   0.083   5.360 -0.5583 -0.3168  0.3916
  105RES   H25229580   6.025   0.252   5.418 -1.4495 -1.6289  0.3388
  105RES   H25329581   6.129   0.141   5.514  0.9090  0.3305 -0.2261
  105RES   O25429582   6.307   7.787   5.511 -0.0260 -0.5615  0.7079
  105RES   C25529583   6.314   7.756   5.647 -0.0902 -0.4249  0.1626
  105RES   C25629584   6.232   7.638   5.699 -0.6086 -0.4219  0.1179
  105RES   C25729585   6.257   7.609   5.856 -0.9037  0.5382  0.3149
  105RES   O25829586   6.198   7.483   5.898  0.1633  0.0488  0.1200
  105RES   C25929587   6.057   7.493   5.927  0.2072  0.5045  0.1648
  105RES   H26029588   6.418   7.737   5.672  0.5210 -1.7966 -3.1540
  105RES   H26129589   6.287   0.022   5.712 -1.3763 -1.3900  0.9004
  105RES   H26229590   6.260   7.543   5.652  1.0334  0.0760  0.0701
  105RES   H26329591   6.365   7.603   5.870 -0.9373 -1.5321 -0.2156
  105RES   H26429592   6.229   7.685   5.930 -1.2913 -0.8682  1.6390
  105RES   H26529593   5.999   7.511   5.837  0.6122 -3.0652 -0.8911
  105RES   H26629594   6.034   7.556   6.013 -0.0986 -0.2435  0.6456
  105RES   H26729595   6.019   7.395   5.957  2.7678 -0.7420 -0.5272
  105RES   O26829596   6.089   7.665   5.686 -0.2696  0.7113 -0.3280
  105RES   C26929597   6.031   7.611   5.568  0.3049  0.0358 -0.7490
  105RES   C27029598   5.880   7.642   5.571  0.0451 -0.5948 -0.1587
  105RES   C27129599   5.841   7.792   5.595  0.5678 -0.0724  0.2036
  105RES   O27229600   5.704   7.798   5.624  0.9211 -0.3290 -0.1125
  105RES   C27329601   5.655   0.109   5.647 -0.4503  0.3273 -0.2562
  105RES   H27429602   6.051   7.505   5.557  1.0769  0.3146 -2.0373
  105RES   H27529603   6.086   7.664   5.491 -0.4300 -0.0511 -1.3392
  105RES   H27629604   5.831   7.611   5.479 -0.4212 -0.3991  0.0173
  105RES   H27729605   5.866   0.029   5.504 -0.4648 -1.8706 -1.1930
  105RES   H27829606   5.909   0.022   5.666 -0.5392  0.1254  1.1447
  105RES   H27929607   5.635   0.151   5.549  0.1925  2.4887  0.5135
  105RES   H28029608   5.706   0.179   5.714  0.9884  1.2351 -2.2705
  105RES   H28129609   5.553   0.103   5.685 -0.2825  1.5949  0.4039
  105RES   H28229610   5.837   7.588   5.656  0.0655 -2.1817 -1.1357
  106RES     O129611   7.793   7.429   3.278  0.4984 -0.2317  0.5230
  106RES     C229612   7.688   7.338   3.307 -0.8486  0.0713  0.3087
  106RES     C329613   7.592   7.332   3.188  0.2979  0.0809 -0.9756
  106RES     C429614   7.492   7.215   3.200 -0.9658 -0.4238 -0.5677
  106RES     O529615   7.444   7.188   3.071 -0.1367 -0.2655 -1.3112
  106RES     C629616   7.337   7.086   3.058 -0.5142  0.9189 -0.7456
  106RES     H729617   7.732   7.238   3.316 -1.4385 -0.2375 -0.2068
  106RES     H829618   7.639   7.364   3.400  0.0646  0.9020  0.5662
  106RES     H929619   7.645   7.316   3.094  0.7438 -0.5386 -0.6210
  106RES    H1029620   7.419   7.242   3.277  1.0530  3.6328  0.0254
  106RES    H1129621   7.544   7.121   3.219 -1.8833 -0.8431 -0.0488
  106RES    H1229622   7.313   7.071   2.953  0.4676 -0.0492 -0.8334
  106RES    H1329623   7.378   6.992   3.093  0.0954  2.5557  3.2081
  106RES    H1429624   7.245   7.109   3.113  0.9200  0.7816  1.7879
  106RES    H1529625   7.759   7.512   3.309 -1.4750 -0.0122 -2.0664
  106RES    O1629626   7.519   7.448   3.190 -0.2551 -0.5616  0.1177
  106RES    C1729627   7.512   7.528   3.070 -0.4916  0.2580 -0.2247
  106RES    C1829628   7.427   7.654   3.110 -0.0952  0.3708  0.2232
  106RES    C1929629   7.392   7.740   2.991  0.0412  0.3901  0.0637
  106RES    O2029630   7.360   7.659   2.885 -0.6906  0.0334  0.2092
  106RES    C2129631   7.313   7.726   2.762 -0.0331  0.3999  0.2934
  106RES    H2229632   7.457   7.477   2.991  0.2595 -1.3607  0.2607
  106RES    H2329633   7.607   7.570   3.037  0.7339 -0.8695  1.7123
  106RES    H2429634   7.498   7.711   3.170  0.8945 -0.1345 -0.4597
  106RES    H2529635   7.316   7.812   3.018  1.8945  2.5065 -0.2236
  106RES    H2629636   7.482   7.798   2.970 -0.7398  0.9838 -1.6943
  106RES    H2729637   7.397   7.792   2.741  1.6810 -0.9355  2.5743
  106RES    H2829638   7.222   7.779   2.791 -0.2847 -0.6799  1.5666
  106RES    H2929639   7.301   7.654   2.681  1.9245  0.4769 -0.1016
  106RES    O3029640   7.315   7.621   3.198 -0.1493 -0.4097 -0.1382
  106RES    C3129641   7.223   7.530   3.137  0.3842 -0.1007  0.2850
  106RES    C3229642   7.096   7.551   3.218  0.5283 -0.4746 -0.2504
  106RES    C3329643   7.000   7.430   3.204 -1.2238  0.3047  0.5587
  106RES    O3429644   7.056   7.309   3.259 -0.2338 -0.1514 -0.3126
  106RES    C3529645   6.985   7.196   3.228  0.0715  0.1210 -0.7704
  106RES    H3629646   7.196   7.559   3.035 -3.7517 -0.3134  1.2171
  106RES    H3729647   7.244   7.423   3.148  2.5774  0.3917  1.0870
  106RES    H3829648   7.118   7.559   3.324  3.7513 -1.7437 -0.7516
  106RES    H3929649   6.954   7.420   3.106 -0.7331 -0.5483  0.4139
  106RES    H4029650   6.922   7.457   3.275 -1.2445  0.6611  0.4035
  106RES    H4129651   7.027   7.105   3.273 -0.2849  0.0823 -0.5068
  106RES    H4229652   6.991   7.177   3.121  3.3450 -1.8609 -0.3405
  106RES    H4329653   6.881   7.191   3.259 -0.0050  0.5808 -0.9644
  106RES    O4429654   7.012   7.665   3.179  0.0451  0.1481 -0.0505
  106RES    C4529655   7.068   7.786   3.222 -0.3690 -0.2197  0.3804
  106RES    C4629656   6.965   0.081   3.209 -0.2232  0.2452 -0.4358
  106RES    C4729657   6.998   0.193   3.308 -0.1514  0.3751 -0.0438
  106RES    O4829658   6.893   0.282   3.307 -0.2449  0.5560 -0.3046
  106RES    C4929659   6.931   0.407   3.362 -0.2995  0.3830 -0.1402
  106RES    H5029660   7.155   7.793   3.157  0.3081  1.7190  1.4699
  106RES    H5129661   7.093   7.783   3.328 -0.9405  2.3650  0.6239
  106RES    H5229662   6.870   0.038   3.241  0.7031 -1.3967  0.1906
  106RES    H5329663   7.026   0.165   3.409 -0.6504  1.0018  0.2712
  106RES    H5429664   7.081   0.246   3.261  0.8569 -1.8375 -0.8133
  106RES    H5529665   6.963   0.401   3.465  1.7853  0.7979 -0.7490
  106RES    H5629666   6.851   0.474   3.331  0.3334  0.7043 -1.1215
  106RES    H5729667   7.014   0.449   3.306 -2.1523  1.6601 -2.0301
  106RES    O5829668   6.959   0.112   3.067 -0.4841 -0.4031 -0.3039
  106RES    C5929669   6.823   0.148   3.032 -0.3014  0.5106 -0.8746
  106RES    C6029670   6.807   0.131   2.881  0.2529  0.0112 -0.0850
  106RES    C6129671   6.683   0.201   2.826  0.4983  0.3301 -0.3471
  106RES    O6229672   6.688   0.342   2.842 -0.9911  0.1919  0.8144
  106RES    C6329673   6.587   0.414   2.770  0.0286  0.2449  0.0566
  106RES    H6429674   6.825   0.253   3.058  0.0311  0.6189 -1.3292
  106RES    H6529675   6.745   0.088   3.080 -0.1270  0.6941 -0.3638
  106RES    H6629676   6.893   0.178   2.833 -0.8620  0.6174 -1.5352
  106RES    H6729677   6.680   0.171   2.721 -1.6017 -3.0093  0.6052
  106RES    H6829678   6.591   0.160   2.866  0.3512  2.0992  1.1621
  106RES    H6929679   6.606   0.405   2.663 -2.0172 -4.8809 -0.0315
  106RES    H7029680   6.580   0.514   2.813  1.1603  0.1468  0.4992
  106RES    H7129681   6.493   0.361   2.784 -0.6546  0.4419 -3.3828
  106RES    O7229682   6.796   7.816   2.842 -1.0426  0.0528  0.1257
  106RES    C7329683   6.918   7.746   2.829 -0.4366 -0.1603 -0.3890
  106RES    C7429684   6.892   7.619   2.750 -0.1011  1.2016  0.1553
  106RES    C7529685   6.997   7.509   2.779 -0.1073 -0.0262 -0.1617
  106RES    O7629686   6.973   7.385   2.715  0.6890  0.3320  0.4671
  106RES    C7729687   6.882   7.302   2.790  0.6728 -0.1918  0.5865
  106RES    H7829688   7.001   7.798   2.780 -0.6507  0.4968 -0.0590
  106RES    H7929689   6.953   7.728   2.930  0.6156  0.6280 -0.5999
  106RES    H8029690   6.796   7.577   2.783  1.4877 -2.6389  0.1545
  106RES    H8129691   7.000   7.486   2.885 -0.1828 -0.4744 -0.2548
  106RES    H8229692   7.095   7.548   2.751  0.6889 -1.1122  1.0481
  106RES    H8329693   6.846   7.228   2.719 -2.5947  0.8215  1.1049
  106RES    H8429694   6.802   7.366   2.827 -1.9756 -2.7026 -0.5739
  106RES    H8529695   6.922   7.239   2.869  0.1708 -1.0408  0.1668
  106RES    O8629696   6.906   7.658   2.614  0.2774 -0.5824  0.1328
  106RES    C8729697   6.803   7.605   2.534  0.5536 -0.0151 -0.2494
  106RES    C8829698   6.814   7.653   2.388 -0.6114  0.4422  0.2593
  106RES    C8929699   6.753   7.550   2.292  0.7740  0.2610  0.7478
  106RES    O9029700   6.778   7.588   2.162  0.0732  0.2019  0.1585
  106RES    C9129701   6.719   7.494   2.073  0.1077  0.5174  2.0520
  106RES    H9229702   6.788   7.497   2.528 -0.7488  0.2559 -3.1506
  106RES    H9329703   6.711   7.640   2.581 -0.5676 -1.9170 -0.9592
  106RES    H9429704   6.918   7.667   2.360 -0.4468 -1.2923 -0.0328
  106RES    H9529705   6.789   7.452   2.323  1.0312  0.8433  2.3213
  106RES    H9629706   6.645   7.539   2.307  0.8626  0.4476  1.5575
  106RES    H9729707   6.767   7.396   2.071 -1.3903 -0.2201 -0.4042
  106RES    H9829708   6.616   7.466   2.098 -0.7754  0.8141 -0.9986
  106RES    H9929709   6.729   7.545   1.977  1.2650 -0.3890  1.6742
  106RES   O10029710   6.755   7.779   2.357  0.2601 -0.1376  0.4145
  106RES   C10129711   6.791   0.070   2.439 -0.9665  0.2665  0.6985
  106RES   C10229712   6.700   0.189   2.400 -0.5260 -0.5230  0.1371
  106RES   C10329713   6.767   0.320   2.450 -0.5638  0.0986 -0.6490
  106RES   O10429714   6.718   0.429   2.371  0.2471 -0.0492 -0.7062
  106RES   C10529715   6.749   0.556   2.432  0.2231 -0.3612 -0.4748
  106RES   H10629716   6.894   0.094   2.415 -0.9526 -1.3036 -0.9405
  106RES   H10729717   6.778   0.054   2.546  1.2740 -1.9770  0.6815
  106RES   H10829718   6.697   0.206   2.293  1.4212 -0.8461  0.0020
  106RES   H10929719   6.871   0.313   2.417 -0.9340 -1.5299 -1.5279
  106RES   H11029720   6.769   0.329   2.558  0.3454 -0.1386 -0.6459
  106RES   H11129721   6.677   0.574   2.512 -0.1686 -0.0476 -0.9001
  106RES   H11229722   6.744   0.639   2.362 -0.3202  0.2476  0.2735
  106RES   H11329723   6.854   0.558   2.462  0.3329  1.7966 -0.9559
  106RES   O11429724   6.567   0.177   2.451 -0.3765  0.3649 -0.1968
  106RES   C11529725   6.486   0.115   2.349 -0.2378 -0.2069 -0.3967
  106RES   C11629726   6.412   0.223   2.272  0.1975 -0.2382  0.0486
  106RES   C11729727   6.390   0.184   2.123  0.1714 -0.7163  0.8056
  106RES   O11829728   6.348   0.299   2.039 -0.0319 -0.0442  0.3417
  106RES   C11929729   6.318   0.264   1.903  0.3840  0.0151 -0.0607
  106RES   H12029730   6.548   0.070   2.272 -0.0918  2.2095 -1.7664
  106RES   H12129731   6.417   0.044   2.393  1.1510 -0.1712  1.9068
  106RES   H12229732   6.465   0.318   2.272 -1.1470  0.5169  1.2650
  106RES   H12329733   6.484   0.148   2.083  0.0798  1.1089 -1.1039
  106RES   H12429734   6.327   0.097   2.105  1.0544 -1.1256 -0.3293
  106RES   H12529735   6.244   0.184   1.909  1.4874 -0.9413  1.2038
  106RES   H12629736   6.405   0.219   1.854  1.1752  1.7883 -0.3224
  106RES   H12729737   6.276   0.345   1.845 -0.0785  0.3287  0.7105
  106RES   O12829738   6.279   0.237   2.328  0.0856  0.8735  0.0746
  106RES   C12929739   6.251   0.330   2.428 -0.0652 -0.3004 -0.5145
  106RES   C13029740   6.282   0.481   2.396  0.3353 -0.1361 -0.1766
  106RES   C13129741   6.248   0.577   2.512  0.6453 -0.3206  0.2113
  106RES   O13229742   6.275   0.716   2.479  0.5290 -0.3793 -0.5798
  106RES   C13329743   6.155   0.781   2.454 -0.1890  0.2632  0.4442
  106RES   H13429744   6.145   0.328   2.453 -0.1771  0.4103 -0.8971
  106RES   H13529745   6.310   0.302   2.515  1.9247  1.1572 -1.3618
  106RES   H13629746   6.388   0.485   2.369  0.7836 -0.7481  1.4206
  106RES   H13729747   6.289   0.546   2.609  1.7916  2.1178  0.5563
  106RES   H13829748   6.145   0.554   2.539  0.0334  0.9655 -0.9772
  106RES   H13929749   6.108   0.779   2.552 -0.4193 -0.8387  0.3229
  106RES   H14029750   6.163   0.888   2.437 -2.8367  0.3675 -0.4008
  106RES   H14129751   6.093   0.740   2.374  1.5016 -1.3569 -0.0794
  106RES   O14229752   6.198   0.516   2.284 -0.0600 -0.3576  0.4409
  106RES   C14329753   6.253   0.586   2.175  0.7789 -0.1192 -0.4711
  106RES   C14429754   6.155   0.587   2.056 -0.4698 -0.6828  0.7476
  106RES   C14529755   6.195   0.693   1.950  0.4328 -0.3489  0.2357
  106RES   O14629756   6.202   0.629   1.820  0.4587  0.4510 -0.0859
  106RES   C14729757   6.213   0.719   1.712 -0.1301 -0.7376  0.6641
  106RES   H14829758   6.283   0.687   2.201 -0.3675  0.0208  0.3091
  106RES   H14929759   6.351   0.541   2.155  2.1099  2.9889 -1.2679
  106RES   H15029760   6.140   0.489   2.012 -1.4480  0.0718 -0.6493
  106RES   H15129761   6.287   0.749   1.963  0.1857  0.3584 -0.9711
  106RES   H15229762   6.120   0.772   1.941  2.0429  1.2243  0.4067
  106RES   H15329763   6.311   0.765   1.700  0.3839 -2.1638 -0.8651
  106RES   H15429764   6.142   0.801   1.718  1.1358  0.4844 -0.6650
  106RES   H15529765   6.181   0.669   1.620  0.7535 -0.8497  0.4164
  106RES   O15629766   6.016   0.624   2.085 -0.3366 -0.3802 -0.4896
  106RES   C15729767   5.921   0.556   2.005  0.3405 -0.0359  0.1005
  106RES   C15829768   5.779   0.615   2.017 -0.0036 -0.5191  0.5712
  106RES   C15929769   5.675   0.504   2.007 -0.2479  0.6199 -0.0753
  106RES   O16029770   5.543   0.556   2.015 -0.9366 -0.4785 -0.3212
  106RES   C16129771   5.501   0.583   2.147 -0.0246 -0.4614 -0.3350
  106RES   H16229772   5.962   0.538   1.905 -0.5252 -1.2049 -0.0440
  106RES   H16329773   5.924   0.462   2.060  0.2841 -1.2488 -1.9068
  106RES   H16429774   5.758   0.666   2.111 -2.3495 -0.5590  0.0852
  106RES   H16529775   5.686   0.461   1.908  1.9836 -0.8640  0.7584
  106RES   H16629776   5.690   0.419   2.075 -0.5704  1.4685  1.0806
  106RES   H16729777   5.473   0.684   2.176 -4.1437 -0.4478 -3.8209
  106RES   H16829778   5.566   0.543   2.225  1.2616  0.7863 -0.7553
  106RES   H16929779   5.415   0.530   2.189  0.9826 -0.6205  1.5993
  106RES   O17029780   5.762   0.701   1.900 -0.2116  0.0794  0.5274
  106RES   C17129781   5.825   0.820   1.914  0.2263 -0.1703  0.0907
  106RES   C17229782   5.743   0.930   1.827 -0.2917 -1.0506 -0.2269
  106RES   C17329783   5.832   1.045   1.784  0.0784  0.9195 -0.0351
  106RES   O17429784   5.953   1.016   1.721  0.2311  0.0723  0.4328
  106RES   C17529785   6.038   1.124   1.678 -0.4228 -0.4743  0.2688
  106RES   H17629786   5.921   0.807   1.864  0.7522  1.4405  0.6379
  106RES   H17729787   5.842   0.844   2.019  0.2813 -0.7364  0.2116
  106RES   H17829788   5.695   0.886   1.739 -1.7568  0.0429 -0.0017
  106RES   H17929789   5.771   1.090   1.706 -1.5503  0.9128  1.2279
  106RES   H18029790   5.848   1.110   1.870  0.7883  0.5171  0.1425
  106RES   H18129791   6.060   1.183   1.767 -1.6256 -0.8484  0.8297
  106RES   H18229792   5.996   1.180   1.594  1.1814  0.5074  0.0970
  106RES   H18329793   6.129   1.081   1.636 -1.4729 -2.7019  0.1973
  106RES   O18429794   5.630   0.988   1.895 -0.3522  0.3716 -0.4820
  106RES   C18529795   5.531   0.900   1.931 -0.0028 -0.0564 -0.4596
  106RES   C18629796   5.402   0.973   1.958  0.3944 -0.6411 -0.1552
  106RES   C18729797   5.276   0.879   1.993 -0.1372  0.1671  0.0735
  106RES   O18829798   5.203   0.951   2.086 -0.1009 -0.1474 -0.1815
  106RES   C18929799   5.073   0.908   2.100 -0.2426  0.1727 -0.2477
  106RES   H19029800   5.568   0.832   2.008  0.2287  0.0765 -0.4547
  106RES   H19129801   5.518   0.837   1.844 -0.7599 -1.3227  0.5520
  106RES   H19229802   5.414   1.055   2.030  0.9486 -1.1576  0.3483
  106RES   H19329803   5.296   0.780   2.035 -1.4915 -0.9391 -1.8102
  106RES   H19429804   5.222   0.847   1.904  0.3953 -0.0679 -0.1723
  106RES   H19529805   5.012   0.977   2.158  0.2964 -0.8187  1.5514
  106RES   H19629806   5.033   0.905   1.999  1.5946 -2.0464 -0.9745
  106RES   H19729807   5.086   0.810   2.146  0.8753  0.3440 -0.1686
  106RES   O19829808   5.366   1.025   1.836  0.1478 -0.7918  0.2730
  106RES   C19929809   5.395   1.170   1.828 -0.0329 -0.0506 -0.2837
  106RES   C20029810   5.326   1.226   1.700  0.0880 -0.1118  0.7711
  106RES   C20129811   5.172   1.210   1.693  0.5076 -0.1051  0.5028
  106RES   O20229812   5.112   1.322   1.622 -0.5330  0.3466  0.0773
  106RES   C20329813   5.092   1.431   1.709  0.0489 -0.2770  0.2333
  106RES   H20429814   5.503   1.187   1.830  0.1893 -1.3303 -0.8251
  106RES   H20529815   5.359   1.227   1.913  1.3574 -2.6661  2.1665
  106RES   H20629816   5.364   1.328   1.695  0.3734 -0.3346 -2.2991
  106RES   H20729817   5.135   1.122   1.640 -0.1615  0.9046 -0.7622
  106RES   H20829818   5.128   1.209   1.792 -0.5049  2.0152  0.1017
  106RES   H20929819   5.025   1.390   1.785  0.4312 -1.4951 -0.0682
  106RES   H21029820   5.060   1.509   1.641 -0.2547 -1.1561 -0.6533
  106RES   H21129821   5.187   1.454   1.757 -1.5253  1.0067  2.8525
  106RES   O21229822   5.381   1.165   1.582  0.2925  0.3118 -0.7560
  106RES   C21329823   5.514   1.208   1.545 -0.1234  0.3838 -0.3439
  106RES   C21429824   5.566   1.105   1.442 -0.5067  0.3308 -0.2752
  106RES   C21529825   5.716   1.143   1.414  0.2662 -0.2234 -0.0376
  106RES   O21629826   5.788   1.043   1.340  0.2731  0.0885  0.5292
  106RES   C21729827   5.800   0.917   1.399 -0.0170 -0.1595  0.9133
  106RES   H21829828   5.581   1.195   1.629 -0.3866 -0.4224 -0.2510
  106RES   H21929829   5.520   1.314   1.519 -1.0968  1.0354  1.9525
  106RES   H22029830   5.554   1.000   1.470  0.2587  1.0614  2.9134
  106RES   H22129831   5.720   1.238   1.361 -2.6208  0.4065  0.7860
  106RES   H22229832   5.765   1.166   1.508 -0.5555 -0.8573  0.5489
  106RES   H22329833   5.718   0.855   1.364 -1.2830  3.0230 -2.0279
  106RES   H22429834   5.795   0.918   1.508 -3.2353  2.3950  0.7950
  106RES   H22529835   5.891   0.871   1.360 -0.8663 -1.4786  0.4415
  106RES   O22629836   5.494   1.105   1.325  0.6631  0.0728  0.0683
  106RES   C22729837   5.500   0.982   1.247  0.2335 -0.1425  0.3280
  106RES   C22829838   5.407   1.012   1.123  0.2473 -0.1951  0.1576
  106RES   C22929839   5.432   0.921   1.001 -0.3957  0.6575  0.3718
  106RES   O23029840   5.389   0.985   0.877  0.0681  0.2154  0.0422
  106RES   C23129841   5.251   1.001   0.873 -0.2922  0.2908 -0.3176
  106RES   H23229842   5.469   0.890   1.296  0.1326  0.0042  0.5407
  106RES   H23329843   5.598   0.964   1.205  1.7381  0.9217  3.2544
  106RES   H23429844   5.415   1.115   1.087 -0.2664 -0.8010 -1.7709
  106RES   H23529845   5.389   0.821   1.010  1.7232 -0.2804  0.3154
  106RES   H23629846   5.537   0.905   0.975 -0.4634  3.8762 -2.2946
  106RES   H23729847   5.214   1.084   0.933 -1.7848  1.7295 -3.1210
  106RES   H23829848   5.197   0.907   0.883  0.2971 -0.0064  0.0609
  106RES   H23929849   5.227   1.024   0.769  0.6548  0.0336 -0.5963
  106RES   O24029850   5.280   0.985   1.158  0.4873 -0.4304 -0.2150
  106RES   C24129851   5.213   1.086   1.231  0.1752  0.2853  0.1199
  106RES   C24229852   5.073   1.040   1.259 -0.4418 -0.0569  0.3642
  106RES   C24329853   4.985   1.141   1.345 -0.1483  0.5081 -0.1464
  106RES   O24429854   4.868   1.075   1.402 -0.3003  0.0533  0.0757
  106RES   C24529855   4.788   1.165   1.474 -0.2175 -1.0975  0.2206
  106RES   H24629856   5.222   1.188   1.193 -0.7857  0.1122 -0.5794
  106RES   H24729857   5.254   1.084   1.333 -2.6282 -1.1671  1.2602
  106RES   H24829858   5.081   0.944   1.309 -1.0027 -1.1649 -1.6460
  106RES   H24929859   5.049   1.169   1.429 -0.0358  3.3930 -1.1206
  106RES   H25029860   4.966   1.236   1.295  2.2775  1.4487  0.6006
  106RES   H25129861   4.851   1.222   1.542  0.8977 -2.4845  0.3592
  106RES   H25229862   4.708   1.121   1.533 -0.5298  1.5052  1.8471
  106RES   H25329863   4.755   1.250   1.414  2.4715 -0.5131 -0.4934
  106RES   O25429864   4.998   1.048   1.136 -0.4715  0.2976  0.6392
  106RES   C25529865   4.924   0.937   1.111  0.8600  0.0731  0.0066
  106RES   C25629866   4.789   0.968   1.032 -0.8184  0.2624  0.0741
  106RES   C25729867   4.702   1.062   1.111  0.1905 -0.6038 -0.1543
  106RES   O25829868   4.571   1.046   1.068  0.0189  0.5572 -0.1237
  106RES   C25929869   4.481   1.133   1.137  0.5090 -0.0142 -0.3189
  106RES   H26029870   4.991   0.876   1.051  0.7630  0.0365 -0.0645
  106RES   H26129871   4.904   0.882   1.203 -1.9470  1.5861  0.3547
  106RES   H26229872   4.743   0.870   1.036 -0.7006  0.1265 -1.5598
  106RES   H26329873   4.705   1.037   1.217 -0.2211 -0.6415 -0.1538
  106RES   H26429874   4.737   1.165   1.111 -0.2825 -0.4413  0.3106
  106RES   H26529875   4.501   1.238   1.114 -0.1239  0.2281  0.2206
  106RES   H26629876   4.489   1.123   1.245 -0.7045 -1.4040 -0.3452
  106RES   H26729877   4.381   1.097   1.112 -0.0470  0.9439  0.5201
  106RES   O26829878   4.804   1.025   0.899 -0.3046 -0.6899 -0.1408
  106RES   C26929879   4.864   0.935   0.806 -0.3240  0.5148  0.1100
  106RES   C27029880   4.866   1.008   0.671 -0.0097  0.2189  0.6755
  106RES   C27129881   4.735   1.080   0.634  0.1300 -0.3503  0.1861
  106RES   O27229882   4.733   1.127   0.503 -0.1146 -0.0956  0.2712
  106RES   C27329883   4.636   1.219   0.471  0.3550 -0.3150  0.4656
  106RES   H27429884   4.806   0.843   0.799  2.2173 -1.1420 -0.0909
  106RES   H27529885   4.962   0.904   0.844 -1.5129 -1.6536  1.4638
  106RES   H27629886   4.948   1.078   0.675  1.1393 -0.9301 -1.8446
  106RES   H27729887   4.718   1.162   0.703  0.4563  1.1894 -1.5060
  106RES   H27829888   4.646   1.018   0.648 -1.9637  2.2393 -1.2422
  106RES   H27929889   4.633   1.216   0.362  4.2171 -0.3608  0.2772
  106RES   H28029890   4.659   1.319   0.509 -1.4499 -0.2412  1.4193
  106RES   H28129891   4.537   1.189   0.505 -0.0261  1.3359  0.8755
  106RES   H28229892   4.886   0.928   0.600  1.1430  2.6622 -1.8324
  107RES     O129893   4.356   6.556   1.683  0.3494 -0.1835 -0.0318
  107RES     C229894   4.363   6.438   1.768 -0.5671  0.1695 -0.3136
  107RES     C329895   4.452   6.469   1.891 -0.2035  0.0581  1.2309
  107RES     C429896   4.366   6.524   2.009 -0.0370  0.0697 -0.3422
  107RES     O529897   4.447   6.595   2.102  0.4499 -0.7333  0.9344
  107RES     C629898   4.483   6.722   2.052 -0.0410  0.3891 -0.9979
  107RES     H729899   4.268   6.393   1.798  0.1763 -1.6627 -0.6226
  107RES     H829900   4.419   6.359   1.717 -0.2992 -1.4066  2.3282
  107RES     H929901   4.535   6.537   1.872  0.7909 -1.7723 -1.2199
  107RES    H1029902   4.330   6.448   2.078  1.1321 -0.5561 -0.4097
  107RES    H1129903   4.282   6.589   1.983  0.2167  1.2064  1.5965
  107RES    H1229904   4.481   6.735   1.944 -1.4537 -0.0733 -1.0350
  107RES    H1329905   4.418   6.794   2.101  0.1439 -0.5532  0.6697
  107RES    H1429906   4.584   6.741   2.090  0.5107 -1.2663 -1.6032
  107RES    H1529907   4.449   6.575   1.674  0.1452  1.4048  1.1517
  107RES    O1629908   4.485   6.337   1.941  0.1293  0.3224 -0.3186
  107RES    C1729909   4.595   6.340   2.037 -0.2516  0.0787  0.5221
  107RES    C1829910   4.741   6.363   1.998  0.0074  0.0652 -0.3641
  107RES    C1929911   4.822   6.393   2.130  0.0559 -0.0419  0.2598
  107RES    O2029912   4.890   6.515   2.124  0.1390 -0.0585  0.0267
  107RES    C2129913   4.957   6.542   2.243 -0.2399  0.3892  0.4724
  107RES    H2229914   4.588   6.243   2.087 -2.0545  0.4636  1.0349
  107RES    H2329915   4.567   6.407   2.118  2.2216 -0.3913  1.8184
  107RES    H2429916   4.752   6.442   1.923  2.6888 -0.2637 -0.3707
  107RES    H2529917   4.753   6.402   2.213 -0.4798  0.3875 -0.2364
  107RES    H2629918   4.892   6.309   2.139 -0.8788 -0.6853  1.7769
  107RES    H2729919   4.997   6.642   2.225  0.5405 -0.2273 -1.3394
  107RES    H2829920   5.039   6.476   2.274 -1.1003  0.5506  3.1814
  107RES    H2929921   4.884   6.555   2.322 -1.9806 -0.2689 -1.0021
  107RES    O3029922   4.784   6.234   1.940  0.7132 -0.2839 -0.0834
  107RES    C3129923   4.906   6.248   1.874 -0.0403  0.0703  1.2412
  107RES    C3229924   4.892   6.242   1.721 -0.4131 -0.5485  0.2595
  107RES    C3329925   5.025   6.228   1.660  0.3084 -0.3726 -0.6582
  107RES    O3429926   5.032   6.209   1.516  0.0825  0.3788 -0.3838
  107RES    C3529927   4.997   6.073   1.468  0.0740  0.3276  0.2622
  107RES    H3629928   4.967   6.334   1.902 -1.9857  0.9137  3.0073
  107RES    H3729929   4.966   6.162   1.905  1.2517 -0.1955 -1.7544
  107RES    H3829930   4.834   6.151   1.710  1.5378 -1.9411  1.2577
  107RES    H3929931   5.073   6.138   1.700  1.9633  1.7681  2.3584
  107RES    H4029932   5.095   6.310   1.675 -0.0602  0.1428 -1.7439
  107RES    H4129933   5.047   5.991   1.518 -1.5818 -1.6236 -1.1843
  107RES    H4229934   5.015   6.062   1.361 -0.5386  0.9136  0.0896
  107RES    H4329935   4.891   6.049   1.474  0.5320 -1.1485  2.9171
  107RES    O4429936   4.842   6.364   1.671 -0.1437  0.4533 -0.1952
  107RES    C4529937   4.732   6.358   1.586 -0.5082 -0.3992  0.3656
  107RES    C4629938   4.706   6.494   1.514  1.2106 -0.7572 -0.1394
  107RES    C4729939   4.607   6.474   1.395  0.2555  0.1580  0.5813
  107RES    O4829940   4.658   6.548   1.286  0.3843  0.4736  0.2418
  107RES    C4929941   4.599   6.511   1.162 -0.5643 -0.5357 -0.3822
  107RES    H5029942   4.637   6.330   1.633 -0.7510 -0.5594 -0.2093
  107RES    H5129943   4.752   6.280   1.512  1.2452  1.8813 -1.6680
  107RES    H5229944   4.798   6.531   1.470  0.4282  0.7693 -0.5366
  107RES    H5329945   4.581   6.370   1.372 -0.8856  0.5281  0.1510
  107RES    H5429946   4.509   6.518   1.413  0.0244  0.7543 -1.9228
  107RES    H5529947   4.493   6.488   1.174  0.0975 -2.8723  1.2050
  107RES    H5629948   4.649   6.424   1.121  0.6065  0.5576 -1.3265
  107RES    H5729949   4.612   6.584   1.082  1.1781 -1.2487 -0.7650
  107RES    O5829950   4.645   6.585   1.605 -0.0029  0.1988  0.5540
  107RES    C5929951   4.673   6.724   1.560  0.3065 -0.5081 -1.1104
  107RES    C6029952   4.657   6.815   1.681 -0.0707 -0.1293 -0.0642
  107RES    C6129953   4.742   6.774   1.801 -0.4686  0.5008  0.2778
  107RES    O6229954   4.785   6.883   1.866  0.0508  0.3623  0.1974
  107RES    C6329955   4.843   6.862   1.989 -0.1201  0.1214  0.2085
  107RES    H6429956   4.622   6.751   1.468  0.6247  0.1043 -1.1123
  107RES    H6529957   4.780   6.729   1.536  0.4796  0.7181 -0.1696
  107RES    H6629958   4.680   6.919   1.658  2.4598 -0.7856 -0.6565
  107RES    H6729959   4.682   6.707   1.863 -2.7099  0.1370 -2.2134
  107RES    H6829960   4.816   6.708   1.758 -1.3509 -1.0909  1.1347
  107RES    H6929961   4.939   6.912   2.002  0.8898 -1.4934 -0.7537
  107RES    H7029962   4.889   6.763   1.996 -0.2405  0.0411 -0.1387
  107RES    H7129963   4.772   6.869   2.071 -0.6416  0.8856 -0.3066
  107RES    O7229964   4.523   6.805   1.716  0.2578  0.4087 -0.5571
  107RES    C7329965   4.425   6.882   1.637 -0.9796  0.3062 -0.1220
  107RES    C7429966   4.289   6.898   1.706 -0.6327  0.2469  0.4322
  107RES    C7529967   4.173   6.903   1.601 -0.0434 -0.2057 -0.2160
  107RES    O7629968   4.200   7.005   1.515  1.0611 -1.2008  0.2776
  107RES    C7729969   4.107   7.016   1.408  0.8969 -0.2546 -0.3244
  107RES    H7829970   4.473   6.978   1.616 -0.6025  0.0375 -0.5148
  107RES    H7929971   4.404   6.843   1.537 -2.9692  2.0314 -0.4031
  107RES    H8029972   4.268   6.800   1.748  0.6682 -0.2745 -0.1005
  107RES    H8129973   4.073   6.922   1.639  0.4451  2.3985 -0.0750
  107RES    H8229974   4.185   6.811   1.544 -1.6935 -0.8184  0.4213
  107RES    H8329975   4.118   7.105   1.345  2.0085  1.8540  2.6904
  107RES    H8429976   4.014   7.040   1.460  1.2733  0.5791 -0.0185
  107RES    H8529977   4.118   6.928   1.345  2.7153 -0.0560 -0.3078
  107RES    O8629978   4.307   6.995   1.804  0.2951  0.4461 -0.4408
  107RES    C8729979   4.232   6.959   1.924  0.0158  0.1898  0.0405
  107RES    C8829980   4.248   7.075   2.024  0.4173  0.3416 -0.3607
  107RES    C8929981   4.135   7.073   2.133  0.3263 -0.4906  0.5351
  107RES    O9029982   4.173   7.163   2.233  0.2862  0.1819 -0.0755
  107RES    C9129983   4.085   7.169   2.340  0.0145  0.1724 -0.3824
  107RES    H9229984   4.126   6.965   1.903  0.0147  1.8512  0.4741
  107RES    H9329985   4.257   6.860   1.962  0.3829  0.8386  1.5262
  107RES    H9429986   4.244   7.172   1.975  0.5403  0.1170 -0.8179
  107RES    H9529987   4.041   7.098   2.084 -0.2825 -0.3291  1.7812
  107RES    H9629988   4.117   6.970   2.164 -1.6767  0.5301  2.9744
  107RES    H9729989   3.986   7.199   2.304 -0.1584 -1.0071 -0.8840
  107RES    H9829990   4.090   7.069   2.384  0.2984  0.7176  0.8600
  107RES    H9929991   4.116   7.237   2.420 -0.4320 -0.0106 -0.0483
  107RES   O10029992   4.370   7.057   2.101  0.7190 -0.1896 -0.1467
  107RES   C10129993   4.479   7.086   2.024  0.3971 -0.0508 -0.4788
  107RES   C10229994   4.592   7.131   2.115 -0.1950 -0.8401 -0.2644
  107RES   C10329995   4.719   7.173   2.027  0.0785 -0.1141 -0.0744
  107RES   O10429996   4.706   7.313   2.013  0.0748 -0.4544  0.0180
  107RES   C10529997   4.809   7.358   1.930  0.5462  0.8888 -0.4620
  107RES   H10629998   4.456   7.166   1.953 -0.4461  1.1842  1.1444
  107RES   H10729999   4.517   6.993   1.982 -0.5128 -0.8506  0.4310
  107RES   H10830000   4.561   7.221   2.169 -0.3604 -0.4941 -0.9349
  107RES   H10930001   4.731   7.114   1.936  0.7970  1.2714 -0.8869
  107RES   H11030002   4.812   7.166   2.083 -0.2643  4.1255  1.1324
  107RES   H11130003   4.787   7.462   1.903  1.8940  0.8031 -1.9873
  107RES   H11230004   4.811   7.307   1.833  0.7551 -0.7916  0.4218
  107RES   H11330005   4.909   7.358   1.974  0.1118  0.9808  0.5377
  107RES   O11430006   4.631   7.032   2.209 -1.0800  0.2249 -0.2183
  107RES   C11530007   4.605   7.066   2.343 -0.0398 -0.3537 -0.6684
  107RES   C11630008   4.645   6.958   2.440 -0.6341  1.2163  0.1336
  107RES   C11730009   4.605   6.825   2.385 -0.8627 -0.6951  0.5227
  107RES   O11830010   4.582   6.728   2.487 -0.4089  0.0878  0.3751
  107RES   C11930011   4.558   6.595   2.444  0.5663  0.2221  0.1501
  107RES   H12030012   4.661   7.155   2.375  1.2940 -1.9851  1.7609
  107RES   H12130013   4.499   7.089   2.350  0.4866  2.2107 -0.4575
  107RES   H12230014   4.590   6.986   2.530  0.2316  2.5477  0.2562
  107RES   H12330015   4.517   6.839   2.322 -0.3864 -0.7517 -0.1601
  107RES   H12430016   4.679   6.796   2.310 -0.8354  0.8954 -0.0759
  107RES   H12530017   4.472   6.570   2.382  1.7084 -2.0603 -0.6014
  107RES   H12630018   4.544   6.536   2.535 -0.5103  0.2513  0.0083
  107RES   H12730019   4.645   6.542   2.404  0.9874  0.5244  0.6463
  107RES   O12830020   4.785   6.967   2.472 -0.1460  0.0957 -0.6874
  107RES   C12930021   4.833   6.922   2.602  0.1132 -0.3778 -0.2576
  107RES   C13030022   4.840   7.042   2.697 -0.3686  0.4469 -0.1820
  107RES   C13130023   4.926   7.028   2.820 -0.3236  0.4222 -0.2112
  107RES   O13230024   4.990   7.159   2.823  0.1206  0.5555  0.2446
  107RES   C13330025   5.125   7.140   2.804 -0.6231  0.1600  0.3822
  107RES   H13430026   4.778   6.836   2.639  0.3133 -0.2301  0.3856
  107RES   H13530027   4.937   6.894   2.583  0.4364  0.5640  0.0886
  107RES   H13630028   4.872   7.129   2.640  0.2545  0.0469 -0.4490
  107RES   H13730029   4.996   6.946   2.808 -1.8570 -0.9197 -0.0898
  107RES   H13830030   4.869   7.015   2.912 -0.2296 -0.7344 -0.3068
  107RES   H13930031   5.151   7.114   2.701 -1.5548  0.2886  0.1098
  107RES   H14030032   5.166   7.241   2.810 -0.5356  0.0719  1.2371
  107RES   H14130033   5.169   7.077   2.881 -0.3079  0.6393  0.5942
  107RES   O14230034   4.707   7.075   2.736  0.0864 -0.1422 -0.0566
  107RES   C14330035   4.680   7.211   2.785 -0.0938  0.3549  0.3707
  107RES   C14430036   4.531   7.242   2.782 -0.0428  0.2556  0.3162
  107RES   C14530037   4.508   7.387   2.761  0.2337  0.0719 -0.3153
  107RES   O14630038   4.365   7.415   2.757 -0.1222  0.1770 -0.2513
  107RES   C14730039   4.338   7.551   2.758 -0.1916 -0.2802  0.3617
  107RES   H14830040   4.740   7.244   2.870  0.3355 -2.4311  1.1887
  107RES   H14930041   4.725   7.273   2.707 -1.2057  0.7181  0.0148
  107RES   H15030042   4.480   7.195   2.698 -2.0354  2.5637  0.1738
  107RES   H15130043   4.540   7.416   2.661 -0.2361  0.7942 -0.2568
  107RES   H15230044   4.557   7.447   2.837 -0.9041 -0.4048  0.8252
  107RES   H15330045   4.232   7.572   2.744  0.3787  1.1911 -2.1102
  107RES   H15430046   4.396   7.603   2.681  0.7522 -3.5872 -1.2390
  107RES   H15530047   4.374   7.601   2.848  1.9777  1.0646 -1.2058
  107RES   O15630048   4.472   7.219   2.907  0.7108  0.3968  0.2246
  107RES   C15730049   4.455   7.084   2.957 -0.0393  1.1550  0.7075
  107RES   C15830050   4.391   7.095   3.099  0.5518 -0.2182  0.3476
  107RES   C15930051   4.362   6.955   3.158 -0.2328 -0.1035 -0.2623
  107RES   O16030052   4.330   6.955   3.293 -0.1334 -0.1339  0.1161
  107RES   C16130053   4.269   6.840   3.342 -0.3982  0.6143 -0.1443
  107RES   H16230054   4.394   7.019   2.894 -0.3151 -0.0737  2.2069
  107RES   H16330055   4.548   7.028   2.963  0.4207  1.9899  1.4040
  107RES   H16430056   4.467   7.138   3.165 -1.2736  0.2260  2.2130
  107RES   H16530057   4.272   6.924   3.104 -1.2364 -0.2525  1.4354
  107RES   H16630058   4.446   6.890   3.133  1.1272  0.6671  2.1372
  107RES   H16730059   4.170   6.835   3.299  0.7614 -0.3193 -2.8012
  107RES   H16830060   4.266   6.848   3.451 -0.3758  1.8686 -0.2394
  107RES   H16930061   4.311   6.743   3.315 -4.0059 -1.0128 -0.1464
  107RES   O17030062   4.261   7.164   3.099  0.1000  0.6374  0.1879
  107RES   C17130063   4.266   7.304   3.078  0.0012  0.0862  0.0506
  107RES   C17230064   4.152   7.368   3.152  0.2961  0.3845 -0.5889
  107RES   C17330065   4.115   7.504   3.086  0.5911 -0.2435  0.4388
  107RES   O17430066   3.978   7.547   3.122  0.3891 -0.1963  0.0975
  107RES   C17530067   3.877   7.480   3.056 -0.0469 -0.3182 -0.0049
  107RES   H17630068   4.260   7.320   2.970  1.2166  1.7883  0.2242
  107RES   H17730069   4.362   7.352   3.099  0.0265  0.9185 -1.8526
  107RES   H17830070   4.068   7.298   3.155  0.8629 -0.3601 -1.8109
  107RES   H17930071   4.185   7.581   3.119  0.1752 -0.2396  1.3142
  107RES   H18030072   4.125   7.504   2.977  3.2685 -4.6396  0.5590
  107RES   H18130073   3.875   7.372   3.069 -0.3892 -0.3429 -0.2556
  107RES   H18230074   3.873   7.505   2.950 -2.6119 -3.5026 -0.7501
  107RES   H18330075   3.779   7.508   3.098 -0.5369 -1.0911 -0.6361
  107RES   O18430076   4.200   7.395   3.280  0.4971  0.2052  0.0335
  107RES   C18530077   4.187   7.290   3.373 -0.1881 -0.7003 -0.0630
  107RES   C18630078   4.265   7.332   3.499  0.5930 -0.3842  0.0848
  107RES   C18730079   4.417   7.294   3.487 -0.1380  0.4321  0.4380
  107RES   O18830080   4.505   7.360   3.579  0.7775  0.7490  0.6745
  107RES   C18930081   4.622   7.293   3.607  0.4080  0.6200 -0.5229
  107RES   H19030082   4.220   7.195   3.330 -0.5029 -1.5039  1.4612
  107RES   H19130083   4.080   7.282   3.396 -0.0435 -1.2549  0.4375
  107RES   H19230084   4.257   7.439   3.516  3.5163 -0.6555  3.6697
  107RES   H19330085   4.451   7.311   3.385 -2.7392 -1.9438 -0.8834
  107RES   H19430086   4.432   7.187   3.491  0.3798  0.4968  0.2481
  107RES   H19530087   4.618   7.197   3.659 -0.8162  1.2981  0.6661
  107RES   H19630088   4.681   7.276   3.517 -1.3082  2.0207 -1.9607
  107RES   H19730089   4.672   7.359   3.677  1.3244 -1.4908  0.8711
  107RES   O19830090   4.207   7.264   3.612 -0.4237  0.2272  0.2122
  107RES   C19930091   4.267   7.310   3.732  0.3813 -0.0582 -0.1824
  107RES   C20030092   4.187   7.244   3.855 -0.4269 -0.6079 -0.2580
  107RES   C20130093   4.181   7.332   3.978 -0.0790 -0.2324 -0.1323
  107RES   O20230094   4.064   7.304   4.053 -0.3025 -0.1939 -0.3247
  107RES   C20330095   4.071   7.369   4.178  0.2227  0.2017 -0.4061
  107RES   H20430096   4.254   7.418   3.733 -1.2429 -0.2346 -0.0733
  107RES   H20530097   4.369   7.281   3.755  0.5910 -0.3220 -1.4100
  107RES   H20630098   4.085   7.237   3.818  0.4072 -1.1353 -2.5411
  107RES   H20730099   4.271   7.322   4.037 -0.4650  0.0426  0.5063
  107RES   H20830100   4.170   7.438   3.954  1.6170 -0.3005 -1.2486
  107RES   H20930101   4.075   7.476   4.158  0.9826  0.4580  1.0652
  107RES   H21030102   4.160   7.329   4.226  0.1182 -0.2133 -0.5589
  107RES   H21130103   3.982   7.336   4.231  0.0777 -1.5005 -1.6659
  107RES   O21230104   4.238   7.108   3.895 -0.3473  0.3919 -0.8663
  107RES   C21330105   4.202   6.996   3.812  0.2397 -0.2801 -0.6286
  107RES   C21430106   4.204   6.875   3.906 -0.4814  0.1828  0.5741
  107RES   C21530107   4.216   6.740   3.831 -0.2911  0.4488  0.5322
  107RES   O21630108   4.243   6.619   3.898 -0.0786 -0.2780  0.2806
  107RES   C21730109   4.128   6.548   3.929  0.0489 -0.4273  0.4474
  107RES   H21830110   4.282   6.981   3.740 -0.7174 -1.1828 -1.5212
  107RES   H21930111   4.109   7.002   3.756 -0.0212 -0.0518 -0.1685
  107RES   H22030112   4.281   6.878   3.983 -1.3516  1.2662  1.4097
  107RES   H22130113   4.129   6.719   3.770 -0.4126  0.5851  0.6587
  107RES   H22230114   4.298   6.747   3.760 -2.3166 -0.7747 -1.9913
  107RES   H22330115   4.081   6.503   3.842  0.0432 -1.5629  1.0146
  107RES   H22430116   4.056   6.611   3.980 -0.6574 -2.1989  1.7054
  107RES   H22530117   4.160   6.469   3.998 -0.9457 -1.1369  0.1151
  107RES   O22630118   4.069   6.885   3.961  0.0268 -1.0282  0.2651
  107RES   C22730119   4.062   6.925   4.098 -0.0442  0.5853 -0.7652
  107RES   C22830120   3.913   6.949   4.140  0.2134  0.7473  0.2621
  107RES   C22930121   3.836   6.815   4.149  0.3228 -0.0506  0.1566
  107RES   O23030122   3.699   6.841   4.135  0.4467  0.2427 -0.7433
  107RES   C23130123   3.612   6.729   4.157 -0.3638 -0.8680  0.4716
  107RES   H23230124   4.112   7.021   4.114 -0.6594  0.9634 -1.1033
  107RES   H23330125   4.115   6.856   4.164 -1.2545  1.3526  1.0537
  107RES   H23430126   3.874   7.004   4.054  0.2687 -2.0485 -1.6254
  107RES   H23530127   3.862   6.768   4.243 -0.0684  0.0745  0.3264
  107RES   H23630128   3.882   6.748   4.076 -1.2694  0.1286 -1.0312
  107RES   H23730129   3.510   6.752   4.126 -0.0079  0.0268 -0.0676
  107RES   H23830130   3.603   6.703   4.262  0.2695 -1.0450  0.4793
  107RES   H23930131   3.663   6.659   4.092 -0.4844  1.0965 -1.8342
  107RES   O24030132   3.914   7.015   4.268  0.1641  0.4476 -0.0377
  107RES   C24130133   3.782   7.058   4.311 -0.5536 -0.4733 -0.6907
  107RES   C24230134   3.776   7.176   4.410 -0.5272  0.5779 -0.0097
  107RES   C24330135   3.635   7.221   4.456 -0.1864  0.3326 -0.7908
  107RES   O24430136   3.627   7.362   4.452  0.2935 -0.7733  0.0934
  107RES   C24530137   3.501   7.415   4.459  0.4175 -0.1365 -0.1749
  107RES   H24630138   3.731   6.979   4.367 -0.7476  0.8542  1.0541
  107RES   H24730139   3.729   7.089   4.221 -1.6425 -1.2003 -0.3114
  107RES   H24830140   3.824   7.265   4.367 -0.3467  0.9706  0.9941
  107RES   H24930141   3.574   7.193   4.370 -1.9335  0.0376  0.5192
  107RES   H25030142   3.599   7.163   4.541  0.8414  1.0693  0.1566
  107RES   H25130143   3.498   7.520   4.430  1.8066  0.3366  1.3053
  107RES   H25230144   3.450   7.399   4.555  0.6260  0.7000  0.0778
  107RES   H25330145   3.438   7.378   4.379  0.2696  1.9129 -1.0318
  107RES   O25430146   3.849   7.144   4.530 -0.7410  0.5843 -0.2142
  107RES   C25530147   3.963   7.220   4.557  0.1795 -0.2723  0.5429
  107RES   C25630148   4.022   7.175   4.694 -0.2103  0.1587 -0.2266
  107RES   C25730149   4.149   7.255   4.731 -0.5098  0.7680  0.3879
  107RES   O25830150   4.217   7.203   4.844 -0.4797  0.0015  0.4309
  107RES   C25930151   4.285   7.082   4.831 -0.0388 -1.0516  0.9923
  107RES   H26030152   4.036   7.203   4.478  0.1243  3.5493 -0.4394
  107RES   H26130153   3.933   7.325   4.550  0.5375 -0.2878 -1.5069
  107RES   H26230154   4.039   7.067   4.703 -0.8520  0.0504 -0.2687
  107RES   H26330155   4.227   7.260   4.655 -1.5413 -1.0154 -0.8221
  107RES   H26430156   4.127   7.361   4.746  1.4432  1.1658  0.6148
  107RES   H26530157   4.212   7.003   4.852 -0.9909 -0.8377 -1.3473
  107RES   H26630158   4.344   7.068   4.921  2.0897 -0.6479 -0.3258
  107RES   H26730159   4.329   7.050   4.737 -0.2983  0.9115  0.1737
  107RES   O26830160   3.924   7.208   4.799  0.4150  0.0341 -0.2111
  107RES   C26930161   3.846   7.099   4.845 -0.4313 -0.2401  0.5848
  107RES   C27030162   3.761   7.157   4.954 -0.2223  1.0730 -0.1199
  107RES   C27130163   3.659   7.052   5.002 -0.4052  0.5486 -0.3506
  107RES   O27230164   3.736   6.952   5.066 -0.7591  0.6388  0.1573
  107RES   C27330165   3.660   6.835   5.099  0.2748  0.5068 -0.9093
  107RES   H27430166   3.901   7.013   4.885  0.0166  0.2968  1.1346
  107RES   H27530167   3.780   7.056   4.770 -0.6976  0.2884  0.5193
  107RES   H27630168   3.809   7.191   5.046 -0.5603 -1.0978  0.9039
  107RES   H27730169   3.601   7.026   4.913 -0.2322  1.5962 -0.7727
  107RES   H27830170   3.579   7.096   5.061 -1.1320 -0.3351 -0.6600
  107RES   H27930171   3.719   6.765   5.160 -1.8811 -0.1065  0.5142
  107RES   H28030172   3.618   6.775   5.018 -1.0743 -0.0560  0.1960
  107RES   H28130173   3.574   6.865   5.159  1.8257  2.2993  0.4857
  107RES   H28230174   3.708   7.243   4.915  1.0462  0.3186 -3.6749
  108RES     O130175   4.641   1.469   6.605 -0.5177  0.0205  0.3011
  108RES     C230176   4.735   1.418   6.699 -0.7701 -0.6373  0.2322
  108RES     C330177   4.861   1.395   6.617 -0.0321 -0.1110  0.7608
  108RES     C430178   4.979   1.365   6.712 -0.2098  0.0342  0.2549
  108RES     O530179   5.095   1.414   6.655 -0.1161  0.4656  0.5628
  108RES     C630180   5.208   1.385   6.721 -0.0442 -0.0597  0.0208
  108RES     H730181   4.762   1.506   6.757  1.3032 -0.7077 -0.6110
  108RES     H830182   4.714   1.328   6.757  0.5067 -2.0411 -1.4246
  108RES     H930183   4.879   1.484   6.557 -1.9188 -0.1425  0.1279
  108RES    H1030184   4.985   1.263   6.751 -0.5626 -0.6283 -1.3701
  108RES    H1130185   4.961   1.426   6.800  1.9730  1.2232 -0.0991
  108RES    H1230186   5.238   1.281   6.734 -0.2178  0.1773  2.4984
  108RES    H1330187   5.304   1.421   6.683  0.5372 -0.4669  1.1021
  108RES    H1430188   5.204   1.421   6.823 -0.5916  1.5862 -0.5743
  108RES    H1530189   4.624   1.406   6.536 -1.2480  0.9728 -0.3988
  108RES    O1630190   4.844   1.280   6.533 -0.1960  0.2301  1.0160
  108RES    C1730191   4.882   1.294   6.391 -0.4337 -0.4588  1.4540
  108RES    C1830192   4.881   1.159   6.311 -0.3677 -0.4507 -0.5581
  108RES    C1930193   4.878   1.190   6.160 -0.6140 -0.2285 -0.3907
  108RES    O2030194   4.745   1.197   6.116  0.0336 -0.6760 -0.7533
  108RES    C2130195   4.736   1.217   5.978  0.5841  0.0817  0.6986
  108RES    H2230196   4.983   1.336   6.385 -0.9174  0.4719 -0.4781
  108RES    H2330197   4.824   1.370   6.339  0.9322 -1.5085 -1.7368
  108RES    H2430198   4.796   1.096   6.339  0.3694 -1.2586 -0.1126
  108RES    H2530199   4.929   1.284   6.143  1.9862 -1.4763  0.3072
  108RES    H2630200   4.924   1.107   6.106  0.2086  0.1898 -0.3428
  108RES    H2730201   4.745   1.118   5.933 -1.3499  0.5226 -0.7260
  108RES    H2830202   4.807   1.290   5.939 -1.3873  1.6252 -0.0956
  108RES    H2930203   4.634   1.252   5.959  1.3759  1.3517 -1.3540
  108RES    O3030204   5.003   1.089   6.328  0.3455  0.2350 -0.2134
  108RES    C3130205   5.012   0.997   6.442 -0.3463  0.7196  0.3649
  108RES    C3230206   5.160   0.983   6.481 -0.5255  0.2425  0.3276
  108RES    C3330207   5.241   0.924   6.367 -0.1938  0.6419 -0.4746
  108RES    O3430208   5.378   0.918   6.393 -0.0563  0.1656  0.0868
  108RES    C3530209   5.455   0.914   6.271  1.0941 -0.2166  0.3332
  108RES    H3630210   4.954   1.044   6.521  1.5424 -0.0835  2.2545
  108RES    H3730211   4.971   0.897   6.427 -1.9666  1.3756  0.3389
  108RES    H3830212   5.202   1.078   6.513 -3.0919  1.0028  1.6300
  108RES    H3930213   5.221   0.959   6.266 -1.2973 -1.9802 -1.1885
  108RES    H4030214   5.201   0.823   6.360  1.7027 -0.1968  0.2419
  108RES    H4130215   5.557   0.892   6.301  1.2095 -0.8236 -0.5012
  108RES    H4230216   5.447   1.017   6.235 -0.8366  0.1495  1.7037
  108RES    H4330217   5.425   0.839   6.198 -0.8375  1.4006 -0.5889
  108RES    O4430218   5.164   0.888   6.593 -0.4566 -0.1936 -0.2028
  108RES    C4530219   5.146   0.949   6.729  0.2283 -0.2127 -0.2553
  108RES    C4630220   5.057   0.872   6.819 -1.0283  0.0926 -0.6091
  108RES    C4730221   5.127   0.752   6.878 -0.5862  0.1825  0.0913
  108RES    O4830222   5.246   0.773   6.952 -0.4491 -0.6151  0.4310
  108RES    C4930223   5.223   0.837   7.070  0.2209 -0.2475 -0.3565
  108RES    H5030224   5.103   1.048   6.717 -0.8261 -0.7212 -0.7976
  108RES    H5130225   5.245   0.975   6.765  1.1206 -0.9736 -2.0995
  108RES    H5230226   4.983   0.828   6.752 -0.8492 -2.5857  0.8862
  108RES    H5330227   5.059   0.691   6.938 -1.8558 -0.3255 -1.8062
  108RES    H5430228   5.159   0.693   6.792 -1.3410  0.4177 -0.3482
  108RES    H5530229   5.139   0.798   7.127 -0.6669  0.6714 -1.0221
  108RES    H5630230   5.206   0.944   7.054  1.4172  0.7710  4.5077
  108RES    H5730231   5.313   0.818   7.127 -1.6617 -3.6087  1.6020
  108RES    O5830232   5.005   0.960   6.917 -0.1572 -0.5137  0.2579
  108RES    C5930233   4.873   1.007   6.889 -0.0073  0.0775  1.0515
  108RES    C6030234   4.825   1.090   7.012  0.5692  0.3759 -1.1877
  108RES    C6130235   4.673   1.107   7.012 -0.5091 -0.1183 -1.1809
  108RES    O6230236   4.626   1.170   6.888 -0.4468  0.0302 -0.3098
  108RES    C6330237   4.479   1.180   6.890 -0.4076 -0.0819 -0.5680
  108RES    H6430238   4.808   0.922   6.870 -0.6260  0.6952  0.3090
  108RES    H6530239   4.884   1.077   6.805 -0.5234 -1.1758 -0.0749
  108RES    H6630240   4.840   1.026   7.099 -0.8607 -0.0295 -1.2197
  108RES    H6730241   4.628   1.009   7.028  1.4363 -1.0253 -1.1135
  108RES    H6830242   4.648   1.155   7.106  2.2810 -0.1226 -0.4080
  108RES    H6930243   4.446   1.245   6.809  4.0633  1.2158 -1.5384
  108RES    H7030244   4.453   1.233   6.982 -1.3932 -1.6877  0.0905
  108RES    H7130245   4.426   1.087   6.871  0.4935 -0.5681 -0.7236
  108RES    O7230246   4.882   1.221   7.031  0.1575 -0.2187 -0.6806
  108RES    C7330247   5.019   1.229   7.061 -0.2407 -0.2140 -0.6044
  108RES    C7430248   5.076   1.354   7.124 -0.2116  0.3839 -0.0990
  108RES    C7530249   5.223   1.360   7.107 -0.3729  0.3329  0.4489
  108RES    O7630250   5.271   1.485   7.132 -0.0919  0.3197  0.6691
  108RES    C7730251   5.407   1.489   7.163 -0.3109 -0.7704 -0.9853
  108RES    H7830252   5.058   1.141   7.112  0.1110  0.1521 -0.2409
  108RES    H7930253   5.058   1.230   6.959 -1.6397  2.2680 -1.1804
  108RES    H8030254   5.028   1.443   7.082  1.1765  1.3616  0.3364
  108RES    H8130255   5.257   1.327   7.008  0.1012 -2.6695  1.5504
  108RES    H8230256   5.263   1.283   7.173  0.0319 -0.4019 -0.6219
  108RES    H8330257   5.458   1.446   7.077  0.6287  0.8808 -1.2667
  108RES    H8430258   5.423   1.450   7.264 -1.2073  1.4973  0.0706
  108RES    H8530259   5.438   1.593   7.175 -0.3970 -0.4377 -3.4171
  108RES    O8630260   5.044   1.341   7.263 -0.3721  0.0732  1.0265
  108RES    C8730261   4.977   1.460   7.314  0.1327  0.7407  0.6199
  108RES    C8830262   4.966   1.450   7.471  0.3987  0.6931  0.4572
  108RES    C8930263   4.970   1.588   7.532  0.0861  0.1024 -0.1973
  108RES    O9030264   5.018   1.574   7.663  0.3499  0.0756  0.5104
  108RES    C9130265   5.010   1.694   7.736 -0.1562  0.0990 -0.2437
  108RES    H9230266   5.037   1.546   7.282  0.0941  0.0982 -1.2212
  108RES    H9330267   4.882   1.475   7.263  0.7190  0.3198 -0.6088
  108RES    H9430268   5.056   1.404   7.512  0.4364  1.9829  1.8687
  108RES    H9530269   5.030   1.658   7.474  1.7221 -1.3094 -0.2753
  108RES    H9630270   4.872   1.633   7.542 -1.8259 -3.1971 -2.6707
  108RES    H9730271   5.064   1.781   7.699  1.4351 -0.7274  0.1122
  108RES    H9830272   4.906   1.717   7.757 -0.0524 -0.5232  1.0225
  108RES    H9930273   5.057   1.678   0.016 -3.5506 -1.9586  1.1553
  108RES   O10030274   4.845   1.382   7.498  0.3684  0.1629  0.1532
  108RES   C10130275   4.827   1.336   7.624 -0.0370  0.2880  0.5500
  108RES   C10230276   4.701   1.250   7.633  0.1944 -0.1190 -0.0748
  108RES   C10330277   4.580   1.339   7.615 -0.2311 -0.3077 -0.3092
  108RES   O10430278   4.462   1.264   7.596 -0.0112  0.3880 -0.1176
  108RES   C10530279   4.355   1.353   7.568 -0.2833 -0.1637  0.0567
  108RES   H10630280   4.841   1.418   7.695 -2.5893  0.1410  1.2917
  108RES   H10730281   4.907   1.266   7.647 -0.5552 -0.0216  1.4090
  108RES   H10830282   4.695   1.171   7.558  1.2093 -0.4792  0.2174
  108RES   H10930283   4.588   1.404   7.528 -1.5807  2.3862  1.5210
  108RES   H11030284   4.579   1.402   7.704 -1.0531 -1.1756  0.3029
  108RES   H11130285   4.273   1.285   7.543 -1.1627  0.5195  1.0569
  108RES   H11230286   4.379   1.422   7.487  1.0609 -1.9667 -1.1087
  108RES   H11330287   4.316   1.419   7.645  1.4519  0.6155  0.2789
  108RES   O11430288   4.701   1.178   7.755  0.0446 -0.0561  0.2885
  108RES   C11530289   4.635   1.053   7.757 -0.6596  0.0068  0.3003
  108RES   C11630290   4.634   1.006   0.092  0.1122  0.0968  0.0239
  108RES   C11730291   4.509   0.914   0.123  0.0294 -0.1769 -0.4599
  108RES   O11830292   4.466   0.926   0.259  0.6606 -0.1546  0.1455
  108RES   C11930293   4.551   0.871   0.356  0.0873 -0.2911  0.0161
  108RES   H12030294   4.536   1.058   7.711 -0.4119  0.2962 -0.2017
  108RES   H12130295   4.694   0.980   7.703  0.6117  0.3963  1.1412
  108RES   H12230296   4.635   1.089   0.164 -0.7058 -1.1060  1.4621
  108RES   H12330297   4.431   0.952   0.057  0.0549  1.5737  0.4764
  108RES   H12430298   4.527   0.813   0.087 -2.3444 -0.5209 -0.8104
  108RES   H12530299   4.503   0.882   0.453  2.9397 -1.7952  1.6616
  108RES   H12630300   4.643   0.929   0.348 -1.2645  1.8178 -0.7798
  108RES   H12730301   4.569   0.764   0.350  0.0605 -0.2590 -0.6817
  108RES   O12830302   4.745   0.913   0.113  0.5226 -0.0902  0.0660
  108RES   C12930303   4.871   0.978   0.141 -0.3105 -0.0436 -0.9899
  108RES   C13030304   4.967   0.869   0.175  0.1266  0.0585 -0.5465
  108RES   C13130305   5.076   0.934   0.275  0.5270  1.1839 -0.4443
  108RES   O13230306   5.158   0.828   0.328  0.1696 -0.2779 -0.2913
  108RES   C13330307   5.093   0.733   0.409  0.3040  0.3258  0.4296
  108RES   H13430308   4.917   1.022   0.053  2.6327 -0.0296  0.5015
  108RES   H13530309   4.855   1.046   0.225 -2.5825  0.7981 -2.0551
  108RES   H13630310   4.910   0.790   0.223 -1.4666  2.1877  1.1739
  108RES   H13730311   5.025   0.981   0.359  0.3694  0.2694 -0.0215
  108RES   H13830312   5.135   1.013   0.228  0.6468  0.6343 -1.2305
  108RES   H13930313   5.037   0.666   0.344  0.3234  0.4964  0.2367
  108RES   H14030314   5.169   0.681   0.467 -1.2737 -2.4055  0.1166
  108RES   H14130315   5.041   0.781   0.491 -2.0320  0.0033 -0.8135
  108RES   O14230316   5.041   0.821   0.062 -0.2897 -0.3110 -0.2568
  108RES   C14330317   4.957   0.765   7.775 -0.2473  0.7935 -0.6187
  108RES   C14430318   5.030   0.762   7.643  0.2812  0.3846 -0.8979
  108RES   C14530319   5.012   0.897   7.570  0.0348  0.2140  0.3692
  108RES   O14630320   5.123   0.923   7.485  0.2030 -0.8821 -0.5078
  108RES   C14730321   5.103   1.049   7.413  0.9305 -0.5726 -0.7237
  108RES   H14830322   4.939   0.664   7.810 -0.9671  1.2877  0.4619
  108RES   H14930323   4.858   0.808   7.764 -0.2609  0.9121 -0.0306
  108RES   H15030324   5.134   0.740   7.666  1.4486  3.7177 -2.5728
  108RES   H15130325   5.019   0.976   7.645  1.4310  1.1859 -0.7520
  108RES   H15230326   4.914   0.908   7.523 -0.4331  0.9294  1.4935
  108RES   H15330327   5.087   1.134   7.479  0.9263  0.0701 -1.5331
  108RES   H15430328   5.023   1.040   7.340  1.2045 -0.8581 -0.9907
  108RES   H15530329   5.195   1.070   7.359  2.8045 -1.1495  2.1421
  108RES   O15630330   4.973   0.655   7.561  0.0089 -0.5699 -0.4733
  108RES   C15730331   5.043   0.628   7.444  0.0921  1.1082  0.4965
  108RES   C15830332   4.978   0.544   7.331 -0.2902  0.3802 -0.3830
  108RES   C15930333   5.081   0.498   7.230  0.6107 -0.1605 -0.0019
  108RES   O16030334   5.029   0.402   7.148  0.2815 -0.0238 -0.4826
  108RES   C16130335   5.106   0.352   7.043 -0.2577  0.3092  0.2566
  108RES   H16230336   5.076   0.718   7.393  2.6188 -0.6813 -1.1478
  108RES   H16330337   5.138   0.579   7.467  0.4478  1.4042 -0.3408
  108RES   H16430338   4.937   0.464   7.392  2.4032  0.6312  1.8232
  108RES   H16530339   5.105   0.582   7.165 -0.2598 -0.6051 -0.9135
  108RES   H16630340   5.178   0.460   7.262  1.4550 -0.5283 -2.8569
  108RES   H16730341   5.149   0.427   6.977 -1.9269  0.9507 -0.1276
  108RES   H16830342   5.051   0.285   6.977 -1.6811 -2.4355  4.0841
  108RES   H16930343   5.196   0.302   7.077 -0.3307  0.0899  0.1252
  108RES   O17030344   4.886   0.624   7.258  0.2983 -0.2182 -0.1562
  108RES   C17130345   4.763   0.625   7.320  0.1753 -0.2843  0.5254
  108RES   C17230346   4.675   0.734   7.256  0.0673 -0.3098  0.1100
  108RES   C17330347   4.576   0.803   7.354 -0.4428 -0.3041 -0.2566
  108RES   O17430348   4.560   0.928   7.287  0.0318  0.1694  0.3155
  108RES   C17530349   4.459   1.007   7.347 -0.2065  0.3909  0.1205
  108RES   H17630350   4.779   0.671   7.417  2.6293  0.3771 -0.1303
  108RES   H17730351   4.730   0.522   7.326 -0.1096 -0.1954  0.4740
  108RES   H17830352   4.747   0.809   7.223 -1.1565  0.4072 -0.9451
  108RES   H17930353   4.491   0.735   7.355  1.0361 -2.1815 -0.4239
  108RES   H18030354   4.612   0.811   7.457 -0.7453  0.5950 -0.2164
  108RES   H18130355   4.479   1.113   7.333 -0.7340  0.4907  0.1357
  108RES   H18230356   4.451   0.988   7.454  0.7041 -0.0203  0.1218
  108RES   H18330357   4.362   0.977   7.309  0.2209  0.2865 -0.8843
  108RES   O18430358   4.594   0.682   7.146  0.0421  0.1250  0.6546
  108RES   C18530359   4.672   0.676   7.034 -0.5532  0.7482 -0.4622
  108RES   C18630360   4.599   0.629   6.909  0.4963 -0.1529  0.1762
  108RES   C18730361   4.583   0.480   6.900 -0.0047  1.3644  0.5341
  108RES   O18830362   4.479   0.463   6.807  0.4193  0.2785 -0.8153
  108RES   C18930363   4.476   0.344   6.737  0.2437 -0.5092  0.0320
  108RES   H19030364   4.762   0.615   7.040  0.5745  2.4769  0.4912
  108RES   H19130365   4.707   0.778   7.018  2.1047 -0.1655 -0.6379
  108RES   H19230366   4.502   0.678   6.898  1.6580  1.8138 -1.8292
  108RES   H19330367   4.566   0.426   6.993  3.9828 -1.4996 -0.3042
  108RES   H19430368   4.675   0.432   6.868 -0.5540  0.0883  0.8122
  108RES   H19530369   4.494   0.246   6.782 -1.8567  0.0372  2.1867
  108RES   H19630370   4.374   0.320   6.705 -0.3215  0.9650  0.7074
  108RES   H19730371   4.529   0.361   6.644 -1.1251 -0.3048 -0.7223
  108RES   O19830372   4.672   0.671   6.791  0.3937 -0.1121  0.2225
  108RES   C19930373   4.597   0.739   6.684  0.3891  0.0268 -0.4737
  108RES   C20030374   4.686   0.761   6.566  0.3573 -0.1002  0.1750
  108RES   C20130375   4.601   0.798   6.436 -0.1157  0.8387 -0.5463
  108RES   O20230376   4.686   0.846   6.332  0.5024 -0.3873  0.3433
  108RES   C20330377   4.626   0.856   6.202  0.2158 -0.0827 -0.8854
  108RES   H20430378   4.541   0.825   6.721  1.1285 -0.1446  1.0932
  108RES   H20530379   4.520   0.668   6.655 -0.1097  0.4796 -0.2631
  108RES   H20630380   4.755   0.839   6.600 -0.4512 -0.6970  3.3637
  108RES   H20730381   4.531   0.721   6.404  1.9352 -0.8800 -1.0471
  108RES   H20830382   4.532   0.878   6.463  0.9139  1.2073  1.0516
  108RES   H20930383   4.620   0.755   6.160  2.3068 -1.3273  1.6607
  108RES   H21030384   4.692   0.911   6.136  0.7331  0.9754  0.4954
  108RES   H21130385   4.532   0.911   6.206 -0.1126 -0.6765  0.0714
  108RES   O21230386   4.749   0.638   6.532 -0.2087  0.3948 -1.0276
  108RES   C21330387   4.870   0.605   6.580 -0.0127  0.4900 -0.3081
  108RES   C21430388   4.905   0.464   6.538  0.3568  0.6927 -0.3834
  108RES   C21530389   4.981   0.389   6.643  0.6220 -0.1663  0.0652
  108RES   O21630390   5.074   0.470   6.705 -0.0943 -0.4004 -0.5484
  108RES   C21730391   5.215   0.447   6.676  0.7547  0.6195 -0.0018
  108RES   H21830392   4.873   0.613   6.689  0.2005 -1.2392 -0.1632
  108RES   H21930393   4.940   0.675   6.535  0.0723  0.3636 -0.3712
  108RES   H22030394   4.817   0.408   6.507  0.5825  0.2272 -0.1920
  108RES   H22130395   4.906   0.344   6.709  1.6689 -0.3903  1.1113
  108RES   H22230396   5.029   0.305   6.592 -0.1334 -0.7045  0.2184
  108RES   H22330397   5.273   0.516   6.737 -1.6165  2.1194  0.6137
  108RES   H22430398   5.239   0.469   6.572  0.6847 -2.1397 -0.6360
  108RES   H22530399   5.244   0.348   6.711  3.2101  1.8267  1.5264
  108RES   O22630400   4.981   0.465   6.413  1.0318  0.1939 -0.0207
  108RES   C22730401   4.921   0.534   6.304  0.0080  0.2081  0.7930
  108RES   C22830402   4.990   0.498   6.171 -0.2657  0.0659  0.2025
  108RES   C22930403   4.912   0.556   6.052  0.1096  0.1493 -0.1077
  108RES   O23030404   4.976   0.527   5.931 -0.6408  0.2419  0.1274
  108RES   C23130405   4.932   0.609   5.823 -0.0056  0.5429 -0.0227
  108RES   H23230406   4.930   0.642   6.315  0.3733  0.0632  2.0065
  108RES   H23330407   4.819   0.503   6.284  0.1755  1.3920 -2.1687
  108RES   H23430408   4.994   0.389   6.171 -1.4103  0.0200 -0.5357
  108RES   H23530409   4.920   0.663   6.071 -2.0982  0.0365  1.6840
  108RES   H23630410   4.808   0.523   6.046  0.2885 -0.7144  1.2844
  108RES   H23730411   4.823   0.616   5.819 -0.0429 -0.6748 -1.3564
  108RES   H23830412   4.975   0.586   5.726  0.8097  0.3852  0.3725
  108RES   H23930413   4.971   0.710   5.838  1.9201  0.2440 -2.6753
  108RES   O24030414   5.126   0.541   6.166  0.6395 -0.6754 -0.3022
  108RES   C24130415   5.227   0.460   6.222 -0.2080  0.1125  0.0037
  108RES   C24230416   5.379   0.501   6.196  0.3163  0.1118  0.4145
  108RES   C24330417   5.478   0.436   6.290  0.1436 -0.0642  0.5682
  108RES   O24430418   5.482   0.474   6.426  0.8216 -0.4794  0.3878
  108RES   C24530419   5.508   0.611   6.436  0.6539 -0.4970  0.1907
  108RES   H24630420   5.212   0.353   6.212 -1.0001 -0.1777  3.6100
  108RES   H24730421   5.214   0.481   6.328 -0.7739  0.0238 -0.0442
  108RES   H24830422   5.391   0.608   6.206  2.5641 -0.1266  0.6061
  108RES   H24930423   5.467   0.328   6.282 -0.5778  0.0268  0.3345
  108RES   H25030424   5.575   0.452   6.243  0.2062  0.6325  0.9200
  108RES   H25130425   5.411   0.654   6.411  0.1324 -0.6500  1.8408
  108RES   H25230426   5.591   0.647   6.376 -0.8226 -1.0317 -2.2373
  108RES   H25330427   5.525   0.637   6.541 -1.9116  1.0680  0.2799
  108RES   O25430428   5.424   0.463   6.067 -0.4663  0.2853 -0.1012
  108RES   C25530429   5.367   0.534   5.957  0.0417 -0.6038  0.1431
  108RES   C25630430   5.415   0.474   5.818 -0.2541 -0.2051 -0.3826
  108RES   C25730431   5.301   0.479   5.715  0.0895 -0.1727 -0.6290
  108RES   O25830432   5.360   0.436   5.594  0.6479  0.4110  0.4398
  108RES   C25930433   5.308   0.316   5.544 -0.4572 -0.2136  0.6620
  108RES   H26030434   5.259   0.525   5.963 -0.0246  0.8889  1.4899
  108RES   H26130435   5.407   0.635   5.965 -0.8262 -0.4664  3.4366
  108RES   H26230436   5.427   0.369   5.844 -1.1594 -0.2101  0.0448
  108RES   H26330437   5.218   0.417   5.749  0.1291  0.3159  0.3921
  108RES   H26430438   5.275   0.583   5.693  0.6149  0.4179  1.4034
  108RES   H26530439   5.200   0.328   5.546 -0.5088 -0.7446  1.0732
  108RES   H26630440   5.312   0.230   5.610  1.1181  0.2882  1.2554
  108RES   H26730441   5.335   0.287   5.442 -1.3750 -0.4409  0.4790
  108RES   O26830442   5.538   0.522   5.756  0.1251  0.1733  0.0976
  108RES   C26930443   5.657   0.487   5.825 -0.1306  0.8877  0.2632
  108RES   C27030444   5.773   0.539   5.738 -0.3582  0.0581  0.1414
  108RES   C27130445   5.891   0.452   5.758 -0.3372 -0.2628 -0.1824
  108RES   O27230446   5.984   0.522   5.684  0.0821  0.2297 -0.3530
  108RES   C27330447   6.115   0.460   5.688  0.2324  0.2726 -0.0862
  108RES   H27430448   5.658   0.378   5.830  0.4947  0.8676 -0.1807
  108RES   H27530449   5.669   0.518   5.928  2.6969  1.5408 -0.2313
  108RES   H27630450   5.735   0.522   5.637 -1.2379 -1.2742  0.6813
  108RES   H27730451   5.878   0.352   5.715 -1.4514 -0.7942  1.3453
  108RES   H27830452   5.915   0.431   5.862  0.6866 -0.3511 -0.4317
  108RES   H27930453   6.114   0.369   5.627  0.9177  1.1315 -1.4021
  108RES   H28030454   6.153   0.440   5.788  0.4867  2.3785  0.2490
  108RES   H28130455   6.182   0.536   5.647  0.0755  1.0748  1.1193
  108RES   H28230456   5.796   0.645   5.747  1.6510 -0.3643  0.0545
  109RES     O130457   2.615   0.601   6.585  0.1657 -0.0187  0.2487
  109RES     C230458   2.614   0.486   6.665 -0.2463  0.1450 -0.1279
  109RES     C330459   2.575   0.525   6.799  0.7597  0.6580  0.1658
  109RES     C430460   2.588   0.407   6.889 -0.2691  0.2956 -0.5993
  109RES     O530461   2.511   0.430   7.007  0.1657  0.4064  0.0431
  109RES     C630462   2.496   0.315   7.084 -0.1095  0.0792 -0.2293
  109RES     H730463   2.560   0.405   6.617  1.5353 -0.0632 -1.8424
  109RES     H830464   2.713   0.440   6.667 -0.2283  0.2386  1.3796
  109RES     H930465   2.475   0.570   6.803  0.9971  1.1289  1.1354
  109RES    H1030466   2.691   0.405   6.923 -1.1407 -2.3460  2.1052
  109RES    H1130467   2.570   0.309   6.845 -0.4991  0.5091 -0.9814
  109RES    H1230468   2.590   0.282   7.128 -0.4667 -1.6155 -0.6948
  109RES    H1330469   2.422   0.332   7.162 -2.6001 -0.7221 -2.2934
  109RES    H1430470   2.468   0.234   7.015  1.5897  0.3061 -1.2046
  109RES    H1530471   2.608   0.673   6.646 -1.7276  0.2623 -0.2661
  109RES    O1630472   2.657   0.639   6.834 -0.0108  0.1159 -0.0680
  109RES    C1730473   2.625   0.701   6.960 -0.2437  0.6173 -1.1282
  109RES    C1830474   2.697   0.839   6.986 -0.2396  0.5467 -0.5211
  109RES    C1930475   2.850   0.825   6.988  0.5868 -0.0816 -0.3887
  109RES    O2030476   2.898   0.939   7.059 -0.3528 -1.1093 -0.1842
  109RES    C2130477   3.042   0.936   7.082 -0.0220 -0.5192  1.2057
  109RES    H2230478   2.627   0.634   7.046 -2.8382 -0.2132 -1.6660
  109RES    H2330479   2.519   0.722   6.947 -0.0263  0.8148 -2.6262
  109RES    H2430480   2.671   0.866   7.089  1.0992  3.5223 -0.9155
  109RES    H2530481   2.885   0.739   7.046  1.8580 -0.0963 -1.1495
  109RES    H2630482   2.902   0.810   6.893 -0.2268 -1.8832 -0.5676
  109RES    H2730483   3.085   1.010   7.150  0.3068  0.1672  0.2574
  109RES    H2830484   3.090   0.948   6.985  1.2272 -0.7817  1.7839
  109RES    H2930485   3.079   0.840   7.120  1.5010 -0.9395 -1.2391
  109RES    O3030486   2.643   0.922   6.882  0.1645  0.0345  0.5507
  109RES    C3130487   2.705   1.049   6.868  0.4531 -0.4366  0.0807
  109RES    C3230488   2.637   1.122   6.746  0.0652  0.4393  0.2248
  109RES    C3330489   2.718   1.240   6.703  0.2784  0.0853  0.2141
  109RES    O3430490   2.749   1.326   6.813 -0.1981  0.7508  0.2131
  109RES    C3530491   2.822   1.435   6.766 -0.2018  0.0939 -0.5300
  109RES    H3630492   2.691   1.107   6.959  3.7641 -2.1449  1.7455
  109RES    H3730493   2.813   1.045   6.854  0.5846 -2.0799  1.4188
  109RES    H3830494   2.631   1.054   6.662 -0.9489  0.0767  0.5965
  109RES    H3930495   2.671   1.291   6.619  0.5846 -0.6941 -0.4405
  109RES    H4030496   2.809   1.221   6.647  1.6410  0.5031  2.2397
  109RES    H4130497   2.763   1.485   6.689  1.9176  0.0036 -2.2602
  109RES    H4230498   2.925   1.412   6.738 -0.7744 -1.6458 -1.3203
  109RES    H4330499   2.832   1.490   6.859 -1.0515  0.7455 -0.8239
  109RES    O4430500   2.506   1.165   6.788 -0.2489 -0.0346  0.0288
  109RES    C4530501   2.431   1.196   6.673 -0.3389 -0.1116  0.4666
  109RES    C4630502   2.289   1.155   6.712 -0.4368  0.0256 -0.3430
  109RES    C4730503   2.189   1.201   6.611 -0.1528  0.7825  0.8876
  109RES    O4830504   2.060   1.227   6.661 -0.4199 -0.1805 -0.5385
  109RES    C4930505   1.993   1.104   6.704 -0.1741  0.1008 -0.3030
  109RES    H5030506   2.451   1.141   6.580 -4.2125 -0.3214 -0.3024
  109RES    H5130507   2.431   1.304   6.657 -2.0533 -0.2431 -0.5303
  109RES    H5230508   2.266   1.212   6.801  0.1442  0.6704 -0.6063
  109RES    H5330509   2.227   1.299   6.583 -0.4418  0.6615  0.0405
  109RES    H5430510   2.198   1.149   6.515 -1.9678 -0.2110  1.2408
  109RES    H5530511   1.893   1.133   6.734  0.1746  0.2040  0.7817
  109RES    H5630512   2.040   1.048   6.785 -1.4506 -2.2365 -1.1293
  109RES    H5730513   1.985   1.048   6.610 -1.5626  0.4636 -0.4070
  109RES    O5830514   2.283   1.012   6.729  0.0989  0.1553  0.3876
  109RES    C5930515   2.281   0.975   6.868  0.4989  0.0619  1.0518
  109RES    C6030516   2.212   0.843   6.889 -0.2394  0.1351 -0.3919
  109RES    C6130517   2.244   0.736   6.777  0.0967  0.4133  0.6915
  109RES    O6230518   2.206   0.606   6.823 -0.5089  0.2358  0.2526
  109RES    C6330519   2.102   0.550   6.742 -0.1881  0.1234 -0.2268
  109RES    H6430520   2.248   1.054   6.936  2.6692  1.7922  0.1731
  109RES    H6530521   2.383   0.955   6.901  1.1589 -0.4021 -1.1732
  109RES    H6630522   2.253   0.811   6.985 -0.7434  1.0901  0.1487
  109RES    H6730523   2.196   0.774   6.687  1.2644  0.6197  0.1491
  109RES    H6830524   2.351   0.730   6.756 -0.4387  1.4878 -2.6811
  109RES    H6930525   2.009   0.593   6.781  0.2604  0.4006  0.5457
  109RES    H7030526   2.084   0.445   6.765 -3.7658  0.5628 -0.7580
  109RES    H7130527   2.107   0.561   6.634  1.5475 -2.9544 -0.5202
  109RES    O7230528   2.070   0.857   6.900 -0.5561  0.4026  0.3024
  109RES    C7330529   2.016   0.760   6.993 -0.0586 -0.7070  0.2075
  109RES    C7430530   1.856   0.759   6.980  0.1722  0.4469  0.4942
  109RES    C7530531   1.793   0.675   7.091  0.4598  0.3320 -0.5687
  109RES    O7630532   1.755   0.757   7.206 -0.8800  0.1000  0.3440
  109RES    C7730533   1.776   0.697   7.329  0.1090 -0.7570  0.3083
  109RES    H7830534   2.041   0.655   6.982 -1.5018 -1.1746  1.2622
  109RES    H7930535   2.047   0.798   7.091 -1.3862 -0.2320  0.4537
  109RES    H8030536   1.835   0.864   6.997 -1.5153  0.4171 -1.2490
  109RES    H8130537   1.854   0.588   7.115 -0.4305 -0.0099  0.5236
  109RES    H8230538   1.697   0.641   7.053 -1.0486  2.6117  1.0472
  109RES    H8330539   1.731   0.749   7.414 -0.6790 -0.8282 -0.0640
  109RES    H8430540   1.880   0.678   7.353  0.2716  0.4748  0.5891
  109RES    H8530541   1.724   0.601   7.333  1.4530 -1.4697  0.9128
  109RES    O8630542   1.801   0.720   6.854 -0.2738 -0.1214  0.0636
  109RES    C8730543   1.821   0.810   6.746  0.4838 -0.1667 -0.1510
  109RES    C8830544   1.749   0.762   6.614 -0.0239 -0.2691 -0.1520
  109RES    C8930545   1.684   0.874   6.533  0.0360 -0.0824 -0.0747
  109RES    O9030546   1.774   0.974   6.490  0.4653  0.1741  0.9739
  109RES    C9130547   1.708   1.092   6.445  0.7339  0.6256 -0.0352
  109RES    H9230548   1.777   0.906   6.771 -0.3102 -0.3743 -0.6939
  109RES    H9330549   1.926   0.826   6.725  0.9065 -0.1093  1.9329
  109RES    H9430550   1.669   0.694   6.643 -0.7272  1.3146  1.7043
  109RES    H9530551   1.643   0.829   6.443  0.3664 -2.2771  0.8101
  109RES    H9630552   1.599   0.917   6.586  1.2490  1.6182  0.5284
  109RES    H9730553   1.770   1.150   6.376 -0.1980  2.7173  0.8507
  109RES    H9830554   1.633   1.064   6.372  1.5004 -0.0944 -0.5509
  109RES    H9930555   1.670   1.162   6.519  0.6950 -1.1176  1.6273
  109RES   O10030556   1.852   0.681   6.547 -0.4923  0.3347  0.2883
  109RES   C10130557   1.805   0.575   6.460 -0.8225 -0.1768 -0.5913
  109RES   C10230558   1.887   0.568   6.329  0.5516  0.0610  0.0786
  109RES   C10330559   1.834   0.449   6.236 -0.8182  0.2039  0.6225
  109RES   O10430560   1.850   0.324   6.297  0.3560 -0.8752  0.6086
  109RES   C10530561   1.766   0.221   6.243 -0.3007 -0.1492 -0.4138
  109RES   H10630562   1.698   0.573   6.439 -1.0291  1.5189  0.2604
  109RES   H10730563   1.829   0.483   6.512 -0.1829 -0.9993 -2.2930
  109RES   H10830564   1.894   0.666   6.281 -2.2301  0.2102 -0.0792
  109RES   H10930565   1.882   0.440   6.138 -2.4726 -3.1089  0.0552
  109RES   H11030566   1.729   0.468   6.218 -0.5074 -1.7650 -3.8800
  109RES   H11130567   1.809   0.127   6.276 -0.8802 -0.3992 -0.3820
  109RES   H11230568   1.761   0.212   6.135 -2.7433  1.7116 -0.5065
  109RES   H11330569   1.668   0.228   6.289  0.1295  0.0135  0.5040
  109RES   O11430570   2.014   0.522   6.373 -0.4074 -0.0068  0.2238
  109RES   C11530571   2.120   0.549   6.285  0.1089  0.4095  0.1108
  109RES   C11630572   2.197   0.666   6.338  0.2299  1.1919 -0.3615
  109RES   C11730573   2.344   0.623   6.372 -0.4216 -0.1259  0.2223
  109RES   O11830574   2.410   0.586   6.252 -0.2246 -0.0572 -0.3148
  109RES   C11930575   2.547   0.560   6.264 -0.3975  0.1981 -0.0488
  109RES   H12030576   2.176   0.456   6.275 -1.5036 -0.7629  1.7598
  109RES   H12130577   2.093   0.552   6.179  0.2195 -2.8678 -0.0539
  109RES   H12230578   2.160   0.695   6.436  0.3099  0.2615 -0.0455
  109RES   H12330579   2.388   0.714   6.412  0.9718 -0.7703  0.1735
  109RES   H12430580   2.340   0.535   6.437  0.6992 -0.3230  0.0369
  109RES   H12530581   2.581   0.560   6.160 -4.1953 -0.3080 -1.3777
  109RES   H12630582   2.588   0.466   6.300  0.5262  0.8452  0.6130
  109RES   H12730583   2.596   0.637   6.324  0.3111  1.9629 -2.7949
  109RES   O12830584   2.207   0.774   6.244  0.0463 -0.1860  0.4720
  109RES   C12930585   2.133   0.891   6.294 -0.5148  0.2092 -0.2299
  109RES   C13030586   2.114   0.992   6.178 -0.3914 -0.3046 -0.2536
  109RES   C13130587   2.053   1.123   6.234 -0.1718 -0.2609 -0.0145
  109RES   O13230588   2.069   1.230   6.133 -0.7403  0.1620 -0.3207
  109RES   C13330589   1.963   1.247   6.046  0.4632  0.0666 -0.6675
  109RES   H13430590   2.038   0.856   6.335 -1.3176  2.3658 -0.2204
  109RES   H13530591   2.197   0.935   6.369 -0.2702  3.1895 -2.0924
  109RES   H13630592   2.207   1.019   6.129  0.4915 -0.8369  1.1010
  109RES   H13730593   2.103   1.160   6.323  0.8040 -1.6707  0.0547
  109RES   H13830594   1.948   1.111   6.262  0.6883 -1.5556  2.8982
  109RES   H13930595   1.974   1.333   5.980  0.1677  0.8822  0.3381
  109RES   H14030596   1.946   1.161   5.982 -1.8008 -0.0478  0.0082
  109RES   H14130597   1.869   1.254   6.102  0.5533  0.6640 -0.5844
  109RES   O14230598   2.021   0.928   6.086 -0.2756  0.0664 -0.1521
  109RES   C14330599   2.050   0.826   5.992 -0.0813  0.4905  0.4108
  109RES   C14430600   1.920   0.743   5.983 -0.0154  0.7218  0.1998
  109RES   C14530601   1.927   0.629   5.876 -0.4053 -0.4084  0.2198
  109RES   O14630602   1.839   0.532   5.929  0.2216  0.1588  0.6440
  109RES   C14730603   1.833   0.409   5.851 -0.0886 -0.1538 -0.1308
  109RES   H14830604   2.070   0.875   5.896  0.6996 -1.3293 -0.3838
  109RES   H14930605   2.137   0.766   6.021 -1.0951 -0.6333  1.1449
  109RES   H15030606   1.912   0.703   6.084  1.0572 -0.2446 -0.0940
  109RES   H15130607   2.028   0.590   5.883 -0.1067  0.6461  2.1193
  109RES   H15230608   1.894   0.657   5.776 -1.5350 -2.2638  0.0499
  109RES   H15330609   1.932   0.363   5.859  0.6685  1.6138  0.9758
  109RES   H15430610   1.839   0.432   5.744  4.1818 -0.5602 -0.0760
  109RES   H15530611   1.748   0.345   5.871 -1.8890  2.2560  0.1900
  109RES   O15630612   1.812   0.823   5.931  0.1751 -0.2513 -0.0265
  109RES   C15730613   1.686   0.800   6.003  0.6583  0.1637  0.4450
  109RES   C15830614   1.568   0.880   5.952  0.2444 -0.0753 -0.3385
  109RES   C15930615   1.590   1.029   5.970 -0.0085 -0.1300  0.0095
  109RES   O16030616   1.500   1.109   5.902  0.3119  1.1488  0.0365
  109RES   C16130617   1.405   1.164   5.991  0.6597 -0.6949  0.3296
  109RES   H16230618   1.658   0.694   5.999  0.8742  0.1831 -2.3993
  109RES   H16330619   1.703   0.811   6.110  1.4421  2.3206  0.1241
  109RES   H16430620   1.551   0.864   5.845 -2.4533  1.2673 -0.1650
  109RES   H16530621   1.604   1.050   6.076  1.1187  0.6454 -0.2874
  109RES   H16630622   1.682   1.052   5.916 -1.4272 -1.0169 -2.8993
  109RES   H16730623   1.466   1.221   6.061 -2.4531  1.8311  1.0976
  109RES   H16830624   1.332   1.091   6.027 -1.4338  0.2111 -1.9336
  109RES   H16930625   1.351   1.240   5.934 -0.2996 -2.2786 -0.9065
  109RES   O17030626   1.447   0.845   6.024  0.0200 -0.6979  0.3194
  109RES   C17130627   1.322   0.844   5.951 -0.1423  0.7131 -0.2247
  109RES   C17230628   1.305   0.711   5.860  0.8101 -0.1549 -0.2233
  109RES   C17330629   1.159   0.702   5.808 -0.0692  0.5688  0.9143
  109RES   O17430630   1.165   0.691   5.666  0.2473  0.1569  0.1701
  109RES   C17530631   1.058   0.599   5.624 -0.1588 -0.2100  0.3874
  109RES   H17630632   1.327   0.934   5.890  0.6719  0.4311 -0.5852
  109RES   H17730633   1.247   0.844   6.030  1.8528  0.9468  1.7208
  109RES   H17830634   1.376   0.719   5.778  0.1950  1.8933 -0.6018
  109RES   H17930635   1.109   0.619   5.858 -0.5198  0.2018 -0.1406
  109RES   H18030636   1.107   0.794   5.837  0.9086  1.1115  0.9855
  109RES   H18130637   0.957   0.639   5.626 -0.3689 -0.7853  1.7178
  109RES   H18230638   1.070   0.503   5.675 -0.4170 -1.1993 -1.3482
  109RES   H18330639   1.069   0.573   5.518 -3.0620  2.2723 -0.6234
  109RES   O18430640   1.329   0.590   5.938 -0.6389  0.7812  0.2947
  109RES   C18530641   1.363   0.469   5.868  0.2243  0.0194 -0.3128
  109RES   C18630642   1.388   0.371   5.981 -0.1698  0.1953  0.5698
  109RES   C18730643   1.520   0.406   6.050  0.4087  0.0855  0.0404
  109RES   O18830644   1.482   0.387   6.186 -0.4968 -0.4848 -0.4625
  109RES   C18930645   1.455   0.511   6.248 -0.0461 -0.6006  0.4181
  109RES   H19030646   1.457   0.477   5.816  0.4836 -1.3138 -0.0663
  109RES   H19130647   1.278   0.439   5.807  0.7460  0.2399 -1.1405
  109RES   H19230648   1.306   0.374   6.053  2.8065  1.7974  4.0842
  109RES   H19330649   1.551   0.507   6.027 -0.7145  0.3687 -0.2914
  109RES   H19430650   1.599   0.333   6.033  0.2745 -0.2809  0.9153
  109RES   H19530651   1.374   0.570   6.206  0.6955 -0.4444 -0.8342
  109RES   H19630652   1.436   0.493   6.354  0.5121 -2.1532  0.2747
  109RES   H19730653   1.543   0.574   6.240 -0.2801 -0.3436 -0.1752
  109RES   O19830654   1.400   0.239   5.935  0.2293  0.4229  0.3644
  109RES   C19930655   1.412   0.125   6.027 -0.5710  0.4101 -0.4300
  109RES   C20030656   1.375   0.004   5.948 -0.2925 -0.6631  0.2099
  109RES   C20130657   1.308   7.727   6.044  0.6049 -0.4987 -0.0070
  109RES   O20230658   1.380   7.709   6.169 -0.0938  0.5364 -0.1911
  109RES   C20330659   1.306   7.637   6.270 -0.2979 -1.1666  0.0507
  109RES   H20430660   1.354   0.139   6.119 -0.4365 -0.9426 -0.1275
  109RES   H20530661   1.515   0.115   6.061 -0.3260 -0.5762 -1.4432
  109RES   H20630662   1.295   0.020   5.876 -0.5853 -0.8113  0.4994
  109RES   H20730663   1.205   7.763   6.054  1.3167  1.2742  1.4124
  109RES   H20830664   1.295   7.638   5.983  0.8578 -1.7601  1.7130
  109RES   H20930665   1.269   7.547   6.222 -2.5893  0.1769 -0.7747
  109RES   H21030666   1.216   7.684   6.308 -0.3440 -1.6819  0.5913
  109RES   H21130667   1.368   7.595   6.350  1.6389 -0.7048 -1.1642
  109RES   O21230668   1.490   7.755   5.893  0.1316 -0.4346  0.3145
  109RES   C21330669   1.544   0.012   5.785 -0.2184  0.2674 -0.0371
  109RES   C21430670   1.609   7.737   5.678  0.4573 -0.0580  0.3308
  109RES   C21530671   1.721   7.655   5.733 -0.4992 -0.8438  0.0074
  109RES   O21630672   1.734   7.534   5.663 -1.0581  0.4605  0.0357
  109RES   C21730673   1.840   7.449   5.715  0.0526  0.1627 -0.2733
  109RES   H21830674   1.620   0.077   5.827  1.6836 -0.3650 -2.3668
  109RES   H21930675   1.470   0.076   5.737 -0.9760  0.1946  1.0286
  109RES   H22030676   1.528   7.676   5.637 -0.2178  0.7907  0.3855
  109RES   H22130677   1.811   7.717   5.734 -2.2291  1.7177  1.3588
  109RES   H22230678   1.709   7.638   5.840  2.2471 -2.2159  0.1444
  109RES   H22330679   1.832   7.359   5.655  2.2249  0.3662 -0.9197
  109RES   H22430680   1.823   7.422   5.819 -1.2443 -3.6506 -1.4147
  109RES   H22530681   1.939   7.492   5.699 -0.6269  1.8180 -0.1137
  109RES   O22630682   1.648   0.009   5.571 -0.4090  0.3448  0.1239
  109RES   C22730683   1.676   7.763   5.444  0.1532  0.1679 -0.1778
  109RES   C22830684   1.787   0.036   5.377  0.7192  0.8401 -0.0797
  109RES   C22930685   1.837   7.795   5.248  0.5916  0.1710 -0.6418
  109RES   O23030686   1.965   0.033   5.225 -0.0650  0.1357 -0.3456
  109RES   C23130687   1.999   0.042   5.089 -1.1034  0.8264  0.3748
  109RES   H23230688   1.591   7.743   5.379 -0.1262  0.3379  0.1360
  109RES   H23330689   1.712   7.661   5.462  1.5447  0.5216 -0.9019
  109RES   H23430690   1.872   0.038   5.446 -0.8086 -0.7871  1.8800
  109RES   H23530691   1.767   7.797   5.164  0.7253 -0.0538 -0.7581
  109RES   H23630692   1.870   7.692   5.260  1.6398  0.8394  2.6393
  109RES   H23730693   1.987   7.760   5.045 -1.0665  0.5606  0.9580
  109RES   H23830694   2.105   0.058   5.067 -0.6480 -2.6986 -0.2326
  109RES   H23930695   1.936   0.109   5.031 -2.3878 -0.2408  0.5156
  109RES   O24030696   1.730   0.160   5.343 -0.5752 -0.0118  0.0352
  109RES   C24130697   1.787   0.283   5.398  0.2638 -0.2424 -0.4078
  109RES   C24230698   1.717   0.398   5.334  0.1530 -0.0907 -0.7114
  109RES   C24330699   1.705   0.385   5.185 -0.2552  0.1732 -0.1012
  109RES   O24430700   1.675   0.516   5.131  0.0047 -0.0073  0.5838
  109RES   C24530701   1.679   0.516   4.988 -0.5966  0.0272  0.8345
  109RES   H24630702   1.889   0.293   5.361  0.4921  2.2953  0.8189
  109RES   H24730703   1.785   0.289   5.507  3.6358  1.0058 -0.3480
  109RES   H24830704   1.779   0.487   5.349 -2.4966  1.5482  0.8807
  109RES   H24930705   1.801   0.352   5.143 -0.5668 -0.4197 -0.3609
  109RES   H25030706   1.629   0.314   5.152 -0.7010  0.7274 -0.2813
  109RES   H25130707   1.653   0.616   4.954  1.0851  0.1793 -0.0336
  109RES   H25230708   1.601   0.456   4.940  0.7593 -0.3070 -1.0179
  109RES   H25330709   1.780   0.499   4.952 -1.6048 -0.7863 -1.7599
  109RES   O25430710   1.588   0.413   5.391  0.1741  0.8573  0.3747
  109RES   C25530711   1.581   0.502   5.500 -0.1657 -0.1099  0.4200
  109RES   C25630712   1.600   0.645   5.454 -0.1432  0.1755 -0.0274
  109RES   C25730713   1.511   0.746   5.529 -0.2337  0.7017 -0.2152
  109RES   O25830714   1.461   0.846   5.445 -0.4039 -0.4093 -0.6192
  109RES   C25930715   1.396   0.947   5.521 -1.0713 -0.6502 -0.1872
  109RES   H26030716   1.485   0.488   5.551 -0.3264 -2.6339 -0.5100
  109RES   H26130717   1.651   0.477   5.580  2.1323 -1.3518 -1.9157
  109RES   H26230718   1.578   0.645   5.347  0.8187 -1.2057 -0.2382
  109RES   H26330719   1.428   0.687   5.570 -0.1356  1.8868  1.7765
  109RES   H26430720   1.563   0.783   5.617  0.4769  0.1853 -0.4153
  109RES   H26530721   1.474   0.987   5.585 -0.7224  1.6149 -1.9784
  109RES   H26630722   1.317   0.917   5.590 -0.7701  0.9117  0.8492
  109RES   H26730723   1.347   1.026   5.465 -1.2921  0.5275  1.6293
  109RES   O26830724   1.739   0.674   5.476 -0.2838  0.0984  0.0006
  109RES   C26930725   1.785   0.779   5.389 -0.2146  0.0285 -0.5158
  109RES   C27030726   1.932   0.776   5.351 -0.4257 -0.1007  0.0374
  109RES   C27130727   1.959   0.858   5.224 -0.0213 -0.0818 -0.1128
  109RES   O27230728   2.092   0.842   5.175 -0.4891 -0.2145  0.8158
  109RES   C27330729   2.106   0.887   5.042  0.1819  0.2698  0.4609
  109RES   H27430730   1.751   0.874   5.431 -1.7885 -1.6448  2.1316
  109RES   H27530731   1.735   0.773   5.292 -0.3640 -0.7964 -0.3935
  109RES   H27630732   1.994   0.814   5.431 -2.2721  0.4885  1.2155
  109RES   H27730733   1.936   0.962   5.246 -0.4471 -0.3491  0.7317
  109RES   H27830734   1.892   0.824   5.145 -1.3072  0.0023  0.9164
  109RES   H27930735   2.213   0.883   5.020  0.0992 -1.0138  0.2576
  109RES   H28030736   2.081   0.992   5.033  0.1118  0.1688 -0.5289
  109RES   H28130737   2.054   0.818   4.976  1.1958 -0.4135  0.3569
  109RES   H28230738   1.967   0.678   5.319  0.7937  0.4350 -0.2937
  110RES     O130739   5.213   1.583   4.115 -0.1570 -0.1310  0.1248
  110RES     C230740   5.155   1.584   4.246 -0.0940 -0.3392 -0.0217
  110RES     C330741   5.121   1.440   4.287  0.1387  0.3561  0.4252
  110RES     C430742   5.037   1.446   4.421  0.4217  0.0990  0.2303
  110RES     O530743   4.975   1.312   4.433  0.0118 -0.0368  0.3725
  110RES     C630744   4.908   1.288   4.555  0.7949 -0.0579  0.2032
  110RES     H730745   5.215   1.627   4.326 -0.4105  1.3440 -0.6752
  110RES     H830746   5.067   1.648   4.238  1.4866  1.9555  0.6555
  110RES     H930747   5.212   1.382   4.301  0.7373  1.0725 -0.4234
  110RES    H1030748   4.961   1.524   4.417  1.6484  1.2684 -0.6362
  110RES    H1130749   5.098   1.481   4.504  0.9352  0.9877 -0.5272
  110RES    H1230750   4.854   1.193   4.553 -2.1051  1.5277 -3.0799
  110RES    H1330751   4.979   1.275   4.636 -0.2431  0.4566  1.2119
  110RES    H1430752   4.832   1.364   4.575  1.0109  0.1191  0.3458
  110RES    H1530753   5.162   1.517   4.071 -2.0235  0.3667  1.4536
  110RES    O1630754   5.054   1.399   4.171 -0.2207 -0.2902 -0.6627
  110RES    C1730755   5.069   1.259   4.145 -0.0632  0.3658  0.5676
  110RES    C1830756   4.977   1.220   4.029 -0.0635 -0.2484 -0.1325
  110RES    C1930757   4.831   1.262   4.049 -0.2306  0.3096 -0.3134
  110RES    O2030758   4.757   1.208   3.939  0.6362  0.9424 -0.2164
  110RES    C2130759   4.622   1.220   3.973 -0.0231  0.0292 -0.2729
  110RES    H2230760   5.051   1.213   4.242 -0.7415  2.8437  1.6714
  110RES    H2330761   5.170   1.219   4.131  0.1828  0.8707  0.8778
  110RES    H2430762   4.984   1.111   4.024 -0.7886 -0.2524 -1.3368
  110RES    H2530763   4.810   1.222   4.148  1.7139 -0.4839 -0.1974
  110RES    H2630764   4.823   1.371   4.051 -0.1685  0.3305 -0.9876
  110RES    H2730765   4.575   1.152   3.902  1.7446 -2.4298  0.8308
  110RES    H2830766   4.579   1.320   3.960 -2.1350 -0.9239 -0.8771
  110RES    H2930767   4.599   1.171   4.068  1.6759  0.2274  0.2499
  110RES    O3030768   5.037   1.288   3.922 -0.2942  0.4601  0.7411
  110RES    C3130769   5.049   1.208   3.806 -0.0614 -0.7322 -0.2947
  110RES    C3230770   5.161   1.262   3.716 -0.5331  0.0709  0.0609
  110RES    C3330771   5.147   1.216   3.573  0.2442  0.6037  0.0100
  110RES    O3430772   5.237   1.267   3.471  0.2191  0.9449 -0.0964
  110RES    C3530773   5.192   1.223   3.346 -0.4214  0.8116 -0.4112
  110RES    H3630774   5.065   1.101   3.822 -1.5349 -0.8899  0.2196
  110RES    H3730775   4.951   1.211   3.759 -0.5938  0.8321  0.8454
  110RES    H3830776   5.150   1.370   3.706  2.6045  0.1685 -3.2755
  110RES    H3930777   5.046   1.241   3.542 -1.0472  0.6611  3.9426
  110RES    H4030778   5.144   1.110   3.549  0.5629  1.0047 -1.8533
  110RES    H4130779   5.090   1.258   3.328  0.1281  1.4283 -2.4931
  110RES    H4230780   5.181   1.114   3.351 -0.0906  0.8892  2.8309
  110RES    H4330781   5.254   1.252   3.261  1.4727  0.1862  0.7343
  110RES    O4430782   5.285   1.230   3.777 -0.0478  0.1647  0.0954
  110RES    C4530783   5.351   1.338   3.844  0.3154  0.2303 -0.0651
  110RES    C4630784   5.424   1.424   3.745 -0.6459  0.0086 -0.5602
  110RES    C4730785   5.433   1.570   3.790  0.2467  0.5459  0.9348
  110RES    O4830786   5.322   1.638   3.749  0.0658 -0.0355  0.0073
  110RES    C4930787   5.337   1.787   3.736 -0.6901 -0.1925  0.3211
  110RES    H5030788   5.426   1.300   3.914  0.7275  0.9738 -0.0962
  110RES    H5130789   5.286   1.396   3.910 -0.2233  0.8032 -1.0967
  110RES    H5230790   5.360   1.432   3.657 -0.5438 -0.4057 -0.6711
  110RES    H5330791   5.451   1.574   3.897  2.9740  0.3235  0.5432
  110RES    H5430792   5.524   1.613   3.747  1.2897 -2.1076  0.4221
  110RES    H5530793   5.239   1.826   3.709 -0.0017 -0.0623 -2.1392
  110RES    H5630794   5.406   1.811   3.656  0.5573 -1.1725  1.0790
  110RES    H5730795   5.362   1.819   3.837  0.5528 -3.6798  1.1878
  110RES    O5830796   5.548   1.358   3.720  0.2101  0.1422  0.4265
  110RES    C5930797   5.613   1.390   3.601  0.2563 -0.1957  0.0951
  110RES    C6030798   5.703   1.264   3.574 -0.0815  0.0630  0.2113
  110RES    C6130799   5.831   1.298   3.499  0.7156 -0.3125  0.2805
  110RES    O6230800   5.815   1.405   3.404  0.0750 -0.4006 -0.5811
  110RES    C6330801   5.941   1.455   3.361  0.4072 -0.8506 -0.6803
  110RES    H6430802   5.671   1.482   3.607 -0.7144  0.3563  1.2484
  110RES    H6530803   5.536   1.395   3.524  2.2724 -2.1892 -2.1483
  110RES    H6630804   5.745   1.234   3.670  2.4814 -1.7558 -1.4014
  110RES    H6730805   5.925   1.314   3.552 -0.8268  3.8094  1.9280
  110RES    H6830806   5.856   1.205   3.447 -1.1909  0.0005 -1.2300
  110RES    H6930807   6.006   1.372   3.333  3.3667  0.5003  1.8600
  110RES    H7030808   5.979   1.514   3.445 -1.0211  0.9792 -1.3160
  110RES    H7130809   5.918   1.519   3.277  2.2828  1.7652  0.7249
  110RES    O7230810   5.640   1.156   3.501  0.2617  0.1805  0.0527
  110RES    C7330811   5.564   1.069   3.576 -0.4327 -0.1226 -0.8462
  110RES    C7430812   5.490   0.954   3.498  0.9404  0.8720  0.4316
  110RES    C7530813   5.393   0.873   3.582  0.3524  0.1207 -0.2708
  110RES    O7630814   5.313   0.779   3.505  0.2411  0.4398  0.3580
  110RES    C7730815   5.242   0.682   3.588 -0.1665 -0.1048 -0.2444
  110RES    H7830816   5.633   1.028   3.651 -1.3886 -0.5784 -0.2121
  110RES    H7930817   5.497   1.133   3.632 -1.4657 -2.3811  0.5937
  110RES    H8030818   5.437   1.004   3.416  0.0517 -1.9810 -0.8060
  110RES    H8130819   5.315   0.937   3.624 -0.6825 -1.1554 -0.2093
  110RES    H8230820   5.454   0.826   3.659  0.7050 -0.2266 -0.7580
  110RES    H8330821   5.182   0.617   3.524 -0.4554  1.2129 -1.3261
  110RES    H8430822   5.165   0.725   3.653  0.0715  0.8397 -0.5806
  110RES    H8530823   5.315   0.623   3.644 -2.3983  1.0046  4.0340
  110RES    O8630824   5.580   0.850   3.447 -0.0483  0.1599  0.3079
  110RES    C8730825   5.630   0.886   3.319  0.0785 -0.4195  0.4868
  110RES    C8830826   5.715   0.771   3.262 -0.0768 -0.7392  0.2280
  110RES    C8930827   5.826   0.735   3.358 -0.4498  0.2230  0.4987
  110RES    O9030828   5.922   0.671   3.278  0.2113 -0.2644 -0.2524
  110RES    C9130829   6.035   0.630   3.359 -0.4067 -0.4757  0.0420
  110RES    H9230830   5.550   0.901   3.246  0.9166 -0.9354 -0.5501
  110RES    H9330831   5.684   0.980   3.331  2.0407 -1.3515 -0.7532
  110RES    H9430832   5.759   0.813   3.172  0.3555 -2.2333 -0.2688
  110RES    H9530833   5.865   0.829   3.397  1.0900 -0.2590  0.1851
  110RES    H9630834   5.789   0.688   3.449  0.1361  1.5242  1.4359
  110RES    H9730835   6.096   0.718   3.382 -0.8577  0.2529 -1.4494
  110RES    H9830836   6.001   0.586   3.453 -0.1381  0.6577  0.6862
  110RES    H9930837   6.092   0.547   3.317  1.5250 -0.6815  2.8988
  110RES   O10030838   5.613   0.672   3.233  0.7888  0.1410 -0.0125
  110RES   C10130839   5.657   0.559   3.158  0.2651  0.1290  0.3204
  110RES   C10230840   5.682   0.430   3.246 -0.5725  0.4624 -0.5108
  110RES   C10330841   5.738   0.314   3.166 -0.6092 -0.4139 -0.8009
  110RES   O10430842   5.857   0.249   3.210  0.2406  0.0206  0.0607
  110RES   C10530843   5.908   0.138   3.143 -0.1344 -0.1914  0.4952
  110RES   H10630844   5.740   0.590   3.095  0.0114  0.9053  0.3616
  110RES   H10730845   5.589   0.530   3.078  0.8837  2.2643 -1.0367
  110RES   H10830846   5.757   0.457   3.320 -1.2880 -1.1349  0.8222
  110RES   H10930847   5.755   0.347   3.063 -3.2793 -0.3245 -1.2392
  110RES   H11030848   5.661   0.239   3.151 -1.3623  0.4840 -1.5292
  110RES   H11130849   5.918   0.164   3.037 -1.1302 -0.2164  0.3910
  110RES   H11230850   5.842   0.053   3.158 -1.8115  0.5845 -2.0884
  110RES   H11330851   6.006   0.115   3.185 -0.4267 -3.3064 -0.3739
  110RES   O11430852   5.567   0.374   3.310 -0.2442 -0.2771  0.0047
  110RES   C11530853   5.536   0.436   3.434  0.2941  0.3529  0.6147
  110RES   C11630854   5.402   0.364   3.477 -0.6947 -0.2774 -0.1094
  110RES   C11730855   5.294   0.365   3.373 -0.1131  0.1033  0.2504
  110RES   O11830856   5.173   0.322   3.437  0.7026 -0.4210  0.5115
  110RES   C11930857   5.062   0.337   3.348  1.1225 -0.2335  0.3936
  110RES   H12030858   5.609   0.426   3.514  1.2483 -3.0525 -0.6037
  110RES   H12130859   5.513   0.542   3.418 -0.5019 -0.0310 -0.9029
  110RES   H12230860   5.373   0.414   3.569 -0.4171  0.4628 -0.4140
  110RES   H12330861   5.284   0.467   3.336 -2.3384  0.5549  1.9912
  110RES   H12430862   5.313   0.301   3.287  0.2664  1.9732 -1.0917
  110RES   H12530863   5.072   0.267   3.264  2.2633  2.0912 -1.4818
  110RES   H12630864   5.054   0.439   3.312 -1.8348 -0.6025 -0.0993
  110RES   H12730865   4.971   0.316   3.403  0.5251 -0.0420 -0.5116
  110RES   O12830866   5.433   0.227   3.521  0.0390 -0.0898 -0.8818
  110RES   C12930867   5.371   0.186   3.647 -0.3573 -0.1446 -0.8701
  110RES   C13030868   5.416   0.046   3.697  0.0616 -0.0930  0.2940
  110RES   C13130869   5.324   0.013   3.813 -0.0450  0.1367  0.3857
  110RES   O13230870   5.347   7.698   3.869  0.0402 -0.4306 -0.1594
  110RES   C13330871   5.261   7.657   3.977  0.7358  0.2998 -0.2510
  110RES   H13430872   5.389   0.261   3.724  1.1998 -2.6332  1.3165
  110RES   H13530873   5.265   0.190   3.623 -0.5563 -1.8501 -0.3558
  110RES   H13630874   5.411   7.785   3.621 -0.5099  0.6879 -0.4732
  110RES   H13730875   5.218   0.005   3.790  0.3842  0.0389 -1.6258
  110RES   H13830876   5.322   0.093   3.887 -0.5676  1.0240 -0.5806
  110RES   H13930877   5.160   7.698   3.970  1.2375  1.6525  0.3449
  110RES   H14030878   5.238   7.552   3.962 -0.0697  0.6708 -1.7176
  110RES   H14130879   5.294   7.672   4.080 -1.3574 -0.9885  0.6396
  110RES   O14230880   5.550   0.066   3.749  0.1457 -0.4702 -0.3037
  110RES   C14330881   5.627   7.757   3.741  0.4498 -0.4502  0.0312
  110RES   C14430882   5.692   7.750   3.594 -0.0510 -0.2779 -0.0591
  110RES   C14530883   5.757   7.609   3.574 -0.9221  0.1159  0.1054
  110RES   O14630884   5.757   7.595   3.433  0.2077 -0.7370 -0.5141
  110RES   C14730885   5.824   7.473   3.401  0.4003  0.5126 -0.1458
  110RES   H14830886   5.711   7.754   3.810  0.9901  0.9731 -0.5201
  110RES   H14930887   5.564   7.673   3.765 -2.9525  1.9377 -0.2132
  110RES   H15030888   5.609   7.761   3.524 -1.8551 -0.0844  2.0847
  110RES   H15130889   5.700   7.531   3.625 -0.6209 -0.6662 -0.7339
  110RES   H15230890   5.859   7.601   3.610 -1.2633 -1.2580  0.8182
  110RES   H15330891   5.819   7.480   3.292 -2.4587  0.5953 -0.0478
  110RES   H15430892   5.780   7.376   3.423  0.1949  0.0059 -2.6372
  110RES   H15530893   5.927   7.477   3.438 -0.1506  1.2950  1.3387
  110RES   O15630894   5.799   0.028   3.592 -0.1207 -0.6196  0.2391
  110RES   C15730895   5.778   0.149   3.515  0.2355 -0.5194 -0.5590
  110RES   C15830896   5.876   0.256   3.557 -0.3800 -0.1445  0.3098
  110RES   C15930897   6.020   0.219   3.523  0.0907  0.1903 -0.9132
  110RES   O16030898   6.094   0.334   3.492  0.4028 -0.5129  0.0347
  110RES   C16130899   6.221   0.289   3.450 -0.2869  0.0821  0.3157
  110RES   H16230900   5.781   0.119   3.411  1.9007 -0.7650 -0.4681
  110RES   H16330901   5.683   0.191   3.545  0.6006 -0.8692  1.1778
  110RES   H16430902   5.857   0.352   3.508  0.5064 -0.4925 -0.7318
  110RES   H16530903   6.064   0.164   3.606  1.1796  1.1826 -0.8082
  110RES   H16630904   6.025   0.150   3.439 -2.3913 -0.8698 -0.2157
  110RES   H16730905   6.270   0.386   3.452 -2.9718  1.4545  4.2498
  110RES   H16830906   6.219   0.238   3.353 -0.7538 -2.4071  1.5934
  110RES   H16930907   6.264   0.213   3.515 -1.7547  0.0330  1.2359
  110RES   O17030908   5.865   0.284   3.696  0.3330  1.0581  0.3702
  110RES   C17130909   5.911   0.415   3.725 -0.3718 -0.0295  0.3213
  110RES   C17230910   5.878   0.468   3.865 -0.5876 -0.3130  0.3125
  110RES   C17330911   5.942   0.382   3.978 -0.2343  0.6696 -0.4391
  110RES   O17430912   5.946   0.456   4.098 -0.0666 -0.4945 -0.2122
  110RES   C17530913   5.985   0.371   4.206 -0.2248  0.6623  0.1924
  110RES   H17630914   5.877   0.492   3.656  0.3131 -0.6474 -0.7157
  110RES   H17730915   6.019   0.413   3.718 -0.1852  2.6170  1.9608
  110RES   H17830916   5.930   0.563   3.861  0.7060 -1.0683 -1.6238
  110RES   H17930917   5.878   0.294   3.987 -0.2360  0.8540  1.3474
  110RES   H18030918   6.041   0.340   3.959 -0.3279 -0.2947  1.1459
  110RES   H18130919   5.925   0.280   4.205 -1.5014  1.4958 -0.3542
  110RES   H18230920   5.988   0.431   4.297  0.9016  0.6211  0.1922
  110RES   H18330921   6.086   0.333   4.191 -0.2999 -1.1027  3.6934
  110RES   O18430922   5.739   0.483   3.875  0.4269 -0.0172 -0.3226
  110RES   C18530923   5.691   0.585   3.970 -0.0751  0.2238  0.4947
  110RES   C18630924   5.544   0.613   3.932 -0.5610  0.1797  0.5876
  110RES   C18730925   5.503   0.750   3.974  0.6247 -0.3152 -0.2505
  110RES   O18830926   5.391   0.796   3.902  0.3261 -1.0804  0.1234
  110RES   C18930927   5.357   0.933   3.923  0.0325 -0.2362 -0.0984
  110RES   H19030928   5.755   0.669   3.946  0.4079 -0.3430 -0.2152
  110RES   H19130929   5.713   0.560   4.074 -0.9780 -0.9844  0.4151
  110RES   H19230930   5.533   0.615   3.824  1.6081 -0.4764  0.3351
  110RES   H19330931   5.586   0.819   3.961 -0.1439  1.4079  3.2205
  110RES   H19430932   5.480   0.755   4.081  3.9198 -3.0327  0.6686
  110RES   H19530933   5.442   0.999   3.907  0.9527 -0.5448  3.1204
  110RES   H19630934   5.275   0.957   3.855  0.5463 -0.3344 -0.7576
  110RES   H19730935   5.327   0.962   4.024 -1.0774  2.0428 -1.0396
  110RES   O19830936   5.443   0.521   3.993  0.0076 -0.0712 -0.0566
  110RES   C19930937   5.461   0.386   3.961  0.0386  0.1600 -0.4377
  110RES   C20030938   5.531   0.316   4.081 -1.0140  0.0772  0.8648
  110RES   C20130939   5.583   0.174   4.046  0.0603 -0.4128 -0.2031
  110RES   O20230940   5.694   0.143   4.123  0.0708 -0.7677 -0.3098
  110RES   C20330941   5.737   0.010   4.088  0.3420  0.1058 -0.9670
  110RES   H20430942   5.501   0.374   3.860 -0.3644  1.9806 -0.8252
  110RES   H20530943   5.363   0.338   3.959  0.1121  0.0343 -1.3626
  110RES   H20630944   5.613   0.375   4.121  0.6020 -2.0517  0.7899
  110RES   H20730945   5.507   0.097   4.047 -0.0955 -0.3154 -2.3967
  110RES   H20830946   5.621   0.192   3.946 -0.6399 -1.2715 -0.6194
  110RES   H20930947   5.784   0.008   3.990 -2.0819 -2.4041 -2.1589
  110RES   H21030948   5.659   7.750   4.096  1.2817 -0.7083  0.6079
  110RES   H21130949   5.815   7.791   4.155 -0.6703 -0.7276 -0.2071
  110RES   O21230950   5.429   0.301   4.180  0.5911  0.6331  0.1439
  110RES   C21330951   5.460   0.366   4.305 -0.2495  0.3789 -0.2222
  110RES   C21430952   5.333   0.360   4.390  0.1636 -0.4431 -0.9638
  110RES   C21530953   5.327   0.466   4.511  0.0634 -0.0927  0.0023
  110RES   O21630954   5.194   0.488   4.556  0.6739  0.7329  0.0648
  110RES   C21730955   5.197   0.596   4.648 -0.5202  0.2134 -0.3635
  110RES   H21830956   5.490   0.470   4.291 -0.5303  1.0749  3.6371
  110RES   H21930957   5.541   0.315   4.357  0.2853 -0.8151 -2.1877
  110RES   H22030958   5.255   0.387   4.319  0.6205 -2.4120 -2.2333
  110RES   H22130959   5.377   0.425   4.599  2.7352  0.3779 -1.2481
  110RES   H22230960   5.369   0.562   4.484 -2.6442  1.5844  1.5151
  110RES   H22330961   5.097   0.632   4.672  0.5069  0.9020  3.0160
  110RES   H22430962   5.241   0.692   4.621  1.6823 -0.0905  2.0432
  110RES   H22530963   5.234   0.547   4.737 -1.7870 -0.8795 -0.4108
  110RES   O22630964   5.315   0.242   4.453  0.0944  0.6727  0.1393
  110RES   C22730965   5.259   0.135   4.384  0.3130  0.3159 -0.1967
  110RES   C22830966   5.240   0.020   4.487  0.0230  0.5152  0.9579
  110RES   C22930967   5.094   7.800   4.519 -0.1699 -0.4876 -0.0857
  110RES   O23030968   5.092   7.703   4.623 -0.4716  0.1638 -0.2596
  110RES   C23130969   4.978   7.625   4.622 -0.0610 -0.3908  0.8400
  110RES   H23230970   5.321   0.103   4.300  1.4813  0.9031  0.4224
  110RES   H23330971   5.163   0.173   4.350 -0.5482 -1.1634  0.5646
  110RES   H23430972   5.277   0.056   4.583  0.8530  2.5036 -0.0634
  110RES   H23530973   5.050   7.755   4.430 -0.8270  1.0433 -0.5496
  110RES   H23630974   5.040   0.075   4.541 -1.4948 -0.9328 -1.4060
  110RES   H23730975   4.982   7.540   4.690  0.3903 -1.1683 -0.1388
  110RES   H23830976   4.962   7.587   4.521 -2.4429  2.7884 -0.0398
  110RES   H23930977   4.896   7.692   4.645 -0.4536 -1.0064  1.2578
  110RES   O24030978   5.305   7.720   4.449 -0.3008 -0.0795  0.0686
  110RES   C24130979   5.440   7.713   4.494 -0.1298 -0.4263 -0.0435
  110RES   C24230980   5.494   7.574   4.459 -0.7862  0.1634 -0.1777
  110RES   C24330981   5.648   7.568   4.456 -0.0623 -0.0512  0.2082
  110RES   O24430982   5.708   7.599   4.580 -0.2000  0.1564 -0.5158
  110RES   C24530983   5.843   7.560   4.587  0.3532 -0.2742  0.4295
  110RES   H24630984   5.450   7.728   4.601  1.1539 -0.4925 -0.1497
  110RES   H24730985   5.501   7.792   4.450  0.6355 -0.2125  1.3918
  110RES   H24830986   5.472   7.553   4.354  2.0255 -1.6140 -0.4880
  110RES   H24930987   5.673   7.467   4.424 -1.1857 -0.6712  1.2774
  110RES   H25030988   5.695   7.626   4.376 -0.5662 -0.6228 -0.5070
  110RES   H25130989   5.918   7.611   4.527  0.5489 -0.1832  0.7502
  110RES   H25230990   5.844   7.455   4.558 -0.8394  0.0707 -0.8847
  110RES   H25330991   5.872   7.558   4.692 -0.4903  0.1893  0.6725
  110RES   O25430992   5.448   7.465   4.544 -0.2805 -0.2713  0.2026
  110RES   C25530993   5.316   7.425   4.526  0.4434  0.5190  0.1996
  110RES   C25630994   5.290   7.288   4.591 -0.0188 -0.5530  0.3462
  110RES   C25730995   5.152   7.231   4.596 -0.5160  0.3535  0.1528
  110RES   O25830996   5.142   7.133   4.694  0.2126 -0.1242 -0.0265
  110RES   C25930997   5.009   7.086   4.732 -0.5672 -0.7583 -0.2281
  110RES   H26030998   5.248   7.502   4.562  1.0021  1.1540 -0.0748
  110RES   H26130999   5.291   7.410   4.421 -2.8058 -2.1202  1.2672
  110RES   H26231000   5.321   7.290   4.696  0.5314  1.2516  0.1548
  110RES   H26331001   5.076   7.306   4.618 -0.8708  0.3639 -1.0716
  110RES   H26431002   5.138   7.195   4.494 -3.1082 -0.9038  0.9123
  110RES   H26531003   5.017   7.009   4.809 -2.1611 -0.3277  0.3857
  110RES   H26631004   4.946   7.050   4.651  1.4374  0.2349 -2.2707
  110RES   H26731005   4.968   7.179   4.772 -0.5484 -0.2691 -1.3498
  110RES   O26831006   5.382   7.201   4.522  0.6604 -0.4731  0.2546
  110RES   C26931007   5.415   7.080   4.578 -0.6465  0.1643  0.1101
  110RES   C27031008   5.548   7.029   4.521 -0.0309  0.3116 -0.6363
  110RES   C27131009   5.548   7.036   4.371 -0.8817  0.0186  0.3607
  110RES   O27231010   5.666   6.975   4.321  0.4114  0.0395 -1.1108
  110RES   C27331011   5.705   7.025   4.194 -0.1686  0.3532  0.3407
  110RES   H27431012   5.335   7.012   4.549 -0.2402 -1.0332  1.6913
  110RES   H27531013   5.413   7.079   4.687  1.2482  1.4456  0.1769
  110RES   H27631014   5.635   7.083   4.559 -0.5711  0.6335  0.1578
  110RES   H27731015   5.557   7.132   4.321 -0.2662 -0.4786 -0.4988
  110RES   H27831016   5.459   6.981   4.339  0.2131 -0.8474 -1.2909
  110RES   H27931017   5.622   7.025   4.124  0.1863  2.2459 -0.0925
  110RES   H28031018   5.776   6.950   4.160  1.9863  3.2769 -1.8346
  110RES   H28131019   5.758   7.120   4.195 -1.5344  1.1738 -1.9124
  110RES   H28231020   5.564   6.923   4.538  1.2636  0.3022 -1.7670
  111RES     O131021   4.000   6.844   6.521  0.1071  0.2937 -0.2347
  111RES     C231022   3.925   6.758   6.434 -0.3929 -0.3814 -0.7323
  111RES     C331023   3.842   6.843   6.340  0.4193  0.0414 -0.5512
  111RES     C431024   3.803   6.753   6.220  0.0079 -0.6366 -0.4041
  111RES     O531025   3.755   6.828   6.110  0.0651 -0.6652 -0.3123
  111RES     C631026   3.706   6.746   6.008  0.3569  0.7918 -0.3018
  111RES     H731027   3.996   6.688   6.391  1.4739  0.8326  0.2891
  111RES     H831028   3.859   6.698   6.497  0.4670  1.4546  2.0259
  111RES     H931029   3.900   6.927   6.301  2.1865 -0.1221  1.6616
  111RES    H1031030   3.721   6.690   6.255 -1.5637  1.9013  0.6629
  111RES    H1131031   3.883   6.690   6.182  0.8133  0.5396 -0.7002
  111RES    H1231032   3.619   6.688   6.038  0.3905  0.9766  0.1493
  111RES    H1331033   3.692   6.804   5.917  3.0951 -0.0896 -1.3496
  111RES    H1431034   3.783   6.675   5.977 -0.6426 -0.3169 -0.2554
  111RES    H1531035   3.939   6.910   6.551  0.2053  0.6341 -0.7609
  111RES    O1631036   3.725   6.885   6.411  0.2693 -0.0952 -0.6050
  111RES    C1731037   3.668   6.998   6.348  0.6647  0.0330  0.3025
  111RES    C1831038   3.540   7.053   6.420  1.0119  0.1728  0.5023
  111RES    C1931039   3.507   7.197   6.389 -0.4270 -0.2314 -0.6078
  111RES    O2031040   3.468   7.269   6.505 -0.3631  0.6264 -0.3867
  111RES    C2131041   3.419   7.396   6.472 -0.3145 -0.5961  0.0699
  111RES    H2231042   3.641   6.990   6.242 -3.6179 -1.8213  1.4435
  111RES    H2331043   3.743   7.077   6.349  0.1397  0.5519 -0.6197
  111RES    H2431044   3.551   7.044   6.528 -0.8873  2.0407  0.8910
  111RES    H2531045   3.602   7.243   6.360 -0.3084  1.1609  1.8826
  111RES    H2631046   3.446   7.210   6.300 -2.6299  1.2391  1.0726
  111RES    H2731047   3.348   7.410   6.391  0.3664  0.8221 -0.3045
  111RES    H2831048   3.508   7.457   6.457  0.4843 -2.2868 -2.1921
  111RES    H2931049   3.367   7.433   6.561  0.5923 -0.7831  0.6900
  111RES    O3031050   3.431   6.978   6.362 -0.0594 -0.0307 -0.3055
  111RES    C3131051   3.399   6.860   6.441  0.1344 -0.0823 -0.3717
  111RES    C3231052   3.251   6.829   6.429  0.7551  0.9267 -0.5110
  111RES    C3331053   3.197   6.819   6.288  0.5824 -0.6327 -0.5580
  111RES    O3431054   3.085   6.734   6.285  0.2407 -0.2064  0.1700
  111RES    C3531055   3.121   6.598   6.276 -0.1893  0.7327  0.1917
  111RES    H3631056   3.468   6.782   6.408  1.3825  0.4036  1.0165
  111RES    H3731057   3.439   6.871   6.542  0.5297  0.9898 -0.6488
  111RES    H3831058   3.250   6.727   6.468 -0.1290  1.4151  0.8263
  111RES    H3931059   3.273   6.773   6.224  0.1274 -0.3585 -1.3045
  111RES    H4031060   3.184   6.919   6.248 -2.5605 -1.6062 -2.1036
  111RES    H4131061   3.037   6.530   6.285  1.0024 -0.7186  0.4565
  111RES    H4231062   3.189   6.566   6.354  0.6926  0.4641 -0.6746
  111RES    H4331063   3.172   6.569   6.184 -1.4830 -2.1311  0.3219
  111RES    O4431064   3.180   6.923   6.505 -0.3077 -0.3135 -0.0090
  111RES    C4531065   3.088   6.860   6.597  0.7637  0.2235  0.2567
  111RES    C4631066   3.006   6.968   6.675 -0.3416 -0.0843  0.4427
  111RES    C4731067   2.876   6.911   6.742  0.0846 -0.7914 -0.1654
  111RES    O4831068   2.805   7.030   6.783  0.1026  0.2404 -0.5129
  111RES    C4931069   2.699   7.003   6.870  0.8759 -0.2413 -0.4020
  111RES    H5031070   3.138   6.789   6.663  2.2557  0.7290 -0.3132
  111RES    H5131071   3.024   6.803   6.528  1.2841 -0.6397  0.4795
  111RES    H5231072   2.992   7.047   6.602  1.8369 -1.4698 -1.5789
  111RES    H5331073   2.823   6.853   6.667 -1.2088 -1.5944  1.3526
  111RES    H5431074   2.908   6.848   6.824 -1.6239 -0.8320  0.4701
  111RES    H5531075   2.620   6.948   6.819  1.1973  0.9409 -2.2250
  111RES    H5631076   2.664   7.100   6.907  0.7188 -0.3816 -0.1827
  111RES    H5731077   2.724   6.953   6.963 -0.4450  0.4511  0.3307
  111RES    O5831078   3.077   7.033   6.777 -0.1992  0.1099  0.3625
  111RES    C5931079   3.194   7.102   6.743  0.4207  0.1682 -0.6270
  111RES    C6031080   3.250   7.164   6.866  0.4992  0.1870  0.0974
  111RES    C6131081   3.348   7.279   6.838 -0.5427 -0.2721  0.7723
  111RES    O6231082   3.382   7.354   6.958  0.0849  0.1109  0.3987
  111RES    C6331083   3.472   7.466   6.930  0.0596 -0.4771  0.4964
  111RES    H6431084   3.185   7.184   6.672  1.2928  1.6372  0.9436
  111RES    H6531085   3.261   7.029   6.696 -0.7052 -0.4746 -1.2542
  111RES    H6631086   3.169   7.202   6.928  1.1029 -0.7053  1.4704
  111RES    H6731087   3.436   7.236   6.791 -0.3616  1.5629 -0.6224
  111RES    H6831088   3.311   7.353   6.767 -1.5904 -0.6468  0.9120
  111RES    H6931089   3.421   7.551   6.885  1.7081 -0.0061 -0.5060
  111RES    H7031090   3.564   7.442   6.877 -0.0949 -1.1895  0.5438
  111RES    H7131091   3.510   7.508   7.023 -0.5110  1.6670 -0.2011
  111RES    O7231092   3.310   7.045   6.933  0.6242  0.6181  0.0848
  111RES    C7331093   3.356   7.072   7.066  0.4128 -0.0088  0.1295
  111RES    C7431094   3.370   6.954   7.160  0.1487  0.5040  0.8193
  111RES    C7531095   3.406   6.822   7.086  0.4723  0.2277  0.3979
  111RES    O7631096   3.474   6.722   7.165 -0.0924  0.3026 -0.0235
  111RES    C7731097   3.408   6.675   7.281  0.4664 -0.0390 -0.3210
  111RES    H7831098   3.448   7.126   7.046 -0.9398  1.3217 -2.9405
  111RES    H7931099   3.296   7.149   7.114  0.4463  0.4578 -0.5649
  111RES    H8031100   3.455   6.986   7.221  2.2935  1.0028 -2.3334
  111RES    H8131101   3.478   6.857   7.013  0.4051  0.3455  0.3881
  111RES    H8231102   3.321   6.794   7.025  0.6873 -0.1863  0.2834
  111RES    H8331103   3.308   6.638   7.257  0.0189 -0.4194  1.9952
  111RES    H8431104   3.393   6.754   7.354  0.1756 -2.2084  2.0652
  111RES    H8531105   3.464   6.590   7.321 -0.0415 -0.1437  0.1820
  111RES    O8631106   3.252   6.941   7.246 -0.0797 -0.5483  0.2660
  111RES    C8731107   3.131   6.915   7.179  0.3487 -0.2946 -0.5072
  111RES    C8831108   3.023   6.888   7.279 -0.3485 -0.1206 -0.1711
  111RES    C8931109   2.990   7.021   7.359 -0.3552 -0.2529 -0.4790
  111RES    O9031110   2.948   6.995   7.493 -0.5940 -0.0212  0.2572
  111RES    C9131111   2.928   7.103   7.582  0.4162 -0.9945  0.0645
  111RES    H9231112   3.110   6.993   7.106 -2.3225 -0.6608 -0.1533
  111RES    H9331113   3.152   6.823   7.124  5.2838 -0.4315  1.3087
  111RES    H9431114   3.067   6.810   7.342 -0.8596  0.4028  0.8425
  111RES    H9531115   3.084   7.077   7.351 -0.8358  0.2663 -2.8186
  111RES    H9631116   2.917   7.079   7.303 -1.4535 -0.2287  0.9530
  111RES    H9731117   3.014   7.155   7.624  0.0508 -1.0761  0.9305
  111RES    H9831118   2.857   7.173   7.537  0.0901 -1.5343 -0.2686
  111RES    H9931119   2.873   7.062   7.667  2.2415  1.0396  2.3029
  111RES   O10031120   2.899   6.854   7.217 -0.4509  0.0721  0.1000
  111RES   C10131121   2.816   6.761   7.286  0.3888  0.2561 -0.0303
  111RES   C10231122   2.718   6.684   7.188  0.2047  0.3691  0.1627
  111RES   C10331123   2.788   6.651   7.054 -0.1150 -0.6732 -0.6139
  111RES   O10431124   2.754   6.520   7.015 -0.1408  0.1674 -0.5078
  111RES   C10531125   2.778   6.507   6.873  0.1295 -0.2327 -0.1303
  111RES   H10631126   2.764   6.811   7.368  1.5902 -1.1170  1.6081
  111RES   H10731127   2.881   6.694   7.343 -0.4684 -1.7783 -1.3879
  111RES   H10831128   2.680   6.601   7.249  0.8232  0.8291  1.1921
  111RES   H10931129   2.895   6.647   7.075 -0.4019  0.1352  1.1221
  111RES   H11031130   2.762   6.716   6.971 -2.7652  0.0345  0.7031
  111RES   H11131131   2.778   6.402   6.846  0.8123 -1.1845  3.3902
  111RES   H11231132   2.875   6.546   6.841 -0.0720 -0.2098 -0.7104
  111RES   H11331133   2.699   6.561   6.821  0.1581 -0.2766 -0.2194
  111RES   O11431134   2.609   6.771   7.158 -0.1475 -0.0992 -0.0679
  111RES   C11531135   2.488   6.726   7.211  0.0940 -0.8320  0.0638
  111RES   C11631136   2.386   6.840   7.202 -0.0182  0.0574  0.4197
  111RES   C11731137   2.238   6.797   7.239 -0.0603 -0.3829 -0.3374
  111RES   O11831138   2.133   6.871   7.170  0.0316  0.0150  0.0716
  111RES   C11931139   2.114   6.998   7.232 -0.2011  0.2013  0.2994
  111RES   H12031140   2.453   6.631   7.170 -0.0292 -0.5808 -0.4292
  111RES   H12131141   2.523   6.715   7.313 -1.4858 -0.6621  0.6400
  111RES   H12231142   2.389   6.889   7.105 -0.8930 -1.4048 -0.3563
  111RES   H12331143   2.223   6.693   7.210 -0.1679 -0.5751  0.3920
  111RES   H12431144   2.220   6.806   7.347  2.1166 -0.6600  0.0862
  111RES   H12531145   2.024   7.031   7.180  0.2946 -1.3047 -1.5427
  111RES   H12631146   2.191   7.071   7.208 -1.6387  1.7752  0.3578
  111RES   H12731147   2.105   6.992   7.341 -1.9908 -0.8938  0.1119
  111RES   O12831148   2.404   6.935   7.301  0.1931  0.6164  0.4432
  111RES   C12931149   2.514   7.021   7.271 -0.3062  0.1793 -0.6261
  111RES   C13031150   2.528   7.135   7.372 -0.3117  0.0038 -0.3947
  111RES   C13131151   2.615   7.240   7.318  0.1604  0.3500 -0.6524
  111RES   O13231152   2.570   7.358   7.382  0.0943 -0.4061  0.3050
  111RES   C13331153   2.676   7.442   7.442  0.1573 -0.4715 -0.0552
  111RES   H13431154   2.603   6.959   7.264 -0.4746  0.0070 -1.2715
  111RES   H13531155   2.499   7.063   7.171  1.5393  1.6250 -0.3362
  111RES   H13631156   2.427   7.173   7.388  0.6740  3.1624 -1.2707
  111RES   H13731157   2.612   7.261   7.211 -0.3389  0.2270 -0.6614
  111RES   H13831158   2.717   7.206   7.339 -0.3477 -1.0061 -0.3376
  111RES   H13931159   2.664   7.549   7.426 -2.7918 -0.1625  3.5337
  111RES   H14031160   2.696   7.418   7.547 -1.7461 -3.1091 -0.2812
  111RES   H14131161   2.769   7.421   7.389  1.3973  2.4849  0.8022
  111RES   O14231162   2.576   7.077   7.491  0.1197 -0.1671  0.2242
  111RES   C14331163   2.516   7.117   7.617 -0.3000 -0.4708 -0.2789
  111RES   C14431164   2.388   7.036   7.651 -0.1000  1.1166  0.3405
  111RES   C14531165   2.344   7.069   7.791 -0.1557 -0.6783  0.1288
  111RES   O14631166   2.201   7.066   7.796  0.4615 -0.3020 -0.7224
  111RES   C14731167   2.154   7.108   0.106  0.4245  0.7171 -0.0373
  111RES   H14831168   2.583   7.107   7.702 -0.3829  2.5054  0.1643
  111RES   H14931169   2.480   7.219   7.613 -1.7150 -0.9604 -0.2834
  111RES   H15031170   2.306   7.056   7.582 -0.1179 -0.6360 -0.1832
  111RES   H15131171   2.384   7.165   0.007  0.8130 -1.0221 -0.0216
  111RES   H15231172   2.383   6.998   0.047 -0.5397 -1.2470 -0.2149
  111RES   H15331173   2.045   7.106   0.111  0.4306 -0.6535 -0.1775
  111RES   H15431174   2.177   7.213   0.119 -0.3607  1.0327 -1.1276
  111RES   H15531175   2.203   7.051   0.185 -0.0434  0.0443 -0.2212
  111RES   O15631176   2.423   6.896   7.645  0.3438  0.1227  0.1084
  111RES   C15731177   2.313   6.804   7.642 -1.1094  0.1134  0.4069
  111RES   C15831178   2.366   6.672   7.598  0.3115 -0.3628  0.1892
  111RES   C15931179   2.262   6.569   7.637 -0.9950  0.1912  0.0169
  111RES   O16031180   2.273   6.470   7.534 -0.7664 -0.4063 -0.6670
  111RES   C16131181   2.158   6.385   7.541  0.6785  0.6086  0.5162
  111RES   H16231182   2.271   6.790   7.742 -0.5688 -1.7203  0.3844
  111RES   H16331183   2.233   6.844   7.579  0.0605  0.6729 -0.7546
  111RES   H16431184   2.381   6.679   7.491  0.1160  0.7885  0.2265
  111RES   H16531185   2.270   6.531   7.740 -0.3038 -1.1013 -0.4944
  111RES   H16631186   2.169   6.624   7.629 -0.3832  1.2739  0.2238
  111RES   H16731187   2.059   6.428   7.556  0.1977 -0.4835  0.5917
  111RES   H16831188   2.165   6.304   7.614  1.5124 -1.4486 -1.7687
  111RES   H16931189   2.160   6.339   7.442  1.6693 -0.7396  1.1417
  111RES   O17031190   2.476   6.635   7.676 -0.0394 -0.2276  0.3030
  111RES   C17131191   2.603   6.668   7.623  0.1093 -0.3104 -0.7784
  111RES   C17231192   2.706   6.587   7.700  0.5118 -1.4186  0.1843
  111RES   C17331193   2.845   6.632   7.671 -0.2213 -0.0563  0.6859
  111RES   O17431194   2.926   6.567   7.769  0.2499 -0.1603 -0.4328
  111RES   C17531195   3.057   6.534   7.725  0.3026 -0.2441 -0.1810
  111RES   H17631196   2.626   6.774   7.632 -2.8309  0.1864  1.3371
  111RES   H17731197   2.613   6.650   7.516  0.7898 -0.8945 -0.6235
  111RES   H17831198   2.696   6.608   7.806  1.8821  0.6749 -0.0616
  111RES   H17931199   2.865   6.586   7.574  2.0143 -0.4219  1.2904
  111RES   H18031200   2.873   6.737   7.669 -0.5968  0.0412  0.5709
  111RES   H18131201   3.095   6.616   7.664  1.8950  1.2034  2.6808
  111RES   H18231202   3.046   6.441   7.668 -2.7369  0.0434 -0.1874
  111RES   H18331203   3.116   6.527   7.816 -0.2891  0.7266  0.2836
  111RES   O18431204   2.686   6.455   7.664 -0.0330  0.2926  0.4336
  111RES   C18531205   2.617   6.382   7.764 -0.2176  0.3943  0.5413
  111RES   C18631206   2.612   6.231   7.718 -0.4519 -0.2072  0.9528
  111RES   C18731207   2.470   6.177   7.753 -0.2579  0.2832  0.6559
  111RES   O18831208   2.455   6.041   7.727  0.0110  0.1022  0.6479
  111RES   C18931209   2.327   5.991   7.760  0.1521  0.3905  0.1428
  111RES   H19031210   2.515   6.419   7.770 -0.5856 -0.2529 -1.3036
  111RES   H19131211   2.667   6.386   0.043  0.3402  2.0277  0.2070
  111RES   H19231212   2.620   6.231   7.609 -0.4419 -1.2127  0.9466
  111RES   H19331213   2.399   6.239   7.699  0.2681 -0.2735 -0.7159
  111RES   H19431214   2.443   6.189   0.041 -3.4314  0.4778 -0.1548
  111RES   H19531215   2.269   5.991   7.668 -0.1806 -3.2015  0.2728
  111RES   H19631216   2.314   5.890   7.799 -0.5586  0.7617  0.8724
  111RES   H19731217   2.269   6.053   0.011 -0.3108 -1.0744  1.0990
  111RES   O19831218   2.721   6.146   7.771 -0.9675 -0.1980  0.3613
  111RES   C19931219   2.853   6.195   7.733 -0.0602  1.3788 -0.2054
  111RES   C20031220   2.949   6.075   7.756 -0.0343  0.6983  0.8750
  111RES   C20131221   3.095   6.112   7.779  0.2669  0.1956 -0.4400
  111RES   O20231222   3.169   6.010   0.031  0.0651 -0.1923  0.7004
  111RES   C20331223   3.305   6.054   0.059 -0.0282  0.8992  0.4512
  111RES   H20431224   2.879   6.280   7.797 -1.4422  0.1295  2.0791
  111RES   H20531225   2.859   6.225   7.628 -0.5028 -0.0867 -0.6592
  111RES   H20631226   2.922   6.017   0.027 -0.0686  1.1523  1.1649
  111RES   H20731227   3.151   6.119   7.686  4.0534 -0.1678  1.7102
  111RES   H20831228   3.114   6.212   0.001  2.0979 -0.5805  0.6758
  111RES   H20931229   3.348   5.985   0.132  2.2576  1.9569  0.1471
  111RES   H21031230   3.323   6.157   0.091  1.0337  1.3612 -1.4999
  111RES   H21131231   3.363   6.042   7.784 -0.7072  1.2273 -0.0237
  111RES   O21231232   2.941   5.998   7.637 -0.1648  0.1182 -0.1566
  111RES   C21331233   2.840   5.900   7.620  0.0895 -0.0682  0.0173
  111RES   C21431234   2.803   5.857   7.481 -0.0402  0.0481 -0.1326
  111RES   C21531235   2.680   5.769   7.472  0.0615 -0.9928 -0.7284
  111RES   O21631236   2.649   5.716   7.349 -0.2127 -0.2193 -0.1925
  111RES   C21731237   2.531   5.630   7.355 -0.2396  0.0613 -0.2209
  111RES   H21831238   2.752   5.926   7.679 -0.8491 -0.9188 -0.9942
  111RES   H21931239   2.870   5.819   7.686  2.1515 -0.1113 -0.9450
  111RES   H22031240   2.794   5.950   7.426  1.4013 -1.0769 -2.3729
  111RES   H22131241   2.703   5.696   7.549 -0.3322 -1.3824 -0.9761
  111RES   H22231242   2.596   5.836   7.494  1.9567  0.6366  1.7497
  111RES   H22331243   2.437   5.684   7.370  1.5041  3.0564  0.3745
  111RES   H22431244   2.544   5.566   7.441  0.7197  0.1653 -0.2805
  111RES   H22531245   2.515   5.579   7.260 -1.7062  2.3892 -1.2938
  111RES   O22631246   2.915   5.783   7.429 -0.3878 -0.4582  0.5864
  111RES   C22731247   2.945   5.808   7.289  0.2583 -0.0727 -0.6460
  111RES   C22831248   3.058   5.721   7.243 -0.7024  0.1416 -0.5006
  111RES   C22931249   3.054   5.715   7.093  0.7418  0.2201 -0.3252
  111RES   O23031250   3.115   5.594   7.058 -0.6247 -0.1799  0.3502
  111RES   C23131251   3.014   5.488   7.042  0.2466  0.2878  0.3379
  111RES   H23231252   2.960   5.912   7.260  1.4980  0.2576  1.0975
  111RES   H23331253   2.855   5.781   7.234  0.0875 -1.7803  0.4295
  111RES   H23431254   3.033   5.619   7.273  1.6639  0.0014  1.1213
  111RES   H23531255   3.106   5.799   7.046  0.0455 -0.2719 -1.9981
  111RES   H23631256   2.951   5.726   7.059  1.1681  0.9344 -1.4226
  111RES   H23731257   2.941   5.496   6.961  0.3729 -0.1357  0.1787
  111RES   H23831258   2.960   5.458   7.132 -3.1364  0.2610 -1.6384
  111RES   H23931259   3.073   5.402   7.010 -0.0037 -0.2141  1.2075
  111RES   O24031260   3.183   5.772   7.269 -0.3673 -0.2622 -0.1258
  111RES   C24131261   3.222   5.755   7.406 -0.3091  0.3578 -0.7293
  111RES   C24231262   3.371   5.783   7.424 -0.0286  0.8458  0.6408
  111RES   C24331263   3.395   5.762   7.577 -0.2797  0.6165  0.5503
  111RES   O24431264   3.527   5.788   7.611 -0.2964 -0.5461  0.3248
  111RES   C24531265   3.552   5.772   7.750 -0.5656  0.0631 -0.5197
  111RES   H24631266   3.195   5.659   7.452  2.5354 -0.3935 -0.5764
  111RES   H24731267   3.171   5.828   7.469  0.5766 -0.5395  1.0880
  111RES   H24831268   3.394   5.885   7.392 -0.1681  0.1889 -1.6253
  111RES   H24931269   3.326   5.835   7.620 -0.6597  0.0199  0.9417
  111RES   H25031270   3.367   5.663   7.612 -2.0327  0.4983 -1.0831
  111RES   H25131271   3.656   5.790   7.775 -0.8405  0.3384  0.4714
  111RES   H25231272   3.531   5.674   7.792  0.8625  0.1037  0.3199
  111RES   H25331273   3.490   5.832   7.817  2.9506  2.2362  0.9056
  111RES   O25431274   3.456   5.684   7.364  0.2727 -0.2812  0.4198
  111RES   C25531275   3.490   5.717   7.227 -0.1989  0.2636  0.3818
  111RES   C25631276   3.608   5.636   7.172  0.2895  0.5610 -0.5619
  111RES   C25731277   3.630   5.665   7.017 -0.2250  0.1892 -0.0422
  111RES   O25831278   3.753   5.593   6.980 -0.1557  0.5534 -1.0753
  111RES   C25931279   3.745   5.550   6.847  0.2424  0.2101  0.3987
  111RES   H26031280   3.394   5.696   7.179 -0.0966  1.0594 -0.1797
  111RES   H26131281   3.517   5.822   7.218  0.5724 -0.0196 -0.6937
  111RES   H26231282   3.585   5.532   7.195 -0.0162  0.7561  0.0437
  111RES   H26331283   3.536   5.634   6.971 -0.3290  0.5787 -0.0944
  111RES   H26431284   3.644   5.773   7.005 -0.5319  0.1870 -0.4322
  111RES   H26531285   3.814   5.468   6.826 -0.2318  0.1778 -1.1136
  111RES   H26631286   3.759   5.634   6.778  0.4474  0.9845  1.3698
  111RES   H26731287   3.646   5.512   6.822 -0.8703  3.3103 -0.1635
  111RES   O26831288   3.721   5.690   7.245 -0.0475  0.1616 -0.1356
  111RES   C26931289   3.797   5.579   7.291  0.2816  0.1086  0.2362
  111RES   C27031290   3.921   5.618   7.363  0.9359 -0.1890  0.3234
  111RES   C27131291   3.894   5.700   7.487 -0.0277  0.3299 -0.3009
  111RES   O27231292   4.004   5.695   7.575 -0.1488  0.0878  0.2303
  111RES   C27331293   3.977   5.768   7.693 -0.3997 -0.4183 -1.0011
  111RES   H27431294   3.824   5.527   7.199  0.2649 -1.8311  1.3103
  111RES   H27531295   3.737   5.511   7.350  0.8253 -0.8337 -0.2920
  111RES   H27631296   3.966   5.519   7.376 -0.1703 -0.6786  0.5019
  111RES   H27731297   3.807   5.660   7.538 -0.1452 -0.2163 -0.9333
  111RES   H27831298   3.871   5.800   7.449  2.7165  1.2703  0.3654
  111RES   H27931299   3.953   5.870   7.663 -1.0960 -0.3794 -0.3311
  111RES   H28031300   4.058   5.763   7.766 -1.4274  2.5174  0.4516
  111RES   H28131301   3.886   5.731   7.741 -0.3598  1.2287  0.3839
  111RES   H28231302   3.993   5.674   7.303  0.7212  0.3880  0.6048
  112RES     O131303   2.745   4.804   6.757 -0.3453  0.1015 -0.0036
  112RES     C231304   2.823   4.702   6.820  0.2943 -0.4842  0.7345
  112RES     C331305   2.900   4.758   6.937  0.4961  0.2380 -0.4117
  112RES     C431306   2.991   4.647   6.995 -0.8653  0.7139 -0.2042
  112RES     O531307   3.045   4.682   7.125  0.3424  0.1815 -0.4904
  112RES     C631308   3.130   4.591   7.186  0.1938  0.1112  0.5730
  112RES     H731309   2.760   4.620   6.854 -1.9110  0.6471 -0.4855
  112RES     H831310   2.881   4.657   6.740  1.0904 -1.4073  1.8195
  112RES     H931311   2.835   4.794   7.017  0.8633 -0.4153  0.1916
  112RES    H1031312   3.075   4.626   6.930 -1.5575 -0.2847 -0.7995
  112RES    H1131313   2.934   4.555   7.005  0.2330 -0.4003 -3.4324
  112RES    H1231314   3.088   4.493   7.209 -1.4427  0.5792 -0.3548
  112RES    H1331315   3.219   4.581   7.123  1.4726  2.0796  2.0103
  112RES    H1431316   3.171   4.640   7.275  2.9653 -2.6582  0.9142
  112RES    H1531317   2.810   4.870   6.735 -0.5430  1.0471  2.1005
  112RES    O1631318   2.982   4.854   6.876  0.7022 -0.9417  0.4779
  112RES    C1731319   3.056   4.936   6.960  0.1271 -0.1524  0.2496
  112RES    C1831320   3.109   5.057   6.875  0.3171  0.3922 -0.1786
  112RES    C1931321   3.004   5.139   6.805 -0.3938  0.4443  0.5572
  112RES    O2031322   3.046   5.190   6.683 -0.5367  0.2641  0.0058
  112RES    C2131323   3.097   5.325   6.679 -0.0708 -0.4204  0.8304
  112RES    H2231324   3.139   4.878   7.001  0.3564  0.4099  0.5876
  112RES    H2331325   2.986   4.967   7.038 -2.4919  1.0313 -2.5102
  112RES    H2431326   3.173   5.014   6.798 -0.2930 -0.8368 -0.0288
  112RES    H2531327   2.922   5.071   6.779  0.4179  0.2164 -1.5105
  112RES    H2631328   2.957   5.213   6.869 -0.6281 -1.1899  2.3078
  112RES    H2731329   3.056   5.374   6.590 -1.7206 -1.9933  0.6775
  112RES    H2831330   3.206   5.316   6.679  0.0055  0.4999  0.9411
  112RES    H2931331   3.076   5.388   6.765  1.6056  2.9773 -1.1397
  112RES    O3031332   3.180   5.146   6.957  0.4088 -0.0891 -0.3858
  112RES    C3131333   3.322   5.109   6.949  0.1402  0.3305 -0.6322
  112RES    C3231334   3.404   5.188   7.059 -0.0032 -0.0257 -0.3446
  112RES    C3331335   3.557   5.160   7.070 -1.0528 -0.8466 -0.2900
  112RES    O3431336   3.629   5.266   7.135 -0.3479 -0.0378  0.3593
  112RES    C3531337   3.763   5.225   7.153  0.2727  0.0766  0.7705
  112RES    H3631338   3.328   5.003   6.974 -0.8471 -0.5186 -3.7275
  112RES    H3731339   3.369   5.127   6.852 -0.3174 -0.0940 -0.9393
  112RES    H3831340   3.400   5.293   7.030  0.6641 -0.1222 -0.8150
  112RES    H3931341   3.601   5.152   6.970  0.9659  2.0662  0.2912
  112RES    H4031342   3.569   5.071   7.133 -1.9110 -0.8389 -0.1063
  112RES    H4131343   3.766   5.138   7.220 -0.3700 -1.3599 -1.0091
  112RES    H4231344   3.813   5.305   7.206  0.1693  1.1086 -0.6788
  112RES    H4331345   3.812   5.194   7.061 -2.6477 -1.5460 -0.3272
  112RES    O4431346   3.356   5.155   7.191 -0.0509 -0.1096 -0.4430
  112RES    C4531347   3.294   5.272   7.256  0.1579  0.0116  0.4108
  112RES    C4631348   3.255   5.244   7.405 -0.0366 -0.1136 -0.1602
  112RES    C4731349   3.245   5.379   7.476  0.8042 -0.0820  0.3548
  112RES    O4831350   3.215   5.363   7.615  0.0920 -0.5811  0.3127
  112RES    C4931351   3.326   5.341   7.692 -0.1037  0.0288 -0.7661
  112RES    H5031352   3.206   5.304   7.201  1.0085  1.2557 -0.2275
  112RES    H5131353   3.375   5.344   7.246 -0.0454  0.0030 -1.4780
  112RES    H5231354   3.343   5.189   7.437 -0.7640 -1.2226 -0.0479
  112RES    H5331355   3.336   5.435   7.453 -1.3875  2.6359 -2.2086
  112RES    H5431356   3.169   5.441   7.428  0.1004 -3.0025 -2.5247
  112RES    H5531357   3.362   5.238   7.687  2.4934  0.8612 -0.0082
  112RES    H5631358   3.298   5.356   7.796  0.8765 -2.0028 -0.1854
  112RES    H5731359   3.410   5.408   7.673 -1.4216  2.3981  1.4669
  112RES    O5831360   3.131   5.174   7.409  0.4882  0.8427  0.3471
  112RES    C5931361   3.125   5.037   7.367 -0.0049  0.1735  0.0587
  112RES    C6031362   2.976   4.998   7.373 -0.0930 -0.8131 -0.3667
  112RES    C6131363   2.959   4.849   7.361 -0.1009 -0.1639 -0.0534
  112RES    O6231364   2.946   4.790   7.485 -0.2388  0.0295 -1.0197
  112RES    C6331365   2.885   4.655   7.479 -0.6164 -0.4760  0.6672
  112RES    H6431366   3.178   4.981   7.443  1.2014  0.3259 -0.6505
  112RES    H6531367   3.168   5.014   7.269 -2.1365 -0.4770 -0.7396
  112RES    H6631368   2.938   5.013   7.474  0.8986  1.6395 -0.3174
  112RES    H6731369   2.880   4.815   7.294 -0.0838  0.9624 -0.6567
  112RES    H6831370   3.048   4.809   7.312  1.1105  0.5643  1.4946
  112RES    H6931371   2.951   4.593   7.417  1.4014  1.4081  0.8460
  112RES    H7031372   2.785   4.653   7.436 -0.8724  2.6249  0.9809
  112RES    H7131373   2.876   4.610   7.578 -1.7784 -0.3303  0.6240
  112RES    O7231374   2.910   5.070   7.272 -0.3778 -0.5899 -0.1451
  112RES    C7331375   2.805   5.151   7.317 -0.4716  0.4486  0.0780
  112RES    C7431376   2.731   5.200   7.193 -0.5746 -0.3100  0.2566
  112RES    C7531377   2.684   5.346   7.209  1.2793  0.2144  0.2611
  112RES    O7631378   2.653   5.400   7.085  0.5685  0.3621 -0.0088
  112RES    C7731379   2.525   5.360   7.040 -0.0287  0.2282  0.6335
  112RES    H7831380   2.732   5.093   7.375  1.2630 -1.6876  0.1616
  112RES    H7931381   2.853   5.224   7.382 -0.9928  1.0334 -0.1900
  112RES    H8031382   2.793   5.194   7.103  0.7518  2.2423  0.9690
  112RES    H8131383   2.772   5.397   7.248  0.8545  1.1170  0.0504
  112RES    H8231384   2.608   5.363   7.285  0.4510 -0.7960 -0.3064
  112RES    H8331385   2.519   5.259   6.999  1.6896  0.4944 -0.3010
  112RES    H8431386   2.499   5.423   6.955  1.8249  1.1310  0.7161
  112RES    H8531387   2.445   5.379   7.112 -0.2571  2.0738 -0.0793
  112RES    O8631388   2.613   5.119   7.175 -0.0270  0.3435 -0.0927
  112RES    C8731389   2.629   4.979   7.162 -0.6227  0.5619  0.4687
  112RES    C8831390   2.493   4.915   7.133  0.1900 -0.0470  0.0866
  112RES    C8931391   2.510   4.773   7.085 -0.7268  0.1799 -0.2404
  112RES    O9031392   2.574   4.687   7.176 -0.0330 -0.2291 -0.1397
  112RES    C9131393   2.584   4.562   7.123 -0.3440  0.1558  0.7323
  112RES    H9231394   2.702   4.955   7.085 -0.1680 -3.2304  1.9330
  112RES    H9331395   2.670   4.926   7.248  1.6810  1.9496  0.2736
  112RES    H9431396   2.450   4.969   7.048 -0.1928 -2.9681 -1.6339
  112RES    H9531397   2.411   4.734   7.061  0.1573 -2.0390 -0.3446
  112RES    H9631398   2.577   4.780   6.999 -0.3466  1.5681  0.1468
  112RES    H9731399   2.485   4.520   7.109  0.1309 -0.5557 -0.5927
  112RES    H9831400   2.636   4.565   7.027  0.6822 -0.8469  1.2431
  112RES    H9931401   2.638   4.495   7.190 -2.1206  1.1855  3.2445
  112RES   O10031402   2.408   4.917   7.248  0.1760  0.3292 -0.5192
  112RES   C10131403   2.334   5.041   7.263  0.2853  1.1645 -0.5574
  112RES   C10231404   2.220   5.017   7.362  0.4502 -0.3856 -0.3560
  112RES   C10331405   2.142   5.149   7.388 -0.6456 -0.4294  0.1481
  112RES   O10431406   2.024   5.126   7.453  0.1562  0.4723 -0.5586
  112RES   C10531407   1.964   5.242   7.508 -0.1277  0.4157 -0.1420
  112RES   H10631408   2.288   5.069   7.168 -1.3623 -1.9365 -0.7507
  112RES   H10731409   2.395   5.128   7.285  1.4135  0.4077 -0.6371
  112RES   H10831410   2.157   4.940   7.315 -0.2922 -0.1334  0.2236
  112RES   H10931411   2.118   5.200   7.295 -1.1185 -0.3104  0.3387
  112RES   H11031412   2.203   5.211   7.455 -1.4708 -0.1527  0.6496
  112RES   H11131413   2.036   5.299   7.566  1.3807  0.4758 -2.0312
  112RES   H11231414   1.887   5.226   7.583 -2.1333  1.6074 -1.9066
  112RES   H11331415   1.938   5.316   7.432  0.2311  0.0768 -0.6004
  112RES   O11431416   2.267   4.963   7.488  0.0075  0.0701  0.7755
  112RES   C11531417   2.176   4.880   7.553 -0.2447  1.0676  0.4632
  112RES   C11631418   2.243   4.820   7.674  0.6097 -1.0187  0.0803
  112RES   C11731419   2.132   4.748   7.759 -0.2116 -0.0933  0.1787
  112RES   O11831420   2.072   4.637   7.689 -0.1641  0.4532  0.3345
  112RES   C11931421   1.961   4.583   7.757 -0.6793  0.2856 -0.0166
  112RES   H12031422   2.090   4.945   7.572 -1.7380 -0.2856 -1.4317
  112RES   H12131423   2.138   4.795   7.496 -3.9642  1.3017  2.3896
  112RES   H12231424   2.302   4.893   7.729  1.3069 -2.5950  1.4477
  112RES   H12331425   2.178   4.704   0.030  0.3148 -1.3021 -0.6900
  112RES   H12431426   2.059   4.820   7.797  1.3449  0.9083  1.3285
  112RES   H12531427   1.889   4.664   7.769 -1.5669 -0.6571  1.0976
  112RES   H12631428   1.985   4.550   0.041 -0.8131 -0.4321 -0.2159
  112RES   H12731429   1.926   4.490   7.712 -0.2043  0.5463 -0.9388
  112RES   O12831430   2.320   4.709   7.634 -0.0941  0.4720  0.0205
  112RES   C12931431   2.462   4.738   7.605 -1.0605  0.4281 -0.1726
  112RES   C13031432   2.538   4.714   7.736 -0.2250 -1.0269 -0.6004
  112RES   C13131433   2.663   4.810   7.727 -0.0098 -0.2056  0.7988
  112RES   O13231434   2.752   4.795   0.020  0.0131 -0.2849 -0.0067
  112RES   C13331435   2.856   4.888   0.015 -0.2592  0.3565 -0.7204
  112RES   H13431436   2.493   4.674   7.523 -0.9297 -2.7193  2.2623
  112RES   H13531437   2.471   4.845   7.586  0.4411  0.6413  1.5649
  112RES   H13631438   2.471   4.744   7.817  0.7292  1.4134 -0.6858
  112RES   H13731439   2.632   4.914   7.731 -4.0033 -1.3972  2.9654
  112RES   H13831440   2.716   4.788   7.634 -0.5430 -0.0958  0.4675
  112RES   H13931441   2.806   4.982   0.035 -1.8525  0.0831 -3.1696
  112RES   H14031442   2.912   4.875   0.107 -0.3023  0.7619 -0.6372
  112RES   H14131443   2.919   4.898   7.743 -0.9802  2.0263 -1.0657
  112RES   O14231444   2.592   4.585   7.742  0.1718  0.0716  0.5500
  112RES   C14331445   2.495   4.480   7.755 -0.1574 -0.3417  0.1568
  112RES   C14431446   2.421   4.482   0.072  0.1296  0.0718  0.0482
  112RES   C14531447   2.531   4.504   0.187 -0.3782 -0.3383 -0.4955
  112RES   O14631448   2.474   4.494   0.311  0.2179  0.0842  0.3035
  112RES   C14731449   2.566   4.523   0.416 -0.2302  0.4314 -0.3735
  112RES   H14831450   2.421   4.482   7.674  0.3981 -0.2960 -0.3519
  112RES   H14931451   2.547   4.385   7.745  0.7453  0.3393 -1.9047
  112RES   H15031452   2.354   4.567   0.073 -0.2134 -0.1973  0.2032
  112RES   H15131453   2.575   4.603   0.169 -2.6490  0.5203 -1.5378
  112RES   H15231454   2.605   4.428   0.162  0.3656  0.1163  0.2939
  112RES   H15331455   2.655   4.460   0.417 -0.8352 -0.4558 -0.8623
  112RES   H15431456   2.530   4.516   0.519 -1.6874 -0.5688 -0.9239
  112RES   H15531457   2.608   4.622   0.406 -0.4617  0.6834  0.9896
  112RES   O15631458   2.351   4.358   0.073  0.1900  0.0166 -0.8639
  112RES   C15731459   2.233   4.362   0.157 -0.2774 -0.4707 -0.1960
  112RES   C15831460   2.164   4.221   0.163 -0.7377  0.3187  0.3676
  112RES   C15931461   2.017   4.229   0.178 -0.1901 -0.0949 -0.5070
  112RES   O16031462   1.964   4.106   0.129  0.0752 -0.0012 -0.3085
  112RES   C16131463   1.827   4.112   0.127  0.5125 -0.6354  0.1493
  112RES   H16231464   2.258   4.404   0.255 -2.1890  0.5661 -0.1374
  112RES   H16331465   2.171   4.433   0.103  1.3582  0.0083 -1.4786
  112RES   H16431466   2.183   4.156   0.078  1.2781 -1.8854  2.4500
  112RES   H16531467   1.981   4.232   0.281  2.8404 -0.9042  0.6462
  112RES   H16631468   1.985   4.316   0.121 -1.1470  0.0048  0.1799
  112RES   H16731469   1.776   4.194   0.076  0.1473 -0.4451  0.8228
  112RES   H16831470   1.784   4.109   0.227  0.5982 -1.6478  0.1614
  112RES   H16931471   1.804   4.013   0.087 -0.7851 -0.1734 -0.2665
  112RES   O17031472   2.209   4.156   0.273  0.3114  0.5082  0.1650
  112RES   C17131473   2.354   4.123   0.259  0.1163  0.5273 -0.1096
  112RES   C17231474   2.389   4.000   0.342  0.0809  0.7393 -0.3577
  112RES   C17331475   2.539   3.998   0.374  0.0798 -0.2582  0.1091
  112RES   O17431476   2.542   3.929   0.498 -0.1599  0.5225  0.2812
  112RES   C17531477   2.673   3.948   0.565  0.8659 -0.0432 -0.1865
  112RES   H17631478   2.397   4.215   0.299  1.7492  0.6863 -2.1197
  112RES   H17731479   2.389   4.106   0.157 -0.0442 -0.5227  0.0051
  112RES   H17831480   2.329   4.003   0.433 -3.3673 -3.5560 -2.2394
  112RES   H17931481   2.595   3.941   0.300  0.2057  0.9978 -0.7711
  112RES   H18031482   2.576   4.099   0.392 -0.4980  0.0668 -0.5048
  112RES   H18131483   2.654   3.946   0.672  1.2827  1.3701 -0.0812
  112RES   H18231484   2.707   4.049   0.542 -2.7566  1.4899  0.7974
  112RES   H18331485   2.757   3.885   0.534  0.6945  0.5303 -1.8839
  112RES   O18431486   2.375   3.881   0.254  0.2359 -0.1176  0.2484
  112RES   C18531487   2.248   3.818   0.257 -0.1890 -0.6079  0.3719
  112RES   C18631488   2.226   3.754   0.120  0.3471 -0.1888 -0.6237
  112RES   C18731489   2.093   3.782   0.055  0.5741 -0.2154  0.1186
  112RES   O18831490   2.085   3.739   7.734  0.2043  0.1197  0.4047
  112RES   C18931491   1.982   3.800   7.658  0.3364  0.3965  0.2922
  112RES   H19031492   2.173   3.896   0.271 -1.6706 -1.8335 -0.5873
  112RES   H19131493   2.228   3.753   0.342 -2.3352 -1.3751 -0.6943
  112RES   H19231494   2.289   3.809   0.050  0.4232  1.3342  0.6299
  112RES   H19331495   2.076   3.890   0.058 -0.7872 -0.4142 -0.4568
  112RES   H19431496   2.008   3.747   0.113 -0.0657  1.6419  0.3471
  112RES   H19531497   1.886   3.800   7.710  0.1404  0.1382 -0.0641
  112RES   H19631498   1.997   3.904   7.629  2.5345  0.4535  1.5357
  112RES   H19731499   1.981   3.731   7.573  2.0077 -1.5026  1.7733
  112RES   O19831500   2.255   3.614   0.113 -0.1670  0.6087 -0.0290
  112RES   C19931501   2.393   3.580   0.094  0.4499 -1.1126  0.0899
  112RES   C20031502   2.414   3.591   7.754  0.2588  0.5762 -0.0813
  112RES   C20131503   2.534   3.502   7.711 -0.0647 -0.4785 -0.4596
  112RES   O20231504   2.529   3.488   7.573  0.5704 -0.1053 -0.0443
  112RES   C20331505   2.626   3.408   7.506  0.3155 -0.8532  0.6615
  112RES   H20431506   2.391   3.477   0.131 -0.2832 -1.2199 -0.2278
  112RES   H20531507   2.460   3.642   0.152 -0.7831  0.6032 -0.2997
  112RES   H20631508   2.319   3.559   7.712  0.3898 -0.2406  0.2359
  112RES   H20731509   2.617   3.557   7.755 -0.2830 -1.4188  1.1319
  112RES   H20831510   2.520   3.402   7.751  0.3253  0.1384  1.2304
  112RES   H20931511   2.721   3.461   7.501 -1.2262  1.9332  0.0227
  112RES   H21031512   2.601   3.377   7.405  1.4963  2.6412 -0.7523
  112RES   H21131513   2.636   3.322   7.573  1.1055  0.3727  2.1505
  112RES   O21231514   2.454   3.721   7.718  0.2962 -0.1323  0.5312
  112RES   C21331515   2.384   3.764   7.605 -0.4674  0.2130  0.6444
  112RES   C21431516   2.396   3.922   7.594 -0.5323  0.3164 -0.2058
  112RES   C21531517   2.277   3.964   7.505  0.0617  0.2385 -0.5715
  112RES   O21631518   2.263   4.105   7.483 -0.0336  0.1112 -0.4547
  112RES   C21731519   2.220   4.187   7.598 -0.3761 -0.1289  0.3363
  112RES   H21831520   2.280   3.737   7.620 -0.4313 -0.4309 -0.2789
  112RES   H21931521   2.422   3.714   7.516 -2.1143  0.9301 -0.4817
  112RES   H22031522   2.383   3.971   7.690  0.5770  2.0026 -0.8915
  112RES   H22131523   2.286   3.917   7.407 -0.1796 -1.6728  0.2946
  112RES   H22231524   2.178   3.932   7.539 -0.1233  2.1328  0.7627
  112RES   H22331525   2.121   4.160   7.634 -0.3017  0.6181  1.1195
  112RES   H22431526   2.232   4.293   7.577  1.0359 -0.3314  0.0345
  112RES   H22531527   2.290   4.178   7.682 -0.7417  0.1341  0.6697
  112RES   O22631528   2.528   3.949   7.539 -0.1338 -0.0774  0.0076
  112RES   C22731529   2.559   4.085   7.506  0.1954 -0.0330 -0.2858
  112RES   C22831530   2.712   4.096   7.517  0.1961  0.3688 -0.2049
  112RES   C22931531   2.744   4.240   7.481  0.4562 -0.7621  0.2907
  112RES   O23031532   2.888   4.249   7.476 -0.2233 -0.3364 -0.1401
  112RES   C23131533   2.945   4.278   7.350 -0.1576  0.4673 -0.3178
  112RES   H23231534   2.511   4.157   7.572  2.5077  1.0355  0.2855
  112RES   H23331535   2.528   4.107   7.404 -1.8214  0.4447  0.3972
  112RES   H23431536   2.770   4.031   7.452  0.7133  0.5722  0.0489
  112RES   H23531537   2.704   4.309   7.556 -2.3949  0.2707 -2.0692
  112RES   H23631538   2.696   4.275   7.390  2.1331  1.3124  0.1941
  112RES   H23731539   3.051   4.285   7.325 -0.0108 -1.5611 -0.3268
  112RES   H23831540   2.901   4.372   7.318  0.6945  1.5377  1.6260
  112RES   H23931541   2.907   4.204   7.279  1.0691  1.1376 -1.6962
  112RES   O24031542   2.758   4.088   7.651 -0.1912 -0.0642  0.2007
  112RES   C24131543   2.809   3.961   7.686 -0.5844 -0.3215 -0.1050
  112RES   C24231544   2.775   3.934   0.015 -0.3557  0.2354  0.1586
  112RES   C24331545   2.817   3.793   0.060 -0.6436 -0.4672  0.0195
  112RES   O24431546   2.748   3.769   0.184  0.1001 -0.4095  0.0757
  112RES   C24531547   2.765   3.639   0.227  0.0357 -0.7097 -0.2592
  112RES   H24631548   2.912   3.950   7.651 -0.3925  1.9765 -0.3392
  112RES   H24731549   2.750   3.888   7.631 -0.2422 -0.8864  0.2583
  112RES   H24831550   2.670   3.952   0.039 -0.3110  0.6099  0.0778
  112RES   H24931551   2.774   3.720   7.808 -1.2278 -0.1535  0.0527
  112RES   H25031552   2.923   3.778   0.078 -0.4876  0.6387  0.0560
  112RES   H25131553   2.689   3.621   0.304 -0.1612 -0.1056 -0.3131
  112RES   H25231554   2.865   3.606   0.254  0.7278 -0.7737 -2.8193
  112RES   H25331555   2.749   3.569   0.145 -1.0750 -0.2597 -0.4276
  112RES   O25431556   2.856   4.008   0.109  0.4953  0.0397  0.4604
  112RES   C25531557   2.824   4.143   0.127  0.2724  0.5247 -0.3665
  112RES   C25631558   2.944   4.242   0.114 -0.4286  0.5500 -0.5046
  112RES   C25731559   2.907   4.390   0.111  1.0675  0.2481  0.0604
  112RES   O25831560   3.024   4.467   0.084 -0.0848 -0.1723 -0.3784
  112RES   C25931561   2.994   4.606   0.066  0.1658 -0.2131 -0.3311
  112RES   H26031562   2.756   4.179   0.050 -0.5305 -0.1646  0.0074
  112RES   H26131563   2.771   4.147   0.222  1.0402  0.7739  0.0503
  112RES   H26231564   2.995   4.219   0.021  0.0265 -1.2573  0.1770
  112RES   H26331565   2.835   4.413   0.033  0.2011  1.0336  1.0839
  112RES   H26431566   2.851   4.417   0.201 -0.1272 -0.4156 -0.4790
  112RES   H26531567   3.083   4.665   0.050 -1.0830  1.9641  0.5771
  112RES   H26631568   2.933   4.637   0.150  2.0982  2.6357  0.0737
  112RES   H26731569   2.942   4.618   7.788  1.4227  0.0544 -0.9964
  112RES   O26831570   3.025   4.208   0.231  0.0829 -0.0119  0.5004
  112RES   C26931571   3.159   4.229   0.206  0.1937  0.4844  0.7429
  112RES   C27031572   3.233   4.191   0.334 -0.2376 -1.0076 -0.3664
  112RES   C27131573   3.247   4.046   0.365 -0.4062 -0.1180 -0.3367
  112RES   O27231574   3.296   4.032   0.495  0.4015  0.3207  0.1695
  112RES   C27331575   3.290   3.900   0.539  0.3957 -0.9447 -0.8133
  112RES   H27431576   3.187   4.333   0.193  0.6302  0.3421  0.5147
  112RES   H27531577   3.201   4.180   0.119  1.4882  1.0810  1.0144
  112RES   H27631578   3.334   4.233   0.326 -1.2295  1.3715 -0.9793
  112RES   H27731579   3.309   3.993   0.293 -0.2601 -1.2137  0.5775
  112RES   H27831580   3.148   4.002   0.351 -0.2021 -0.5021 -0.5747
  112RES   H27931581   3.186   3.869   0.551 -0.1383  0.7359 -0.8893
  112RES   H28031582   3.339   3.888   0.635  0.1136 -0.8496 -0.6580
  112RES   H28131583   3.346   3.827   0.480  1.8447  0.2888 -1.0092
  112RES   H28231584   3.183   4.244   0.415  0.2966  1.0236 -1.3346
  113RES     O131585   1.704   2.751   6.933 -0.0996 -0.0979  0.5719
  113RES     C231586   1.729   2.772   6.795 -0.3947  0.4230 -0.4424
  113RES     C331587   1.649   2.895   6.734  0.4314 -0.1312  0.3740
  113RES     C431588   1.689   3.038   6.781 -0.1728  0.4255  0.1363
  113RES     O531589   1.571   3.118   6.768  0.5777 -0.2977 -0.1881
  113RES     C631590   1.596   3.256   6.792 -0.0090  0.2916 -0.0687
  113RES     H731591   1.835   2.794   6.781 -0.3754  0.2856 -0.5157
  113RES     H831592   1.712   2.681   6.738 -2.3551  0.6163 -0.2036
  113RES     H931593   1.543   2.881   6.756 -0.0605  0.7322 -1.4190
  113RES    H1031594   1.785   3.080   6.748 -1.6709  1.8623 -2.6265
  113RES    H1131595   1.703   3.034   6.889  2.1271  2.7287 -0.0188
  113RES    H1231596   1.506   3.316   6.775  0.1806 -0.1008 -2.5692
  113RES    H1331597   1.622   3.265   6.898 -2.2074 -0.0912  0.5299
  113RES    H1431598   1.662   3.295   6.715  0.0669  1.3359  0.5056
  113RES    H1531599   1.618   2.712   6.939 -0.0762  0.0330  1.8408
  113RES    O1631600   1.679   2.880   6.601 -0.2402 -0.2436  0.3668
  113RES    C1731601   1.570   2.813   6.530  0.1724  0.0050  0.1657
  113RES    C1831602   1.634   2.748   6.402 -0.4033 -0.4569  0.6014
  113RES    C1931603   1.711   2.854   6.316 -0.1575  0.3966 -0.1798
  113RES    O2031604   1.783   2.813   6.196  0.3648  0.3748 -0.1461
  113RES    C2131605   1.823   2.921   6.114  0.5874 -0.3558 -0.2313
  113RES    H2231606   1.496   2.886   6.498  0.2264  0.6122  1.3857
  113RES    H2331607   1.520   2.738   6.592 -1.5746 -0.1926 -1.4252
  113RES    H2431608   1.550   2.718   6.340 -1.3465  0.2546  1.4966
  113RES    H2531609   1.640   2.918   6.263  0.3754 -0.4667 -2.0112
  113RES    H2631610   1.774   2.916   6.379 -0.8475 -1.4667  2.4379
  113RES    H2731611   1.751   2.999   6.091  0.4946 -0.0236  1.1519
  113RES    H2831612   1.868   2.885   6.022  1.5124 -2.4919  1.0172
  113RES    H2931613   1.907   2.966   6.168 -0.5986  0.5748  0.8854
  113RES    O3031614   1.706   2.634   6.454 -0.0009 -0.5081 -0.2179
  113RES    C3131615   1.765   2.551   6.356  0.4463 -0.5474  0.0914
  113RES    C3231616   1.919   2.551   6.374 -0.2473 -0.9218 -0.1414
  113RES    C3331617   1.992   2.503   6.241  0.7072 -0.2424  0.1350
  113RES    O3431618   2.123   2.550   6.230  0.3876  0.8924 -0.3298
  113RES    C3531619   2.220   2.493   6.318 -0.5103  0.5293 -0.0640
  113RES    H3631620   1.734   2.451   6.386  3.3416 -2.3222 -2.4816
  113RES    H3731621   1.729   2.550   6.253  0.0549 -1.0635  0.2316
  113RES    H3831622   1.955   2.654   6.379 -0.1811 -0.9323 -0.3750
  113RES    H3931623   1.939   2.539   6.152  1.5878  1.6262  0.3379
  113RES    H4031624   1.995   2.394   6.243 -1.3939 -0.3137  0.9486
  113RES    H4131625   2.313   2.494   6.260  0.5334 -1.4216  1.5399
  113RES    H4231626   2.205   2.393   6.359 -0.0918  1.4521  2.4343
  113RES    H4331627   2.224   2.563   6.402  0.2531  1.0310 -0.5013
  113RES    O4431628   1.952   2.471   6.483  0.3738  0.0252  0.0761
  113RES    C4531629   1.925   2.528   6.608 -0.4292  0.2494 -0.4247
  113RES    C4631630   2.009   2.444   6.709  0.0369 -0.7688  0.7243
  113RES    C4731631   2.074   2.537   6.816  0.9764 -0.0175 -0.0381
  113RES    O4831632   2.182   2.470   6.885  0.0009 -0.3257 -0.0410
  113RES    C4931633   2.255   2.567   6.968  0.5593  0.2355  0.0989
  113RES    H5031634   1.821   2.515   6.638 -0.1174 -1.3137  0.0604
  113RES    H5131635   1.962   2.629   6.592  4.0242 -1.1181  0.4817
  113RES    H5231636   2.089   2.402   6.648 -1.7325 -0.8452 -1.6217
  113RES    H5331637   2.105   2.627   6.764  0.2944  0.9210  1.1615
  113RES    H5431638   1.999   2.573   6.887  1.2495  1.5042 -0.5209
  113RES    H5531639   2.207   2.626   7.045 -0.2738  0.8241 -0.8579
  113RES    H5631640   2.301   2.641   6.901  2.8000 -0.0150  1.3137
  113RES    H5731641   2.347   2.530   7.015  0.7174  1.2750  0.6220
  113RES    O5831642   1.928   2.347   6.768  0.4764  0.0393  0.3284
  113RES    C5931643   1.988   2.223   6.795  0.4449  0.0928  0.1734
  113RES    C6031644   1.878   2.123   6.818  0.1173 -0.2631 -0.1062
  113RES    C6131645   1.925   2.004   6.895  0.6058 -0.1980  0.8021
  113RES    O6231646   1.809   1.922   6.923 -0.1433 -0.4129 -0.2886
  113RES    C6331647   1.843   1.795   6.978 -0.2587 -0.4458  0.4098
  113RES    H6431648   2.045   2.243   6.885  0.7284 -2.3342  0.5531
  113RES    H6531649   2.058   2.189   6.719  1.6134  2.4615  0.1476
  113RES    H6631650   1.785   2.167   6.855  0.2715  0.6517 -0.7685
  113RES    H6731651   2.003   1.955   6.837  1.7188  0.9561  1.2976
  113RES    H6831652   1.977   2.032   6.986  1.2529 -3.3163  1.4365
  113RES    H6931653   1.753   1.734   6.977 -1.7850  1.7070  1.2957
  113RES    H7031654   1.890   1.800   7.076  0.5504  2.1700 -0.0679
  113RES    H7131655   1.927   1.764   6.916 -2.5123 -0.4594 -2.7676
  113RES    O7231656   1.852   2.069   6.693 -0.0523  1.0711 -0.2432
  113RES    C7331657   1.768   2.145   6.611 -0.5136 -0.0148 -0.3230
  113RES    C7431658   1.682   2.052   6.529 -0.3823  0.5698  0.3277
  113RES    C7531659   1.643   2.118   6.393  0.0720  0.1643 -0.9970
  113RES    O7631660   1.599   2.028   6.289  0.2229 -0.4529 -0.0102
  113RES    C7731661   1.475   1.958   6.315  0.7919 -0.6306 -0.1277
  113RES    H7831662   1.705   2.219   6.660  0.1643  0.4085 -0.0940
  113RES    H7931663   1.829   2.201   6.540  0.7681  3.3888  3.3083
  113RES    H8031664   1.730   1.956   6.508 -0.4703  1.0292 -2.1004
  113RES    H8131665   1.735   2.162   6.354  1.0679 -0.1926  0.8995
  113RES    H8231666   1.563   2.192   6.408 -0.0083 -0.3020  1.0722
  113RES    H8331667   1.486   1.898   6.406 -1.2983 -0.6696  0.1229
  113RES    H8431668   1.437   1.908   6.226 -2.0232 -1.4817  1.4888
  113RES    H8531669   1.390   2.021   6.341  0.8488 -0.9546  0.8745
  113RES    O8631670   1.556   2.036   6.595  0.0779  0.2906 -0.1201
  113RES    C8731671   1.549   1.941   6.697 -0.7551 -0.0377  0.5397
  113RES    C8831672   1.403   1.937   6.756 -0.6178  0.3896  0.3053
  113RES    C8931673   1.392   1.824   6.855 -0.2992 -0.3438 -0.2081
  113RES    O9031674   1.253   1.777   6.865 -0.3304 -0.1115 -0.0729
  113RES    C9131675   1.236   1.689   6.979 -0.1095 -0.4887  0.1955
  113RES    H9231676   1.568   1.840   6.661 -0.7188 -0.5870  2.0325
  113RES    H9331677   1.619   1.978   6.773  0.7733  0.5533 -1.1333
  113RES    H9431678   1.347   1.908   6.667  1.8383 -1.1260 -0.8252
  113RES    H9531679   1.463   1.745   6.834 -0.6562 -0.2411 -1.8840
  113RES    H9631680   1.418   1.865   6.953 -0.2856  0.8862 -0.7089
  113RES    H9731681   1.271   1.739   7.069  0.2869  0.7946 -0.6632
  113RES    H9831682   1.131   1.664   6.991 -0.7424  1.8216 -0.2413
  113RES    H9931683   1.303   1.603   6.973 -1.5266 -1.5197 -1.2110
  113RES   O10031684   1.365   2.064   6.821  0.1597 -0.4617  0.6726
  113RES   C10131685   1.256   2.118   6.747  0.0557  0.4211 -0.2826
  113RES   C10231686   1.222   2.263   6.787 -0.0742  0.3643  0.3907
  113RES   C10331687   1.073   2.285   6.781 -0.1057 -0.3014 -0.6368
  113RES   O10431688   1.029   2.407   6.838  0.3602  0.0386 -0.7659
  113RES   C10531689   0.887   2.426   6.837  0.0135  0.0054  0.1947
  113RES   H10631690   1.172   2.048   6.753  0.3318  0.1168  0.0570
  113RES   H10731691   1.282   2.111   6.641 -1.1880 -0.9996 -0.5146
  113RES   H10831692   1.258   2.290   6.887 -2.2641  3.0258  0.5365
  113RES   H10931693   1.024   2.207   6.840  0.2700  0.5941  0.8728
  113RES   H11031694   1.050   2.281   6.674 -0.2955  0.3878 -0.6202
  113RES   H11131695   0.854   2.431   6.734 -0.1445  1.5390  0.2982
  113RES   H11231696   0.855   2.521   6.881 -1.9211 -0.5820  0.1096
  113RES   H11331697   0.836   2.340   6.880 -1.1828  0.2773 -0.6637
  113RES   O11431698   1.272   2.353   6.687  0.4273  1.1356 -0.1768
  113RES   C11531699   1.411   2.374   6.691 -0.2610  0.5377  0.2935
  113RES   C11631700   1.460   2.463   6.807  0.4750 -0.1770 -0.4024
  113RES   C11731701   1.603   2.420   6.851 -0.4454 -0.8795  0.3830
  113RES   O11831702   1.643   2.469   6.975  0.4611  0.4066 -0.3202
  113RES   C11931703   1.744   2.400   7.043  0.5719  0.5926  0.4614
  113RES   H12031704   1.459   2.276   6.686 -0.1391  0.6449 -0.7555
  113RES   H12131705   1.432   2.420   6.594 -1.4441 -0.9945 -0.7069
  113RES   H12231706   1.403   2.443   6.898 -1.2149  1.7736 -1.0145
  113RES   H12331707   1.617   2.312   6.852  1.9031 -0.6059 -0.2177
  113RES   H12431708   1.677   2.454   6.779 -1.1884  1.3516  0.6533
  113RES   H12531709   1.726   2.408   7.150 -2.3710  0.6227  0.0003
  113RES   H12631710   1.841   2.433   7.006 -0.0991  1.3984 -0.5940
  113RES   H12731711   1.742   2.292   7.030 -1.1611  0.6673  0.0607
  113RES   O12831712   1.455   2.603   6.770  0.2974 -0.0336 -0.3173
  113RES   C12931713   1.325   2.656   6.746 -0.1961  0.1225 -0.1641
  113RES   C13031714   1.254   2.672   6.885 -0.1454  0.1844 -0.2705
  113RES   C13131715   1.129   2.752   6.859 -0.9425  0.6087  0.2824
  113RES   O13231716   1.031   2.721   6.958  0.2141 -0.3559  0.4335
  113RES   C13331717   0.925   2.810   6.984 -0.3585  0.1329 -0.1357
  113RES   H13431718   1.337   2.758   6.710  0.9490  0.2795  0.6451
  113RES   H13531719   1.266   2.598   6.675 -0.7764 -1.2172  1.3865
  113RES   H13631720   1.238   2.573   6.926 -1.2681  0.2219 -0.6041
  113RES   H13731721   1.085   2.717   6.766 -0.0943  1.9348 -0.6300
  113RES   H13831722   1.160   2.855   6.838 -0.6238 -0.0388 -2.5729
  113RES   H13931723   0.865   2.822   6.893  1.4277  0.7635 -1.2748
  113RES   H14031724   0.856   2.759   7.051 -2.5499  2.3491 -0.6177
  113RES   H14131725   0.962   2.898   7.037  0.1898 -0.6988  0.8573
  113RES   O14231726   1.337   2.745   6.981 -0.1020  0.7738  1.0999
  113RES   C14331727   1.300   2.727   7.118  0.2593  0.1400  0.5551
  113RES   C14431728   1.408   2.767   7.217  0.5117  0.0078 -0.2486
  113RES   C14531729   1.350   2.736   7.359  0.3836  0.4188 -0.4635
  113RES   O14631730   1.454   2.758   7.452 -0.3578  0.4126  0.0892
  113RES   C14731731   1.552   2.651   7.452  0.1923 -0.3287 -0.0511
  113RES   H14831732   1.206   2.778   7.136  0.5763  1.0844 -0.3558
  113RES   H14931733   1.274   2.624   7.141  1.0293  0.1470  1.4574
  113RES   H15031734   1.501   2.716   7.192  0.2362  0.0400 -1.3249
  113RES   H15131735   1.317   2.632   7.354 -0.5327  0.5592  2.0090
  113RES   H15231736   1.266   2.801   7.383 -0.4425 -0.1238 -1.8126
  113RES   H15331737   1.616   2.652   7.364 -3.4735  0.6853 -2.7841
  113RES   H15431738   1.500   2.559   7.475 -1.8882  0.3772 -1.8204
  113RES   H15531739   1.617   2.660   7.540  0.3169 -0.2140 -0.1555
  113RES   O15631740   1.423   2.904   7.220 -0.2825  0.2503 -0.0385
  113RES   C15731741   1.541   2.962   7.159  0.6373 -0.7272  0.6044
  113RES   C15831742   1.532   3.121   7.187 -0.2557  0.4907 -0.5476
  113RES   C15931743   1.569   3.175   7.325 -1.0034  0.0598  0.4853
  113RES   O16031744   1.704   3.128   7.334 -0.0709 -0.5520 -0.2602
  113RES   C16131745   1.755   3.139   7.468  0.1366 -0.4832 -0.8696
  113RES   H16231746   1.632   2.927   7.209 -0.8540 -1.6833  2.7372
  113RES   H16331747   1.529   2.942   7.053 -1.8929 -1.4158  0.9802
  113RES   H16431748   1.600   3.177   7.123 -0.8360  1.2796 -0.4728
  113RES   H16531749   1.566   3.283   7.316  2.2076  0.1635  0.0940
  113RES   H16631750   1.508   3.137   7.407  0.6082 -1.3198  1.0796
  113RES   H16731751   1.739   3.240   7.504 -2.4073 -1.3747  0.6738
  113RES   H16831752   1.858   3.107   7.479  0.3280  0.4194 -0.0091
  113RES   H16931753   1.692   3.082   7.536  0.8923 -0.2313  0.0504
  113RES   O17031754   1.398   3.171   7.162 -0.2175 -0.0351 -0.3228
  113RES   C17131755   1.350   3.185   7.031  0.8469  0.0514 -0.1260
  113RES   C17231756   1.211   3.237   7.044 -0.2299 -0.5623  0.4357
  113RES   C17331757   1.140   3.215   6.911 -0.0406  0.3635 -0.0431
  113RES   O17431758   1.003   3.257   6.924 -0.1734  0.6431 -0.0047
  113RES   C17531759   0.922   3.231   6.813 -0.5225  0.7605  0.3945
  113RES   H17631760   1.341   3.084   6.992 -1.3493  0.6392 -1.2339
  113RES   H17731761   1.416   3.248   6.972 -1.5221  1.7947 -0.9883
  113RES   H17831762   1.150   3.194   7.124 -0.9767 -0.0534  0.1458
  113RES   H17931763   1.189   3.259   6.824  0.1979 -3.1797 -1.8001
  113RES   H18031764   1.145   3.106   6.903  1.9513  0.4552 -0.3791
  113RES   H18131765   0.934   3.127   6.781  3.2609  1.0714  0.5697
  113RES   H18231766   0.945   3.301   6.733  2.3510 -1.3631 -0.7445
  113RES   H18331767   0.817   3.243   6.839 -0.2071  0.3354  1.9022
  113RES   O18431768   1.199   3.379   7.064 -0.0088  0.0721  0.5264
  113RES   C18531769   1.234   3.425   7.193  0.2982 -0.4842 -0.9730
  113RES   C18631770   1.129   3.528   7.242  0.2926 -0.3744  0.4306
  113RES   C18731771   1.191   3.625   7.343  0.6442 -0.0303  0.2341
  113RES   O18831772   1.096   3.725   7.382  0.0507 -0.2903 -0.6153
  113RES   C18931773   1.129   3.795   7.501 -0.5028 -0.5049  0.8260
  113RES   H19031774   1.328   3.481   7.185 -1.4079  2.3535 -1.9989
  113RES   H19131775   1.249   3.347   7.267  2.0500 -0.7655 -1.5936
  113RES   H19231776   1.101   3.600   7.165  0.1076  0.5257  1.3251
  113RES   H19331777   1.280   3.671   7.299  1.0920  0.8599  2.0132
  113RES   H19431778   1.226   3.562   7.425  0.6352  0.1473  0.3767
  113RES   H19531779   1.237   3.812   7.505 -0.5839 -0.4428  4.5791
  113RES   H19631780   1.079   3.891   7.513  0.2243  0.3050 -2.1532
  113RES   H19731781   1.100   3.732   7.585 -4.4141  0.0004 -0.0633
  113RES   O19831782   1.016   3.469   7.303 -0.1191  0.1139 -0.0559
  113RES   C19931783   0.930   3.399   7.215  0.7028 -0.0860 -0.1213
  113RES   C20031784   0.804   3.369   7.292 -0.0603 -0.5478 -0.2063
  113RES   C20131785   0.726   3.259   7.222  0.4289  0.5948 -0.3232
  113RES   O20231786   0.637   3.191   7.303 -0.4176 -0.0711 -0.1276
  113RES   C20331787   0.570   3.080   7.245 -0.3297 -0.5870  0.8781
  113RES   H20431788   0.963   3.306   7.170  0.4514 -0.0623 -0.3492
  113RES   H20531789   0.924   3.464   7.128  2.0278 -0.3736 -0.4488
  113RES   H20631790   0.823   3.330   7.392 -2.0274  0.9872  0.7993
  113RES   H20731791   0.687   3.305   7.131 -0.0975  0.8900  0.0526
  113RES   H20831792   0.795   3.180   7.190 -0.8592 -0.9873  0.7379
  113RES   H20931793   0.635   2.993   7.252 -1.1626 -1.3365 -0.4249
  113RES   H21031794   0.551   3.081   7.138  0.9338  1.4832  0.6454
  113RES   H21131795   0.478   3.058   7.300 -0.5070 -1.6424  0.1705
  113RES   O21231796   0.719   3.482   7.289  0.1039  0.7629  0.1902
  113RES   C21331797   0.772   3.595   7.357  0.7109  0.2094 -0.1446
  113RES   C21431798   0.663   3.703   7.356 -0.4546  0.5758  0.3201
  113RES   C21531799   0.639   3.778   7.220 -0.6497 -0.0581 -0.2024
  113RES   O21631800   0.745   3.866   7.178  0.2484 -0.1492  0.6446
  113RES   C21731801   0.730   3.931   7.055  0.0263  0.8171  0.0696
  113RES   H21831802   0.845   3.640   7.289  1.1550 -0.9968 -0.4695
  113RES   H21931803   0.826   3.573   7.449  1.7071  1.4252 -0.4148
  113RES   H22031804   0.573   3.647   7.384 -1.1883  2.0849  1.0129
  113RES   H22131805   0.624   3.700   7.145 -1.4532 -0.2628  0.1576
  113RES   H22231806   0.552   3.843   7.227  1.9844  3.3553  2.0263
  113RES   H22331807   0.812   4.003   7.045  1.1293 -0.5549 -1.0578
  113RES   H22431808   0.634   3.979   7.040  0.1143  1.2830  0.9237
  113RES   H22531809   0.755   3.860   6.977  1.8162 -0.5550  1.8345
  113RES   O22631810   0.671   3.789   7.470 -0.4050  0.5105  0.0115
  113RES   C22731811   0.791   3.868   7.481  0.2120  0.8429  0.3299
  113RES   C22831812   0.800   3.922   7.626  0.3442 -0.2644  0.0280
  113RES   C22931813   0.810   3.795   7.718  0.3996  0.3444 -0.4024
  113RES   O23031814   0.783   3.832   0.032 -0.4443 -0.0102 -0.1510
  113RES   C23131815   0.789   3.717   0.118  0.1149 -0.1578  0.5627
  113RES   H23231816   0.789   3.951   7.411 -0.4400  0.2565 -0.3576
  113RES   H23331817   0.879   3.811   7.451  1.2046  2.4698  0.1174
  113RES   H23431818   0.712   3.980   7.653 -0.0274 -0.8554  0.1024
  113RES   H23531819   0.910   3.751   7.711  1.0638  1.7209  0.1569
  113RES   H23631820   0.736   3.721   7.689 -1.2220  1.5217  0.6854
  113RES   H23731821   0.886   3.668   0.114  0.5944  0.8302 -0.1940
  113RES   H23831822   0.713   3.641   0.100 -0.0695  0.2222 -0.3069
  113RES   H23931823   0.776   3.755   0.219  0.2753 -0.1332  0.5737
  113RES   O24031824   0.914   4.009   7.631 -0.5103  0.2131  0.6209
  113RES   C24131825   0.954   4.037   7.765 -0.4152 -0.0305  0.5710
  113RES   C24231826   1.062   4.151   7.780 -1.2715 -0.0296 -0.3091
  113RES   C24331827   1.075   4.196   0.111  0.4951 -0.3532 -0.8643
  113RES   O24431828   1.155   4.308   0.124  0.5728 -0.3312 -0.4050
  113RES   C24531829   1.181   4.359   0.258  0.3490 -0.0360  0.6517
  113RES   H24631830   0.997   3.949   7.813 -2.1591  0.1153  2.4803
  113RES   H24731831   0.865   4.057   0.008 -0.9659 -0.5929 -0.0538
  113RES   H24831832   1.041   4.225   7.702  0.1349 -0.6891 -1.3494
  113RES   H24931833   0.984   4.234   0.156  1.2215  1.1458 -0.6486
  113RES   H25031834   1.109   4.122   0.183 -2.8851  0.4684  1.6993
  113RES   H25131835   1.250   4.441   0.239  0.4990 -0.2241  0.3705
  113RES   H25231836   1.236   4.281   0.311 -2.4741 -1.4711  1.5842
  113RES   H25331837   1.089   4.381   0.311  0.5758 -0.0648  1.0679
  113RES   O25431838   1.183   4.084   7.745  0.0844 -0.4190  0.1717
  113RES   C25531839   1.299   4.160   7.726 -0.4945 -0.5563  0.2307
  113RES   C25631840   1.427   4.078   7.694 -0.1763  0.5667  0.0839
  113RES   C25731841   1.541   4.174   7.639  0.4428 -0.2145 -0.5871
  113RES   O25831842   1.649   4.085   7.609  0.1950  0.1547  0.6085
  113RES   C25931843   1.744   4.119   7.510  0.0731  0.5152 -0.0526
  113RES   H26031844   1.290   4.238   7.650  2.4352 -1.1901 -0.8435
  113RES   H26131845   1.322   4.218   7.815  0.9089 -2.6996  1.2997
  113RES   H26231846   1.401   4.004   7.618 -3.7005  0.1965  1.5815
  113RES   H26331847   1.505   4.220   7.547 -0.4820 -0.5227 -0.3880
  113RES   H26431848   1.565   4.260   7.701  1.0582 -1.0983  0.4172
  113RES   H26531849   1.720   4.209   7.452 -2.6170  0.6457  1.2207
  113RES   H26631850   1.739   4.033   7.443 -1.3073 -1.1241  2.0921
  113RES   H26731851   1.847   4.132   7.545  0.5627 -0.9530 -0.8999
  113RES   O26831852   1.471   4.012   7.814  0.5945  0.1337  0.2179
  113RES   C26931853   1.464   3.872   7.811 -0.3861 -0.5238 -0.1685
  113RES   C27031854   1.322   3.820   0.034 -1.0800 -0.3138  0.3380
  113RES   C27131855   1.270   3.881   0.163 -0.0961 -0.3822  0.1257
  113RES   O27231856   1.139   3.819   0.190 -0.2301  0.4324  0.3518
  113RES   C27331857   1.100   3.841   0.324  0.2174  0.1506  0.5871
  113RES   H27431858   1.538   3.845   0.069 -1.4611 -3.4726 -0.0647
  113RES   H27531859   1.504   3.821   7.723 -0.3167 -0.7922  0.0189
  113RES   H27631860   1.247   3.823   7.772 -2.6218 -1.3047  1.7130
  113RES   H27731861   1.273   3.990   0.152 -3.1199 -0.5023 -2.7133
  113RES   H27831862   1.342   3.857   0.241 -0.6055  0.9426  1.0177
  113RES   H27931863   1.172   3.869   0.401 -0.7618  1.0175  1.1924
  113RES   H28031864   1.058   3.753   0.372  0.5381 -0.8343 -0.8823
  113RES   H28131865   1.023   3.917   0.317 -0.0494 -0.2003 -0.5013
  113RES   H28231866   1.326   3.711   0.042 -1.4541 -0.2977  0.7972
  114RES     O131867   5.250   2.538   1.648  0.2315  0.7272  0.5473
  114RES     C231868   5.108   2.506   1.653  0.5298  0.5522  0.0477
  114RES     C331869   5.091   2.363   1.589 -0.1392 -0.6092 -0.6011
  114RES     C431870   4.946   2.301   1.608 -0.3356 -0.4910  0.4790
  114RES     O531871   4.969   2.163   1.610 -0.2532 -0.0300  0.2852
  114RES     C631872   4.853   2.078   1.612 -0.2259 -0.8533 -0.3040
  114RES     H731873   5.073   2.508   1.757 -0.6346 -0.1569 -0.3202
  114RES     H831874   5.047   2.579   1.601  0.4711  0.4808  0.0169
  114RES     H931875   5.165   2.308   1.647 -1.0639 -0.0844  1.1278
  114RES    H1031876   4.883   2.324   1.522 -0.6774 -0.3005  0.7761
  114RES    H1131877   4.895   2.321   1.703 -2.7316  0.8950 -1.0365
  114RES    H1231878   4.772   2.106   1.544  1.0240  1.5733 -0.8759
  114RES    H1331879   4.884   1.975   1.593 -3.1851 -2.6197  3.7968
  114RES    H1431880   4.827   2.083   1.717 -1.8240 -1.4946 -0.6544
  114RES    H1531881   5.261   2.549   1.555 -0.8691  1.0979  0.4511
  114RES    O1631882   5.118   2.388   1.451 -0.0441  0.5460 -0.1541
  114RES    C1731883   5.130   2.269   1.367  0.4257 -0.1492  0.2602
  114RES    C1831884   5.168   2.304   1.223  0.3178  0.2722 -0.5652
  114RES    C1931885   5.236   2.176   1.163  0.0307 -0.8615  0.8414
  114RES    O2031886   5.172   2.056   1.199 -0.1798  0.3781 -0.1985
  114RES    C2131887   5.263   1.946   1.225 -0.9355 -0.0690 -0.0494
  114RES    H2231888   5.045   2.201   1.378 -0.1081  0.2143 -1.5090
  114RES    H2331889   5.200   2.199   1.414 -1.0444 -0.0165  2.7652
  114RES    H2431890   5.223   2.398   1.217  2.0166 -0.5559  1.3428
  114RES    H2531891   5.241   2.176   1.054 -2.2659  0.5872  0.6870
  114RES    H2631892   5.338   2.186   1.199 -0.0186  1.2516  0.5008
  114RES    H2731893   5.318   1.918   1.135  0.4581  2.1258  0.0894
  114RES    H2831894   5.208   1.861   1.265 -0.8095  0.2673  0.8447
  114RES    H2931895   5.336   1.963   1.304 -1.2178 -0.7710  0.3645
  114RES    O3031896   5.040   2.318   1.157  0.0980  0.4570  0.3022
  114RES    C3131897   4.986   2.447   1.170  0.8887  0.0036  0.3123
  114RES    C3231898   4.839   2.441   1.114 -0.2614  0.4902 -0.2580
  114RES    C3331899   4.791   2.559   1.047  0.5865  0.0328 -0.0454
  114RES    O3431900   4.656   2.541   0.984 -0.0667 -0.2926 -0.1991
  114RES    C3531901   4.606   2.665   0.957 -0.1641 -0.2018  0.4037
  114RES    H3631902   4.988   2.494   1.268 -0.0252  1.4481 -0.3405
  114RES    H3731903   5.034   2.519   1.104 -0.8792 -0.0684 -1.0983
  114RES    H3831904   4.842   2.366   1.036  1.8494  0.6845 -0.3809
  114RES    H3931905   4.851   2.585   0.960 -0.6949 -1.1769 -1.3248
  114RES    H4031906   4.799   2.640   1.119 -0.9283 -1.7069  2.1636
  114RES    H4131907   4.524   2.653   0.885 -0.5482  2.3419  0.3642
  114RES    H4231908   4.675   2.732   0.907  0.0741 -0.3211  0.5726
  114RES    H4331909   4.574   2.709   1.051  0.4690  1.0272  0.0552
  114RES    O4431910   4.755   2.393   1.218  0.9930 -1.1212 -0.8640
  114RES    C4531911   4.636   2.310   1.201 -1.0781 -0.4793  1.0910
  114RES    C4631912   4.654   2.169   1.259 -0.1153  0.0462  0.0635
  114RES    C4731913   4.515   2.131   1.324 -0.4745 -0.6172 -0.0839
  114RES    O4831914   4.531   2.035   1.419 -0.3061  0.0515  0.4853
  114RES    C4931915   4.401   1.995   1.475  0.2291 -0.0744  0.0398
  114RES    H5031916   4.618   2.310   1.093  0.0102 -0.8467  0.8994
  114RES    H5131917   4.557   2.358   1.257 -0.3498 -0.2092  1.8841
  114RES    H5231918   4.727   2.168   1.339  1.5011  0.2540 -1.3861
  114RES    H5331919   4.472   2.219   1.370  0.0500 -1.3100  1.7590
  114RES    H5431920   4.438   2.098   1.254 -0.1312  2.1828 -1.8478
  114RES    H5531921   4.318   1.988   1.405 -0.2717  0.2613  0.5950
  114RES    H5631922   4.363   2.068   1.546  0.0904 -0.9247  0.8520
  114RES    H5731923   4.415   1.903   1.532 -1.6405 -2.1954 -2.7724
  114RES    O5831924   4.692   2.069   1.160  0.0588 -0.2019  0.3442
  114RES    C5931925   4.828   2.054   1.144  0.3172 -0.1236  0.0746
  114RES    C6031926   4.845   1.959   1.019  0.6693  0.6747  0.2557
  114RES    C6131927   4.988   1.919   0.992  0.5876  0.3573  0.6207
  114RES    O6231928   5.000   1.819   0.893 -0.0482  0.0644  0.4004
  114RES    C6331929   5.128   1.762   0.895  0.8131 -0.1045  0.0556
  114RES    H6431930   4.871   2.003   1.231  1.3056 -0.5480 -0.6504
  114RES    H6531931   4.873   2.151   1.123 -0.1820 -0.3825 -2.3431
  114RES    H6631932   4.771   1.879   1.029 -1.0447  2.1035 -0.5949
  114RES    H6731933   5.046   2.008   0.971 -0.9986  1.3017  0.1880
  114RES    H6831934   5.023   1.870   1.083  0.5708  2.2451  1.6621
  114RES    H6931935   5.126   1.662   0.852 -0.1746  0.5806 -1.5187
  114RES    H7031936   5.183   1.758   0.990  0.9326 -3.4768 -0.1167
  114RES    H7131937   5.193   1.830   0.840  0.7936  0.8123  1.1424
  114RES    O7231938   4.815   2.043   0.901 -0.5714  0.1824 -0.6520
  114RES    C7331939   4.679   2.017   0.857 -0.3113  0.2606 -0.0514
  114RES    C7431940   4.657   2.082   0.722 -0.5985  0.0499 -0.0868
  114RES    C7531941   4.661   2.239   0.731  0.6971  0.3628 -0.8399
  114RES    O7631942   4.689   2.305   0.606  0.1123  0.7293 -0.6637
  114RES    C7731943   4.659   2.443   0.614  0.0647 -0.8658  0.0349
  114RES    H7831944   4.672   1.911   0.831  1.0961  0.5041 -1.4772
  114RES    H7931945   4.602   2.047   0.928 -0.7949 -2.3055  0.5624
  114RES    H8031946   4.734   2.048   0.653 -1.5283  0.4873 -1.3731
  114RES    H8131947   4.738   2.270   0.803 -0.2450  1.4032 -0.2670
  114RES    H8231948   4.568   2.271   0.777  0.6856 -0.0201 -0.5915
  114RES    H8331949   4.696   2.487   0.521  1.4868 -0.1350  0.9274
  114RES    H8431950   4.712   2.496   0.693 -1.6169  1.0192 -0.0571
  114RES    H8531951   4.552   2.450   0.633  0.6332  0.0566  3.1146
  114RES    O8631952   4.527   2.042   0.670 -0.2398  0.4157 -0.7611
  114RES    C8731953   4.525   2.039   0.533  0.6970  0.5773 -0.8022
  114RES    C8831954   4.392   1.974   0.494  0.0030  0.6546  0.1026
  114RES    C8931955   4.332   2.032   0.367 -0.0991 -0.0063 -0.2542
  114RES    O9031956   4.187   2.006   0.359  0.4565 -0.5049  0.1510
  114RES    C9131957   4.143   1.866   0.349  0.0401  0.7389 -0.6666
  114RES    H9231958   4.529   2.140   0.493 -0.1204  0.9027 -0.0850
  114RES    H9331959   4.609   1.979   0.500  2.3535  1.2539  2.0445
  114RES    H9431960   4.315   2.002   0.566 -0.3077 -1.9631  0.8339
  114RES    H9531961   4.348   2.140   0.372 -1.3815  0.1087  2.2631
  114RES    H9631962   4.388   2.004   0.277  1.4866 -0.4357  0.8401
  114RES    H9731963   4.173   1.806   0.435 -0.4153  1.3166 -0.1095
  114RES    H9831964   4.036   1.865   0.332 -0.3103 -1.8135  1.3202
  114RES    H9931965   4.187   1.822   0.259 -0.6363  0.7571 -1.0129
  114RES   O10031966   4.410   1.829   0.492 -0.4874 -0.3828 -0.1423
  114RES   C10131967   4.429   1.766   0.617 -0.0587  0.0599 -0.0324
  114RES   C10231968   4.421   1.615   0.584 -0.3951  0.4398  0.0393
  114RES   C10331969   4.453   1.533   0.700  0.1595  0.1295 -0.5290
  114RES   O10431970   4.406   1.400   0.698 -0.6435 -0.0504  0.4811
  114RES   C10531971   4.485   1.332   0.798  0.0536  0.4885 -0.1888
  114RES   H10631972   4.354   1.792   0.692  1.4729 -1.0865  1.9356
  114RES   H10731973   4.522   1.782   0.671 -0.1990 -1.4237  0.6743
  114RES   H10831974   4.318   1.590   0.559 -0.0976 -0.2732 -0.4799
  114RES   H10931975   4.416   1.574   0.794  1.3030  0.1565 -0.0844
  114RES   H11031976   4.561   1.529   0.708  0.0742 -1.1924  0.1243
  114RES   H11131977   4.449   1.233   0.827  1.3348 -0.2441 -1.0172
  114RES   H11231978   4.480   1.387   0.892  0.3693  0.0849  0.0645
  114RES   H11331979   4.589   1.320   0.765 -0.7993 -0.9062 -2.5238
  114RES   O11431980   4.509   1.570   0.485  0.4980  0.5912 -0.0819
  114RES   C11531981   4.430   1.496   0.382  0.3408  0.4759 -0.3947
  114RES   C11631982   4.499   1.455   0.250  0.7718  0.2460  0.2943
  114RES   C11731983   4.435   1.333   0.188  0.6090 -0.7028  0.0555
  114RES   O11831984   4.302   1.367   0.152 -0.4201  0.6114  0.1389
  114RES   C11931985   4.229   1.270   0.087 -0.5575  0.4815  0.1070
  114RES   H12031986   4.383   1.413   0.435 -1.4788  0.6524 -1.6681
  114RES   H12131987   4.342   1.552   0.353  0.0506 -0.3544 -1.1387
  114RES   H12231988   4.606   1.440   0.264  0.3145 -0.9461  2.9147
  114RES   H12331989   4.500   1.302   0.106 -0.8112 -0.6889 -1.1140
  114RES   H12431990   4.438   1.253   0.262 -0.1825 -0.2188  0.6245
  114RES   H12531991   4.184   1.191   0.147  1.0198 -1.6255 -1.4282
  114RES   H12631992   4.300   1.207   0.034  0.6537  1.4511  0.5610
  114RES   H12731993   4.168   1.311   0.006  0.7032  1.3169 -0.4365
  114RES   O12831994   4.486   1.561   0.156  0.0072  0.2269  0.4039
  114RES   C12931995   4.548   1.683   0.198 -0.1767  0.2598 -0.4375
  114RES   C13031996   4.578   1.770   0.079 -0.1259 -0.6394  0.1606
  114RES   C13131997   4.662   1.887   0.137  0.0090 -0.2462 -0.1664
  114RES   O13231998   4.779   1.894   0.049 -0.1461 -0.8917  0.7715
  114RES   C13331999   4.764   1.984   7.759 -0.3731  0.3361  0.5026
  114RES   H13432000   4.470   1.725   0.262 -0.1424  0.2136 -0.3646
  114RES   H13532001   4.644   1.660   0.244 -0.3033  1.2682  0.3686
  114RES   H13632002   4.641   1.715   0.009  1.8062  2.4711 -0.5964
  114RES   H13732003   4.695   1.866   0.239 -2.3844  1.5598  1.0177
  114RES   H13832004   4.603   1.977   0.154 -0.3416 -0.8741  2.0925
  114RES   H13932005   4.708   1.942   7.675 -0.2458 -0.1033  0.6394
  114RES   H14032006   4.725   2.077   7.802 -1.0481  0.0311  0.5575
  114RES   H14132007   4.862   2.005   7.716 -0.3582  2.0620  1.3086
  114RES   O14232008   4.454   1.816   0.038 -0.0023  0.0781  0.1107
  114RES   C14332009   4.384   1.737   7.755 -1.0518  0.2987  0.1577
  114RES   C14432010   4.274   1.814   7.691 -0.2903 -0.3380 -0.5455
  114RES   C14532011   4.168   1.732   7.606 -0.2212  0.1484 -0.4564
  114RES   O14632012   4.220   1.643   7.505  0.1619  0.5879 -0.4110
  114RES   C14732013   4.240   1.704   7.380  0.4095 -0.6370  0.0060
  114RES   H14832014   4.452   1.706   7.677  1.4703  2.6941  1.2999
  114RES   H14932015   4.334   1.648   7.793  0.8221 -0.8365  0.0082
  114RES   H15032016   4.209   1.860   7.765 -1.6789 -0.2762 -1.7913
  114RES   H15132017   4.097   1.803   7.562 -2.9870 -1.2386  1.6253
  114RES   H15232018   4.101   1.675   7.670  0.8225 -0.4261  0.1426
  114RES   H15332019   4.301   1.645   7.312  2.0273 -1.9905  2.5642
  114RES   H15432020   4.294   1.799   7.383 -0.8816  0.0834  1.4799
  114RES   H15532021   4.146   1.722   7.328 -0.8721  1.8138  2.9870
  114RES   O15632022   4.332   1.906   7.604 -0.0418 -0.3700 -1.2158
  114RES   C15732023   4.360   2.037   7.661  0.1263 -0.5189 -0.2269
  114RES   C15832024   4.403   2.143   7.551 -0.3931  0.1367 -0.4166
  114RES   C15932025   4.307   2.154   7.435 -0.6003  0.5966  0.2694
  114RES   O16032026   4.300   2.288   7.394 -0.0896  0.4789 -0.4209
  114RES   C16132027   4.225   2.309   7.276 -0.1537 -0.3790 -0.0385
  114RES   H16232028   4.269   2.083   7.698 -0.5755 -2.2880  0.2759
  114RES   H16332029   4.427   2.020   7.745 -0.5751  0.5456  0.5501
  114RES   H16432030   4.404   2.235   7.610 -2.1805 -1.3653  2.0403
  114RES   H16532031   4.331   2.090   7.351  0.3903 -2.0665  2.5108
  114RES   H16632032   4.210   2.123   7.476 -1.1857  1.4346 -0.4483
  114RES   H16732033   4.120   2.279   7.278 -0.0015 -1.0067 -0.9505
  114RES   H16832034   4.283   2.263   7.195  0.8243 -0.4932  0.7110
  114RES   H16932035   4.230   2.416   7.259  0.4958 -0.2945  0.6504
  114RES   O17032036   4.535   2.112   7.514 -0.7687  0.2685  0.0816
  114RES   C17132037   4.605   2.224   7.450 -0.4828  0.6132  0.2089
  114RES   C17232038   4.747   2.171   7.421  0.4405  0.3037  0.1092
  114RES   C17332039   4.849   2.280   7.392  0.3775  0.3345 -0.1592
  114RES   O17432040   4.973   2.223   7.413  0.2738 -0.5736  0.1077
  114RES   C17532041   5.083   2.307   7.377 -0.2124 -0.5556  0.1050
  114RES   H17632042   4.621   2.300   7.527  0.8423  1.1951 -0.6219
  114RES   H17732043   4.549   2.275   7.371 -2.8391  0.4763  1.7409
  114RES   H17832044   4.783   2.118   7.510  1.5004  0.5084 -0.1989
  114RES   H17932045   4.848   2.306   7.286 -0.4826  0.8489 -0.0272
  114RES   H18032046   4.814   2.370   7.443 -2.3493 -1.2149  0.7520
  114RES   H18132047   5.184   2.265   7.376 -0.2156 -0.5658 -1.2467
  114RES   H18232048   5.087   2.390   7.448  0.5358 -0.3002 -0.2235
  114RES   H18332049   5.071   2.333   7.272  0.1582 -0.2081  0.1429
  114RES   O18432050   4.754   2.089   7.309 -0.4835 -0.6021  0.3515
  114RES   C18532051   4.734   1.948   7.337  0.5233  0.5840  0.0946
  114RES   C18632052   4.788   1.858   7.225 -0.3809 -0.8832  0.5368
  114RES   C18732053   4.713   1.728   7.220 -0.4920  0.3296  0.2241
  114RES   O18832054   4.761   1.649   7.111  0.6725 -0.3480  0.3479
  114RES   C18932055   4.688   1.530   7.092 -0.0647 -0.3601 -0.1099
  114RES   H19032056   4.628   1.947   7.359  1.2226  1.8361  3.8844
  114RES   H19132057   4.780   1.924   7.433  1.9117  0.6965 -0.5290
  114RES   H19232058   4.788   1.910   7.129  0.2175  0.8577  1.4434
  114RES   H19332059   4.609   1.757   7.208 -0.8745 -0.0559  2.3922
  114RES   H19432060   4.730   1.683   7.317  1.0165 -0.1814 -0.2633
  114RES   H19532061   4.583   1.560   7.082  0.3858  1.0021 -0.8306
  114RES   H19632062   4.719   1.478   7.001 -1.9533  0.7852 -1.4534
  114RES   H19732063   4.697   1.463   7.178 -0.1614  0.0243  0.1995
  114RES   O19832064   4.927   1.840   7.246 -0.0344 -0.1079 -0.1412
  114RES   C19932065   5.009   1.957   7.223 -0.6548  0.3781  0.1730
  114RES   C20032066   5.143   1.920   7.156 -0.5114  1.0395  0.0770
  114RES   C20132067   5.259   2.016   7.196 -0.3117 -0.3395  0.0812
  114RES   O20232068   5.385   1.964   7.151 -0.3543 -0.2099 -0.1683
  114RES   C20332069   5.448   1.870   7.243  0.4193 -0.3892  0.5414
  114RES   H20432070   5.035   2.003   7.318 -0.0813  1.8104 -0.6478
  114RES   H20532071   4.965   2.042   7.172  1.7589  1.7217  0.2488
  114RES   H20632072   5.163   1.817   7.185 -1.1169  0.3302 -1.9934
  114RES   H20732073   5.242   2.116   7.155 -1.0838 -0.7473 -0.6095
  114RES   H20832074   5.252   2.041   7.301  3.3381 -0.7702  0.4666
  114RES   H20932075   5.466   1.919   7.339  0.4078  0.9296 -0.1171
  114RES   H21032076   5.547   1.840   7.208  0.4946  0.8082 -0.2935
  114RES   H21132077   5.381   1.785   7.258  1.2292 -0.9741  0.8453
  114RES   O21232078   5.119   1.910   7.018  0.0350 -0.3094 -0.3486
  114RES   C21332079   5.123   1.780   6.955 -0.0679 -0.1915  0.3053
  114RES   C21432080   5.134   1.806   6.805 -0.5375  0.6723 -0.0058
  114RES   C21532081   5.245   1.904   6.769  0.3327  0.0794 -0.4413
  114RES   O21632082   5.247   1.917   6.627  0.0707  0.1948 -0.7314
  114RES   C21732083   5.340   2.011   6.574 -0.4422 -0.5096  0.4368
  114RES   H21832084   5.029   1.737   6.989  0.9051 -3.0102 -0.4578
  114RES   H21932085   5.205   1.722   6.998 -1.5003 -2.4498  0.0121
  114RES   H22032086   5.140   1.711   6.752 -1.9876  0.4345  0.2475
  114RES   H22132087   5.219   2.004   6.802  0.5541 -0.2340  0.7223
  114RES   H22232088   5.342   1.878   6.812 -0.5792  0.7452  2.1496
  114RES   H22332089   5.310   2.005   6.469  0.0903  0.2240  0.2301
  114RES   H22432090   5.440   1.971   6.591  1.3340  2.9795 -1.1889
  114RES   H22532091   5.332   2.113   6.612 -0.0337 -0.6289  0.8382
  114RES   O22632092   5.012   1.873   6.763  0.3983  0.1732  0.4158
  114RES   C22732093   4.910   1.789   6.715 -0.3842 -0.8200 -0.1420
  114RES   C22832094   4.772   1.859   6.699  0.8237 -0.0471  0.7449
  114RES   C22932095   4.761   1.967   6.821 -0.6578 -0.1991  0.2288
  114RES   O23032096   4.625   2.002   6.845 -0.0647 -0.8149  0.2653
  114RES   C23132097   4.622   2.076   6.966 -0.0835 -0.7874  0.4286
  114RES   H23232098   4.890   1.700   6.775 -0.4796  0.6298  1.9845
  114RES   H23332099   4.938   1.757   6.614 -0.6424 -0.0755 -0.4460
  114RES   H23432100   4.694   1.783   6.698  1.3316 -0.5677 -1.2014
  114RES   H23532101   4.824   2.052   6.798 -0.3432 -0.4670  0.1055
  114RES   H23632102   4.794   1.922   6.915 -0.2413  0.0935  0.2192
  114RES   H23732103   4.707   2.141   6.985 -1.1486  0.7118  0.1894
  114RES   H23832104   4.623   2.018   7.059  2.7784  1.6950  2.0414
  114RES   H23932105   4.539   2.144   6.983  0.3677 -0.5652  1.7875
  114RES   O24032106   4.755   1.913   6.569 -0.0697 -0.8246  0.3304
  114RES   C24132107   4.842   2.020   6.531  0.5717  0.4844 -0.3281
  114RES   C24232108   4.828   2.063   6.387 -0.2614  0.1878  0.7846
  114RES   C24332109   4.867   2.208   6.364 -0.7132 -0.3960  0.0003
  114RES   O24432110   4.833   2.232   6.232 -0.9358 -0.2583 -0.7722
  114RES   C24532111   4.851   2.374   6.197  0.4861  0.6272 -0.4502
  114RES   H24632112   4.946   1.997   6.556  0.5719  0.0149 -0.7506
  114RES   H24732113   4.807   2.105   6.590 -1.6961 -1.1460  0.7619
  114RES   H24832114   4.728   2.042   6.348  1.3640 -3.6439 -1.5858
  114RES   H24932115   4.805   2.264   6.434 -0.9701 -1.2032  0.4176
  114RES   H25032116   4.971   2.228   6.385 -0.2144 -1.0882 -1.6870
  114RES   H25132117   4.951   2.414   6.212  1.4771 -0.7164 -3.1158
  114RES   H25232118   4.781   2.437   6.251  0.0707 -0.7437  0.6363
  114RES   H25332119   4.835   2.401   6.092  1.9920  0.4328 -0.7444
  114RES   O25432120   4.926   1.991   6.312  0.3626  0.0064 -0.8003
  114RES   C25532121   4.888   1.871   6.257  0.1142  0.2319  0.1014
  114RES   C25632122   4.991   1.806   6.179 -0.1198  0.2745  0.4470
  114RES   C25732123   5.000   1.651   6.194 -0.5155  0.0256  0.3579
  114RES   O25832124   4.884   1.566   6.178 -0.5287 -0.1626 -0.3053
  114RES   C25932125   4.799   1.592   6.070  0.2425 -0.0125  0.7186
  114RES   H26032126   4.849   1.810   6.339  0.5557  0.5328  0.5379
  114RES   H26132127   4.796   1.883   6.199  0.7568  0.1961 -0.9379
  114RES   H26232128   5.089   1.841   6.211  0.1344 -1.4316  1.6527
  114RES   H26332129   5.072   1.613   6.120 -0.7245  1.9215 -0.8590
  114RES   H26432130   5.038   1.645   6.296 -1.6045  2.3177  0.9402
  114RES   H26532131   4.851   1.587   5.975 -1.0396 -1.8333  0.0761
  114RES   H26632132   4.762   1.694   6.073 -0.0074 -0.1262  2.4345
  114RES   H26732133   4.715   1.521   6.076  0.2882 -0.2789 -1.4247
  114RES   O26832134   4.970   1.854   6.044  0.3549  0.5361  1.1359
  114RES   C26932135   5.075   1.838   5.948 -0.6087  0.4920 -0.0580
  114RES   C27032136   5.039   1.911   5.823 -0.3107 -0.2288  0.1924
  114RES   C27132137   5.148   1.913   5.717 -0.2380  0.0247  0.1137
  114RES   O27232138   5.096   1.951   5.594 -0.4143 -0.0405 -0.1756
  114RES   C27332139   5.180   2.024   5.517  0.0273  0.1352 -0.0040
  114RES   H27432140   5.091   1.731   5.935 -0.9368  0.3148  0.9546
  114RES   H27532141   5.159   1.883   6.001 -0.7661  0.8466 -0.1076
  114RES   H27632142   4.944   1.870   5.788 -0.9961  1.0093  0.5801
  114RES   H27732143   5.191   1.813   5.710  0.5859  0.4049 -0.4362
  114RES   H27832144   5.231   1.977   5.748 -0.1270 -0.9610  1.9155
  114RES   H27932145   5.166   1.989   5.415  0.6451  0.6727 -0.2800
  114RES   H28032146   5.285   1.997   5.527 -0.7211 -2.0032  2.4333
  114RES   H28132147   5.173   2.133   5.520  0.9968  0.1630  2.5635
  114RES   H28232148   5.012   2.016   5.834 -1.8788 -0.2783 -2.7069
  115RES     O132149   1.446   6.371   4.019 -0.1339 -0.0075  0.2976
  115RES     C232150   1.407   6.469   4.108  0.4146  0.0373  0.2907
  115RES     C332151   1.281   6.543   4.051 -0.1451 -0.6803  0.0682
  115RES     C432152   1.208   6.617   4.165  0.2050  0.4442 -0.4471
  115RES     O532153   1.065   6.634   4.133  0.1677  0.0302  0.3025
  115RES     C632154   0.993   6.709   4.229 -0.0988  1.2590  0.4571
  115RES     H732155   1.386   6.428   4.207  1.0497 -1.1083 -0.0467
  115RES     H832156   1.490   6.537   4.130 -0.2895  1.9685 -2.6932
  115RES     H932157   1.203   6.476   4.016 -0.7706 -0.0180  0.1775
  115RES    H1032158   1.258   6.711   4.187  3.9341 -1.4800 -0.3631
  115RES    H1132159   1.213   6.551   4.251 -1.3204 -0.2051 -0.8277
  115RES    H1232160   1.031   6.810   4.243  0.2930  0.9491  1.6599
  115RES    H1332161   0.893   6.723   4.187 -0.5484  1.3540  1.5430
  115RES    H1432162   0.983   6.654   4.323  3.4473  0.6182  0.5234
  115RES    H1532163   1.416   6.408   3.937  0.5865  0.5355  0.2725
  115RES    O1632164   1.332   6.633   3.952 -0.3480 -0.1648 -0.0777
  115RES    C1732165   1.240   6.652   3.844 -0.4325  0.5330  0.0410
  115RES    C1832166   1.255   6.557   3.726 -0.1449  0.3320  0.4837
  115RES    C1932167   1.352   6.620   3.623  0.0185  0.0409 -0.3814
  115RES    O2032168   1.334   6.543   3.503  0.5203 -0.4065 -0.3069
  115RES    C2132169   1.405   6.597   3.388 -0.1412  0.2277 -0.3928
  115RES    H2232170   1.247   6.757   3.815 -1.8347  0.3083 -1.1792
  115RES    H2332171   1.136   6.646   3.877 -1.3077  1.9539 -2.3204
  115RES    H2432172   1.156   6.544   3.684 -0.1807  1.0329  0.3503
  115RES    H2532173   1.325   6.723   3.602  1.1987  0.5947  0.7249
  115RES    H2632174   1.456   6.633   3.655  0.3307 -1.0474 -0.9210
  115RES    H2732175   1.363   6.539   3.306 -0.1778  1.1835 -1.0637
  115RES    H2832176   1.513   6.582   3.390 -0.1300 -0.1974 -2.3870
  115RES    H2932177   1.386   6.704   3.375 -0.9603  0.0151 -1.0071
  115RES    O3032178   1.309   6.432   3.761 -0.1390 -0.6824 -0.4344
  115RES    C3132179   1.235   6.325   3.718  0.5430  0.4142  1.2175
  115RES    C3232180   1.119   6.289   3.815  0.3464 -0.6078  0.5086
  115RES    C3332181   1.074   6.142   3.798 -0.7499 -0.0345  0.6618
  115RES    O3432182   1.015   6.114   3.676 -0.0108 -0.4597  0.1396
  115RES    C3532183   0.945   5.990   3.670  1.1445 -0.3356 -0.1687
  115RES    H3632184   1.202   6.343   3.616 -0.3378  1.6838  1.6969
  115RES    H3732185   1.314   6.250   3.716  1.9884  1.9389 -0.6996
  115RES    H3832186   1.160   6.308   3.914  0.4082 -0.6210  0.4857
  115RES    H3932187   0.998   6.144   3.875 -2.5068 -1.8257 -0.9673
  115RES    H4032188   1.155   6.075   3.826 -1.3191 -0.8849  0.3012
  115RES    H4132189   1.000   5.908   3.716  0.8967 -0.7719 -0.6352
  115RES    H4232190   0.919   5.966   3.566 -0.7403 -0.9077  0.4144
  115RES    H4332191   0.848   6.008   3.716  1.6702 -1.0586  1.2363
  115RES    O4432192   1.019   6.375   3.762 -0.1216 -0.1604  0.3622
  115RES    C4532193   0.932   6.433   3.860  0.4448  0.4224 -0.1927
  115RES    C4632194   0.824   6.515   3.791  0.2618  0.7430 -0.3825
  115RES    C4732195   0.712   6.551   3.894  0.0882 -0.3521  0.0855
  115RES    O4832196   0.596   6.580   3.823 -0.0530 -0.4447 -0.6654
  115RES    C4932197   0.491   6.609   3.914 -0.2429 -0.6894  0.3163
  115RES    H5032198   0.981   6.496   3.933  0.6814 -1.4078  1.2559
  115RES    H5132199   0.881   6.347   3.903  2.0464  0.0232  0.9684
  115RES    H5232200   0.777   6.468   3.705 -0.1072  3.2424 -1.5924
  115RES    H5332201   0.696   6.470   3.965  0.1040 -0.7667 -0.3793
  115RES    H5432202   0.733   6.639   3.954  0.0990 -0.9987  1.0441
  115RES    H5532203   0.399   6.637   3.861  0.8389  0.3835 -1.0213
  115RES    H5632204   0.531   6.693   3.970  0.8770  0.4132 -2.0465
  115RES    H5732205   0.484   6.522   3.979  0.2938 -0.4072  0.7496
  115RES    O5832206   0.893   6.631   3.742  0.1951  0.1778 -0.0045
  115RES    C5932207   0.804   6.711   3.653  0.4098  0.3363  0.2201
  115RES    C6032208   0.865   6.728   3.510  0.1058  0.2760 -0.5008
  115RES    C6132209   0.795   6.821   3.414 -0.1984  0.6668  0.0327
  115RES    O6232210   0.870   6.823   3.287  0.0770  0.0809 -0.0588
  115RES    C6332211   0.810   6.904   3.184  0.0528  0.2442  0.0071
  115RES    H6432212   0.800   6.811   3.696 -1.8776 -0.5120  2.0405
  115RES    H6532213   0.700   6.680   3.654  1.0318 -1.8459  0.7071
  115RES    H6632214   0.972   6.752   3.509 -0.0535  0.9877 -1.9314
  115RES    H6732215   0.699   6.778   3.385  0.3672 -1.0100  0.6198
  115RES    H6832216   0.781   6.927   3.435  0.7706  0.7047  0.5068
  115RES    H6932217   0.763   6.995   3.222 -0.7511 -0.1637  0.0045
  115RES    H7032218   0.734   6.837   3.143 -0.8543  0.4675  1.2683
  115RES    H7132219   0.887   6.924   3.110  0.7017 -3.3328 -0.3764
  115RES    O7232220   0.849   6.599   3.455  0.3782 -0.1415  0.0622
  115RES    C7332221   0.967   6.522   3.433 -0.0736 -0.2540 -0.4546
  115RES    C7432222   0.944   6.400   3.347 -0.2556 -1.2591  0.5680
  115RES    C7532223   1.058   6.298   3.368 -0.5842  0.4799  0.2550
  115RES    O7632224   1.041   6.189   3.273 -0.0171 -0.0199  0.5882
  115RES    C7732225   1.109   6.073   3.307 -0.1788 -0.0344  0.7281
  115RES    H7832226   1.060   6.566   3.398 -0.8301  0.8216 -1.1180
  115RES    H7932227   0.997   6.500   3.536  0.7044 -1.7481 -0.9844
  115RES    H8032228   0.840   6.374   3.366 -0.6581 -0.0454  0.0727
  115RES    H8132229   1.061   6.258   3.470  1.1760  2.2763  0.9565
  115RES    H8232230   1.154   6.350   3.361 -1.2830  1.4690 -2.1121
  115RES    H8332231   1.061   6.027   3.393  0.4521 -4.3306 -1.1199
  115RES    H8432232   1.213   6.088   3.337  0.2736  0.1336 -0.8974
  115RES    H8532233   1.091   5.991   3.238 -2.1953  0.5919  0.4733
  115RES    O8632234   0.938   6.433   3.202 -0.4926  0.0986  0.4294
  115RES    C8732235   0.819   6.487   3.146 -0.1380  0.4133 -0.0445
  115RES    C8832236   0.731   6.370   3.086  0.5930 -0.1867  0.3540
  115RES    C8932237   0.597   6.429   3.036  0.4545 -0.5216 -0.2963
  115RES    O9032238   0.495   6.330   3.030 -0.0627 -0.2047 -0.2037
  115RES    C9132239   0.371   6.376   2.980 -0.1610 -0.3165 -0.0792
  115RES    H9232240   0.772   6.544   3.226  0.0805 -0.6545  0.8527
  115RES    H9332241   0.850   6.548   3.061 -0.4789  2.4973  1.2650
  115RES    H9432242   0.715   6.305   3.172  1.1091 -1.1874 -0.2884
  115RES    H9532243   0.556   6.499   3.109 -0.0196  0.3760 -1.4040
  115RES    H9632244   0.608   6.473   2.937  1.2928  0.6276  0.2832
  115RES    H9732245   0.384   6.420   2.881 -1.0477  1.1263  0.4242
  115RES    H9832246   0.293   6.299   2.982 -0.7120  0.1636 -2.0852
  115RES    H9932247   0.331   6.457   3.040 -0.0064  0.6823 -1.2950
  115RES   O10032248   0.806   6.311   2.974  0.4535 -0.2184  0.1581
  115RES   C10132249   0.753   6.191   2.921  0.3470 -0.5215 -0.4588
  115RES   C10232250   0.865   6.133   2.833  0.4787  0.8357  0.6995
  115RES   C10332251   0.962   6.049   2.914 -0.3670  0.0124  0.2844
  115RES   O10432252   1.045   5.995   2.820 -0.1430  0.3889 -0.1035
  115RES   C10532253   1.153   5.921   2.886  0.1956 -0.0466  0.0153
  115RES   H10632254   0.664   6.211   2.861  0.9763  2.4023 -0.5181
  115RES   H10732255   0.730   6.124   3.004  1.8943  0.8260  1.1124
  115RES   H10832256   0.820   6.062   2.764  0.8872  0.9107  0.3547
  115RES   H10932257   0.908   5.965   2.957  2.1759 -1.6450  0.3542
  115RES   H11032258   1.008   6.107   2.994 -1.3398  0.8131  0.2733
  115RES   H11132259   1.107   5.832   2.929 -2.2896  0.9704 -0.4496
  115RES   H11232260   1.204   5.980   2.962  1.1730  0.5319 -1.0553
  115RES   H11332261   1.224   5.889   2.809 -0.3154 -2.1537  0.3830
  115RES   O11432262   0.910   6.246   2.760 -0.1908 -0.7678 -0.1089
  115RES   C11532263   0.838   6.283   2.643  0.4297  0.1104 -0.0746
  115RES   C11632264   0.920   6.400   2.567  0.0561 -0.1640 -0.1861
  115RES   C11732265   0.901   6.382   2.415  0.8006  0.0400 -0.2969
  115RES   O11832266   1.005   6.449   2.347  0.6590  0.4179 -0.4215
  115RES   C11932267   0.973   6.582   2.310 -0.4132  0.1372 -0.3971
  115RES   H12032268   0.828   6.197   2.577 -0.9621  0.1704  0.0343
  115RES   H12132269   0.732   6.307   2.653  1.0534  2.8462  0.3557
  115RES   H12232270   1.026   6.406   2.591 -0.3435  1.0145  1.4066
  115RES   H12332271   0.908   6.279   2.380  0.4899  0.2430 -0.9648
  115RES   H12432272   0.802   6.411   2.381  0.5931 -1.9743 -1.4962
  115RES   H12532273   1.048   6.615   2.239 -0.1046 -0.2564 -0.2598
  115RES   H12632274   0.975   6.657   2.389 -1.5781  1.6178 -1.7472
  115RES   H12732275   0.888   6.593   2.243 -0.8385 -1.7486 -0.2064
  115RES   O12832276   0.860   6.533   2.590 -0.0782 -0.0204 -0.7526
  115RES   C12932277   0.887   6.582   2.725 -0.0221  0.2934  0.2592
  115RES   C13032278   0.814   6.718   2.726 -0.1365 -0.3541 -0.5180
  115RES   C13132279   0.843   6.793   2.861 -0.1831  0.0022  0.7041
  115RES   O13232280   0.788   6.921   2.858 -0.4617  0.0241 -0.5071
  115RES   C13332281   0.875   7.028   2.842  0.3401  0.1085 -0.0980
  115RES   H13432282   0.854   6.518   2.807  1.6585 -0.7889  0.1273
  115RES   H13532283   0.995   6.598   2.736  0.2178 -0.0288 -1.5137
  115RES   H13632284   0.845   6.779   2.641 -0.2016 -1.5026 -1.3774
  115RES   H13732285   0.949   6.789   2.887  0.5733 -0.3560 -2.2014
  115RES   H13832286   0.812   6.727   2.942  0.1643 -1.4792 -0.3334
  115RES   H13932287   0.924   7.033   2.745 -0.9801 -0.4238 -0.7942
  115RES   H14032288   0.811   7.116   2.851 -2.2475 -1.6131 -1.4525
  115RES   H14132289   0.950   7.019   2.921  0.3829  2.0995  0.1302
  115RES   O14232290   0.673   6.693   2.731 -0.0339 -0.6462 -0.2895
  115RES   C14332291   0.608   6.711   2.606 -0.7393 -0.0968  0.3618
  115RES   C14432292   0.471   6.650   2.596  0.3574 -0.6481 -0.0685
  115RES   C14532293   0.428   6.617   2.454 -0.4519  0.4859 -0.3667
  115RES   O14632294   0.336   6.514   2.453  0.0229  0.2220  0.1169
  115RES   C14732295   0.344   6.423   2.346 -0.5596 -0.5237 -0.3750
  115RES   H14832296   0.606   6.815   2.575 -1.6257 -0.8193 -2.1155
  115RES   H14932297   0.657   6.648   2.532  1.3954 -0.0357  1.6588
  115RES   H15032298   0.469   6.553   2.645 -2.6569 -1.8103 -2.3694
  115RES   H15132299   0.517   6.597   2.394 -0.5271 -1.0032  0.0004
  115RES   H15232300   0.390   6.707   2.404  0.2906  0.1763 -1.5045
  115RES   H15332301   0.292   6.331   2.373 -3.4974  1.4183  0.7600
  115RES   H15432302   0.443   6.385   2.323 -0.4163 -1.0893  1.1136
  115RES   H15532303   0.304   6.469   2.256  3.6422  3.3828 -0.4261
  115RES   O15632304   0.362   6.721   2.651  0.5145 -0.6652  0.1064
  115RES   C15732305   0.367   6.755   2.788 -0.9303  0.5245  0.4025
  115RES   C15832306   0.428   6.897   2.809 -0.1681  0.4723 -0.1697
  115RES   C15932307   0.486   6.935   2.949  0.3195 -0.0788  0.6041
  115RES   O16032308   0.393   6.888   3.042  0.2192  0.2785 -0.1260
  115RES   C16132309   0.442   6.908   3.176 -0.1619 -0.2026 -0.7846
  115RES   H16232310   0.267   6.727   2.822 -1.3008  3.6792  2.0787
  115RES   H16332311   0.425   6.682   2.844 -2.2176  0.7092  2.0252
  115RES   H16432312   0.514   6.904   2.742  1.5075  0.2162  1.8723
  115RES   H16532313   0.580   6.887   2.978 -0.0156  0.4113  2.5283
  115RES   H16632314   0.503   7.042   2.953 -0.3836  0.1607 -1.9956
  115RES   H16732315   0.515   6.831   3.198 -0.1554  0.3412  1.1519
  115RES   H16832316   0.359   6.902   3.247  0.3936  1.5522  0.0204
  115RES   H16932317   0.477   7.010   3.190 -3.9805  0.8241  2.1596
  115RES   O17032318   0.350   6.997   2.752 -0.5836  0.0607  0.2416
  115RES   C17132319   0.251   7.057   2.826 -0.6620  0.2197 -0.2645
  115RES   C17232320   0.157   7.134   2.738 -0.6571 -0.4499 -0.5073
  115RES   C17332321   0.076   7.238   2.810  0.2982 -0.6505 -0.1939
  115RES   O17432322   7.816   7.308   2.709  0.1328  0.0435  0.3314
  115RES   C17532323   7.707   7.378   2.761  0.5206 -0.4166 -0.7288
  115RES   H17632324   0.301   7.124   2.896  1.1600 -0.7013 -0.6413
  115RES   H17732325   0.197   6.983   2.885 -3.4606  4.1933  2.3126
  115RES   H17832326   0.219   7.200   2.676 -0.7740 -0.4198 -0.5920
  115RES   H17932327   0.005   7.182   2.870 -0.6566  4.3460  3.6373
  115RES   H18032328   0.139   7.300   2.874  0.8026  1.3249 -2.5105
  115RES   H18132329   7.678   7.448   2.682 -1.8841  0.0589  0.5153
  115RES   H18232330   7.729   7.446   2.842  1.0920 -2.3201  0.7614
  115RES   H18332331   7.619   7.320   2.791 -0.4460  0.8124 -1.1757
  115RES   O18432332   0.068   7.053   2.669 -0.1110 -0.8324 -0.1189
  115RES   C18532333   0.129   6.985   2.550  0.1571  0.4390  0.0690
  115RES   C18632334   0.016   6.919   2.466 -0.2824 -0.2113  0.7285
  115RES   C18732335   0.063   6.839   2.347  0.4949 -0.0744  0.5216
  115RES   O18832336   7.759   6.783   2.283  0.3735 -0.3881  0.1316
  115RES   C18932337   7.802   6.707   2.169  0.0878  0.1002 -0.3775
  115RES   H19032338   0.194   6.908   2.592  0.4553  1.5545  1.6802
  115RES   H19132339   0.198   7.043   2.489  0.5146 -0.0883 -0.0360
  115RES   H19232340   7.774   6.856   2.533 -1.8625 -1.1019 -1.4400
  115RES   H19332341   0.116   6.754   2.390  2.1465  0.2946 -0.7063
  115RES   H19432342   0.131   6.898   2.285 -0.1220  0.1163  0.0252
  115RES   H19532343   0.020   6.614   2.213 -0.5762 -0.1790 -0.4296
  115RES   H19632344   7.715   6.682   2.108 -2.8378  2.2111  2.7246
  115RES   H19732345   0.067   6.751   2.112  1.3548 -0.9722  0.6079
  115RES   O19832346   7.752   7.024   2.415 -0.2146 -0.4084 -0.1059
  115RES   C19932347   7.625   7.047   2.470  0.0169  0.0430  0.8930
  115RES   C20032348   7.553   7.171   2.408  0.5401  0.1781 -0.8862
  115RES   C20132349   7.447   7.233   2.497  0.0986  0.4124  0.1276
  115RES   O20232350   7.334   7.155   2.528 -0.3912  0.5920  0.2689
  115RES   C20332351   7.243   7.227   2.616  0.6893  0.2035 -0.0799
  115RES   H20432352   7.652   7.070   2.573 -0.3204 -1.3329  1.3052
  115RES   H20532353   7.564   6.957   2.471  0.0176  0.0495  1.4663
  115RES   H20632354   7.636   7.236   2.382  2.6236 -2.3455 -0.6537
  115RES   H20732355   7.482   7.245   2.600  0.7279  0.8592 -0.1365
  115RES   H20832356   7.416   7.331   2.459  0.4841  0.1820 -0.7961
  115RES   H20932357   7.158   7.162   2.638  0.4934 -0.1634 -1.8154
  115RES   H21032358   7.203   7.312   2.560  0.2631 -0.1628 -0.3361
  115RES   H21132359   7.284   7.274   2.705 -0.9453 -0.7744  1.2204
  115RES   O21232360   7.494   7.138   2.280 -0.1889 -0.1573 -0.3790
  115RES   C21332361   7.412   7.020   2.259  0.1531  0.0509  0.0405
  115RES   C21432362   7.358   7.016   2.115  0.2761  0.5567 -0.3088
  115RES   C21532363   7.221   6.948   2.107  0.1027  0.2657 -0.1109
  115RES   O21632364   7.160   6.958   1.977 -0.3783  0.1615 -0.2172
  115RES   C21732365   7.034   6.887   1.986 -0.4211 -0.1892  0.8482
  115RES   H21832366   7.323   7.022   2.322  0.8936 -0.1335  1.1129
  115RES   H21932367   7.471   6.932   2.286  1.2045  0.5896 -0.4459
  115RES   H22032368   7.340   7.121   2.091 -0.4722  0.5378  0.1693
  115RES   H22132369   7.233   6.841   2.123  0.5282  0.2725 -0.3791
  115RES   H22232370   7.155   6.988   2.184 -1.1723  1.1824 -1.6231
  115RES   H22332371   6.991   6.943   2.069  1.7689  1.0620  1.1652
  115RES   H22432372   7.050   6.785   2.020  0.4852 -0.7403 -1.1253
  115RES   H22532373   6.979   6.900   1.893  1.4641  0.4352 -0.2125
  115RES   O22632374   7.454   6.953   2.029  0.3731  0.0845 -0.1057
  115RES   C22732375   7.451   6.995   1.898  0.3104 -0.0978 -0.2612
  115RES   C22832376   7.597   6.981   1.832 -0.4635  0.5604 -0.1985
  115RES   C22932377   7.592   6.985   1.676 -0.2948 -0.1875  0.0692
  115RES   O23032378   7.724   6.969   1.622  0.7613  0.2481  0.2053
  115RES   C23132379   7.748   7.045   1.509  0.9138 -0.0676  0.3526
  115RES   H23232380   7.425   7.101   1.892  1.1397  0.0941 -0.5911
  115RES   H23332381   7.376   6.940   1.842 -0.8514  1.2752 -0.0782
  115RES   H23432382   7.630   6.880   1.858  0.4251  1.1608  1.0642
  115RES   H23532383   7.542   7.078   1.649  0.9448  0.5168  0.1768
  115RES   H23632384   7.533   6.899   1.642  1.6392 -1.8378  0.7477
  115RES   H23732385   0.032   7.025   1.475 -0.0911 -2.1764 -1.5466
  115RES   H23832386   7.732   7.152   1.524 -1.6426 -0.1729 -1.2383
  115RES   H23932387   7.687   7.003   1.429  1.9448  0.7889 -0.9033
  115RES   O24032388   7.680   7.089   1.874  0.1101 -0.0678 -0.0333
  115RES   C24132389   7.758   7.064   1.991 -0.2036 -0.4246 -0.2236
  115RES   C24232390   0.050   7.169   2.007  0.0135 -0.0035 -0.2274
  115RES   C24332391   0.069   7.193   2.154 -0.2581 -0.1479 -0.0398
  115RES   O24432392   0.182   7.275   2.170 -0.7372 -0.0401 -0.2488
  115RES   C24532393   0.204   7.316   2.299 -0.3051  0.2761 -0.2257
  115RES   H24632394   7.795   6.961   1.999  0.0397 -0.4233 -1.2005
  115RES   H24732395   7.686   7.083   2.070  1.2940 -0.3492  1.1591
  115RES   H24832396   0.001   7.260   1.972 -2.1863  0.0611  2.7879
  115RES   H24932397   7.796   7.240   2.193 -0.1814 -0.2871  0.3103
  115RES   H25032398   0.081   7.100   2.210 -1.6507  0.1701  0.8225
  115RES   H25132399   0.199   7.233   2.370 -0.4160  1.2836  0.9684
  115RES   H25232400   0.126   7.384   2.332 -0.2290 -0.1237  0.8181
  115RES   H25332401   0.303   7.360   2.313 -0.3248 -0.0850  1.0750
  115RES   O25432402   0.174   7.140   1.955  0.0312  0.3760 -0.0228
  115RES   C25532403   0.180   7.117   1.819 -0.7005  0.4567  0.4595
  115RES   C25632404   0.313   7.041   1.782  0.3224  0.1551 -0.1250
  115RES   C25732405   0.436   7.139   1.779  0.5939  0.3048 -0.7028
  115RES   O25832406   0.544   7.080   1.699  0.2916  0.1831  0.1229
  115RES   C25932407   0.652   7.172   1.683  0.3059 -0.5338  0.5226
  115RES   H26032408   0.101   7.052   1.780 -0.7463  0.2677  0.8677
  115RES   H26132409   0.173   7.215   1.772  2.2962 -0.4640 -1.9944
  115RES   H26232410   0.297   7.018   1.677 -0.9339 -0.3375  0.1586
  115RES   H26332411   0.398   7.231   1.735 -2.8862 -0.4655  0.5518
  115RES   H26432412   0.478   7.163   1.877 -0.7719 -1.6775  0.3999
  115RES   H26532413   0.703   7.204   1.774  1.0534 -0.6304  0.1404
  115RES   H26632414   0.624   7.268   1.640 -0.0098 -0.7625  0.2185
  115RES   H26732415   0.722   7.121   1.618 -0.1841  2.9347 -2.9049
  115RES   O26832416   0.344   6.923   1.863 -0.3793  0.0853  0.1359
  115RES   C26932417   0.273   6.809   1.830  0.6220  0.2676 -0.3028
  115RES   C27032418   0.291   6.705   1.941  0.0435 -1.3370  0.6085
  115RES   C27132419   0.222   6.571   1.932  0.1672  0.3661  0.0735
  115RES   O27232420   0.285   6.482   1.842  0.5357 -0.4426 -0.5240
  115RES   C27332421   0.225   6.357   1.817 -0.2605 -0.1949 -0.0084
  115RES   H27432422   0.303   6.774   1.732  0.4379  2.0875 -1.0272
  115RES   H27532423   0.166   6.825   1.831  0.2819 -1.5458 -2.8695
  115RES   H27632424   0.397   6.686   1.950  0.8579  2.8060  1.1125
  115RES   H27732425   0.123   6.594   1.895  0.1738  0.8348  0.3401
  115RES   H27832426   0.196   6.532   2.031  2.3666 -0.2042  0.4574
  115RES   H27932427   0.228   6.300   1.910  3.1895  0.2934  0.2438
  115RES   H28032428   0.285   6.308   1.741 -1.3897 -2.8297  0.7568
  115RES   H28132429   0.124   6.375   1.780  0.0298  0.0277 -0.6927
  115RES   H28232430   0.271   6.757   2.035  0.2094 -0.1871  0.0156
  116RES     O132431   7.153   6.580   2.367  0.2942  0.7236  0.3164
  116RES     C232432   7.050   6.671   2.341  0.2271  0.1145 -0.4710
  116RES     C332433   6.938   6.602   2.259  0.1438 -0.0643 -0.1812
  116RES     C432434   6.819   6.694   2.236  0.5199  0.6662 -0.4621
  116RES     O532435   6.709   6.612   2.205 -0.1783  0.6945 -0.0511
  116RES     C632436   6.617   6.679   2.115 -0.1929 -0.2160  0.3976
  116RES     H732437   7.001   6.687   2.438 -0.4428  1.6957 -1.0533
  116RES     H832438   7.082   6.754   2.279  0.0724 -0.4241 -1.2790
  116RES     H932439   6.910   6.513   2.315  1.1239  1.0998  2.1842
  116RES    H1032440   6.847   6.767   2.160  0.3463 -1.5962 -2.7472
  116RES    H1132441   6.801   6.737   2.335  2.0113 -0.5282  0.3448
  116RES    H1232442   6.646   6.679   2.010 -0.7664  1.1847  0.2161
  116RES    H1332443   6.538   6.604   2.114  0.5880 -1.0638  1.3372
  116RES    H1432444   6.583   6.777   2.150  0.0910 -0.6975  2.0296
  116RES    H1532445   7.143   6.506   2.310 -1.7015  0.4598  0.9599
  116RES    O1632446   7.019   6.560   2.142 -0.4011 -0.1973 -0.2992
  116RES    C1732447   6.936   6.506   2.037 -0.8333  0.3630  0.6530
  116RES    C1832448   7.002   6.468   1.909 -0.2508  0.6678 -0.0962
  116RES    C1932449   6.907   6.429   1.795 -0.5930  0.1245  0.1466
  116RES    O2032450   6.808   6.530   1.779  0.5786 -0.7194 -0.2063
  116RES    C2132451   6.694   6.493   1.705  0.7110  0.0779 -0.4874
  116RES    H2232452   6.854   6.573   2.012  0.0107  1.4359  0.7042
  116RES    H2332453   6.901   6.407   2.068  2.0361 -0.5120  1.2586
  116RES    H2432454   7.070   6.385   1.928  1.0150  2.0756  1.6783
  116RES    H2532455   6.963   6.428   1.702  0.4253 -2.6960  0.7629
  116RES    H2632456   6.857   6.334   1.809 -0.1034  0.0429  1.3879
  116RES    H2732457   6.705   6.497   1.597  2.0450 -1.2232 -0.4318
  116RES    H2832458   6.612   6.559   1.731  0.2403 -1.0129  0.8498
  116RES    H2932459   6.665   6.389   1.718  2.1953 -0.1964  0.8701
  116RES    O3032460   7.072   6.582   1.872  0.1079  0.6115 -0.2633
  116RES    C3132461   7.182   6.554   1.785  0.2052 -0.4224  0.0831
  116RES    C3232462   7.325   6.607   1.834  0.4848 -0.5925  0.0274
  116RES    C3332463   7.425   6.588   1.719 -0.6388  0.4038  0.0366
  116RES    O3432464   7.542   6.652   1.758 -0.0606 -0.7580  0.1409
  116RES    C3532465   7.648   6.635   1.664 -0.1429  0.2320  0.2493
  116RES    H3632466   7.181   6.449   1.758 -1.7114  0.1142 -2.0815
  116RES    H3732467   7.160   6.610   1.694  2.3148 -0.2972 -0.3651
  116RES    H3832468   7.312   6.707   1.875 -0.1096 -0.3291 -0.7881
  116RES    H3932469   7.392   6.634   1.626  3.6766  0.6344 -1.4835
  116RES    H4032470   7.443   6.481   1.706  0.1065  0.4949  0.3118
  116RES    H4132471   7.742   6.667   1.709  0.6255 -0.8600 -0.5607
  116RES    H4232472   7.634   6.684   1.568 -0.8313  0.1991  0.3265
  116RES    H4332473   7.652   6.527   1.649 -0.2349  0.2104  0.3733
  116RES    O4432474   7.381   6.526   1.939 -0.2365 -0.7789 -0.1497
  116RES    C4532475   7.391   6.584   2.064  0.1121  0.7528  0.8341
  116RES    C4632476   7.439   6.481   2.164  0.5797  0.4791 -0.5107
  116RES    C4732477   7.497   6.548   2.284  0.2682 -0.4308  0.0464
  116RES    O4832478   7.589   6.464   2.352  0.1972  0.0127  0.3109
  116RES    C4932479   7.634   6.518   2.474 -0.3226  0.2862 -1.0926
  116RES    H5032480   7.299   6.625   2.106 -0.1387  0.6138  0.4200
  116RES    H5132481   7.468   6.661   2.053  1.1618 -0.1616  1.7829
  116RES    H5232482   7.522   6.429   2.117  1.1500 -0.1227  1.1173
  116RES    H5332483   7.552   6.641   2.266 -2.0504  0.8033 -0.8194
  116RES    H5432484   7.415   6.568   2.353 -0.0127 -2.9274  0.4622
  116RES    H5532485   7.551   6.544   2.540 -2.4190 -1.3813 -3.0325
  116RES    H5632486   7.697   6.606   2.460 -0.3630  0.7244  1.1819
  116RES    H5732487   7.692   6.450   2.537 -0.2326  0.8146 -0.5936
  116RES    O5832488   7.341   6.393   2.224 -0.6223 -0.0952 -0.2036
  116RES    C5932489   7.257   6.318   2.140  0.4231 -0.0449 -0.3308
  116RES    C6032490   7.186   6.206   2.213  0.4090  0.0815 -0.3266
  116RES    C6132491   7.092   6.133   2.119  0.3491 -0.3476  0.0179
  116RES    O6232492   7.085   6.000   2.172 -0.1680 -0.2186 -0.0158
  116RES    C6332493   7.035   5.905   2.081  0.3025  0.4158  0.0339
  116RES    H6432494   7.317   6.285   2.055  1.5626 -2.1462  1.2449
  116RES    H6532495   7.184   6.384   2.094 -2.9099 -3.1189  0.2663
  116RES    H6632496   7.253   6.125   2.243  0.5138  1.2971  2.9633
  116RES    H6732497   6.996   6.178   2.095  0.9137  0.9015  0.0507
  116RES    H6832498   7.145   6.112   2.025  0.3204 -2.4950  0.4500
  116RES    H6932499   6.956   5.950   2.021 -0.1171 -2.0257 -1.3218
  116RES    H7032500   6.988   5.820   2.132 -0.6215  0.6176 -0.4613
  116RES    H7132501   7.110   5.871   2.010  1.5592  0.1432  1.4669
  116RES    O7232502   7.089   6.252   2.314  0.1700 -0.4268  0.3402
  116RES    C7332503   7.155   6.265   2.442  0.9465 -0.5474 -0.1557
  116RES    C7432504   7.051   6.277   2.556 -0.2723  0.5029  0.3822
  116RES    C7532505   7.118   6.340   2.680 -0.5356  0.3779 -0.2028
  116RES    O7632506   7.029   6.442   2.733 -0.5403  0.0576  0.2932
  116RES    C7732507   7.065   6.493   2.859 -0.1209  0.4788 -0.3222
  116RES    H7832508   7.209   6.173   2.460  0.9185 -0.3686  0.8781
  116RES    H7932509   7.222   6.351   2.446  0.8645 -0.4158 -1.4522
  116RES    H8032510   6.975   6.353   2.541 -2.3736 -1.8181 -1.1789
  116RES    H8132511   7.216   6.381   2.657 -0.6289  0.3630 -0.6180
  116RES    H8232512   7.141   6.262   2.753  0.8663  0.1246 -0.8896
  116RES    H8332513   7.052   6.426   2.945 -0.2403 -1.4672 -1.8191
  116RES    H8432514   7.007   6.584   2.872  1.0729  0.8937  2.5723
  116RES    H8532515   7.157   6.551   2.869 -0.4205  1.2011 -1.6769
  116RES    O8632516   6.992   6.152   2.593  0.1670  0.2916  0.3119
  116RES    C8732517   6.930   6.081   2.488  0.0845 -0.1299 -0.1805
  116RES    C8832518   6.804   6.155   2.424 -0.5984  0.4942 -0.9610
  116RES    C8932519   6.776   6.085   2.286 -0.3586 -0.2535 -0.3496
  116RES    O9032520   6.714   6.172   2.194  0.8382  0.7475 -0.0264
  116RES    C9132521   6.694   6.123   2.066 -0.5272  0.6591 -0.1609
  116RES    H9232522   7.000   6.047   2.411  0.2488  1.1704 -0.6088
  116RES    H9332523   6.888   5.994   2.538 -1.7993  1.6364  1.3964
  116RES    H9432524   6.846   6.254   2.406  4.3628 -0.9925  1.4254
  116RES    H9532525   6.856   6.027   2.241 -1.7486 -2.6950  0.2176
  116RES    H9632526   6.709   6.002   2.309  2.3793 -3.0444 -2.0334
  116RES    H9732527   6.667   6.210   2.006 -0.4400 -0.4135 -1.7914
  116RES    H9832528   6.784   6.089   2.014  0.0349  0.3908  0.9894
  116RES    H9932529   6.616   6.048   2.053  1.5643 -1.5897  0.0486
  116RES   O10032530   6.686   6.144   2.505 -0.3858 -0.0962 -0.3146
  116RES   C10132531   6.673   6.230   2.616 -0.1242  0.1480 -0.1722
  116RES   C10232532   6.631   6.373   2.580  0.2708 -0.0817 -0.4705
  116RES   C10332533   6.699   6.487   2.667  0.3802  0.3711  0.1577
  116RES   O10432534   6.697   6.615   2.598 -0.0547  0.2221 -0.0160
  116RES   C10532535   6.760   6.721   2.671  0.1108  0.8615 -0.3836
  116RES   H10632536   6.761   6.224   2.681 -0.5915 -0.1629  0.4342
  116RES   H10732537   6.601   6.181   2.681 -0.8837  0.2093 -0.9596
  116RES   H10832538   6.672   6.387   2.480 -0.8480 -3.2304 -1.4254
  116RES   H10932539   6.800   6.451   2.684  0.2045 -0.2648 -0.1267
  116RES   H11032540   6.650   6.498   2.764 -0.3168 -0.5631 -0.0799
  116RES   H11132541   6.761   6.813   2.612  1.0770  0.3764 -1.1452
  116RES   H11232542   6.861   6.703   2.707  0.3197 -0.9939 -1.8146
  116RES   H11332543   6.694   6.754   2.751  1.3827 -0.7764  1.3814
  116RES   O11432544   6.487   6.399   2.587 -0.3718  0.2084  0.1194
  116RES   C11532545   6.405   6.302   2.518  0.3054 -0.2214 -1.2504
  116RES   C11632546   6.391   6.314   2.370 -0.3372  0.0393  0.2718
  116RES   C11732547   6.346   6.180   2.314 -0.4928 -0.7841  0.5171
  116RES   O11832548   6.361   6.167   2.168  0.5181 -0.4057  0.0976
  116RES   C11932549   6.320   6.035   2.132  0.7859 -0.6802 -0.2155
  116RES   H12032550   6.438   6.203   2.551 -0.0150 -0.6091 -2.0601
  116RES   H12132551   6.306   6.321   2.559  0.8337 -0.4930  0.1807
  116RES   H12232552   6.486   6.336   2.320 -0.3469 -1.5966 -0.5041
  116RES   H12332553   6.410   6.101   2.353 -0.6757  0.3640  3.2690
  116RES   H12432554   6.241   6.166   2.343 -1.7921  1.4271 -2.7888
  116RES   H12532555   6.325   6.005   2.027  2.3371  1.3576 -0.7447
  116RES   H12632556   6.220   6.019   2.173  0.5622  0.4129 -0.3184
  116RES   H12732557   6.379   5.963   2.189  1.8238 -1.8851 -2.7039
  116RES   O12832558   6.294   6.416   2.340  0.0985  0.2482  0.0443
  116RES   C12932559   6.330   6.546   2.388  0.1304 -0.0306  0.2802
  116RES   C13032560   6.239   6.650   2.321 -0.2079  0.3004 -0.5639
  116RES   C13132561   6.293   6.792   2.367  0.0308 -0.0989 -0.7226
  116RES   O13232562   6.267   6.887   2.267  0.0653 -0.2401  0.2393
  116RES   C13332563   6.135   6.945   2.282 -0.1192 -0.0009  0.5632
  116RES   H13432564   6.306   6.538   2.494  2.8198  0.6912  0.9872
  116RES   H13532565   6.435   6.568   2.370  0.1226  1.6535  2.0721
  116RES   H13632566   6.259   6.643   2.214  0.6878 -1.7234 -0.2877
  116RES   H13732567   6.402   6.791   2.372 -0.0011 -0.5726 -0.0744
  116RES   H13832568   6.258   6.810   2.469  1.5139 -0.9945 -0.0404
  116RES   H13932569   6.116   6.999   2.375  1.6281  0.2824  0.7744
  116RES   H14032570   6.121   7.011   2.196  0.7273  0.4100  0.7343
  116RES   H14132571   6.049   6.880   2.267 -1.7378  2.0781  0.7314
  116RES   O14232572   6.108   6.636   2.355  0.2422  0.1302 -0.3808
  116RES   C14332573   6.033   6.540   2.277  0.0583  0.4544  0.0281
  116RES   C14432574   5.968   6.446   2.376  0.5873  0.0113 -0.0157
  116RES   C14532575   5.979   6.307   2.306  0.7289 -0.0303  0.1265
  116RES   O14632576   5.935   6.207   2.404  0.1475  0.3628  0.2071
  116RES   C14732577   5.942   6.075   2.360  1.3611 -0.3405 -0.4187
  116RES   H14832578   5.950   6.602   2.243  0.8687  2.0871  0.9307
  116RES   H14932579   6.095   6.502   2.196  1.6191  2.8175  0.0734
  116RES   H15032580   6.026   6.442   2.469 -0.2707 -0.6490  0.4996
  116RES   H15132581   6.082   6.278   2.290  0.3713 -2.3775  1.8553
  116RES   H15232582   5.930   6.289   2.210  1.1844 -2.9470  0.3962
  116RES   H15332583   5.994   6.078   2.264  0.8737  0.4796 -0.6575
  116RES   H15432584   5.847   6.024   2.345  0.2424  1.1959  1.3311
  116RES   H15532585   6.006   6.000   2.408  1.0129  0.0401  0.6464
  116RES   O15632586   5.830   6.479   2.386 -0.0783  0.0403 -0.5419
  116RES   C15732587   5.784   6.537   2.506  0.9748 -0.0759 -0.1551
  116RES   C15832588   5.809   6.690   2.494 -0.2045  0.1967  0.2964
  116RES   C15932589   5.797   6.767   2.627 -0.3640  0.0276  0.0687
  116RES   O16032590   5.842   6.898   2.617  0.1522  0.3155 -1.0240
  116RES   C16132591   5.796   6.985   2.727 -0.2808 -0.3975 -0.1573
  116RES   H16232592   5.677   6.522   2.515  1.1258 -0.3320  1.2042
  116RES   H16332593   5.829   6.481   2.587 -1.7188 -0.5235  1.0810
  116RES   H16432594   5.908   6.710   2.453 -0.6545  0.1697 -0.8239
  116RES   H16532595   5.697   6.754   2.668 -0.0280 -1.3050  0.4836
  116RES   H16632596   5.859   6.722   2.705 -1.1095 -1.6538 -0.2751
  116RES   H16732597   5.852   7.077   2.715 -0.2773 -0.3192  0.4275
  116RES   H16832598   5.822   6.932   2.819  1.1170 -2.9298 -1.9232
  116RES   H16932599   5.690   7.002   2.710  0.2586  1.4844 -1.7003
  116RES   O17032600   5.698   6.745   2.418  0.4712 -0.4461 -0.1299
  116RES   C17132601   5.735   6.765   2.283  0.9494 -1.2737 -0.4172
  116RES   C17232602   5.641   6.873   2.214 -0.2578 -0.3232  0.0786
  116RES   C17332603   5.597   6.842   2.075  0.2693  0.8615  0.3146
  116RES   O17432604   5.703   6.845   1.978  0.1688  0.6353 -0.0969
  116RES   C17532605   5.661   6.831   1.843  0.3783  0.0168  0.2820
  116RES   H17632606   5.722   6.669   2.233  0.2837 -0.6798 -1.4107
  116RES   H17732607   5.838   6.795   2.266  0.6526 -0.5572 -0.9614
  116RES   H17832608   5.556   6.881   2.282 -2.5383 -4.6553 -2.0077
  116RES   H17932609   5.537   6.751   2.063  0.0417  0.9055  1.1145
  116RES   H18032610   5.534   6.925   2.045 -0.9397 -0.3277 -0.5114
  116RES   H18132611   5.609   6.738   1.823 -0.3073  0.3574  0.4545
  116RES   H18232612   5.751   6.816   1.785 -0.4695 -0.8115 -0.8338
  116RES   H18332613   5.608   6.918   1.804 -1.8712 -0.6318  1.8035
  116RES   O18432614   5.712   6.998   2.208  0.2960 -0.2500  0.0929
  116RES   C18532615   5.742   7.063   2.329 -0.1977  0.6073 -0.5028
  116RES   C18632616   5.774   7.214   2.300 -0.1219  1.0610 -0.8846
  116RES   C18732617   5.821   7.285   2.429  0.5935  0.5506  0.4356
  116RES   O18832618   5.943   7.227   2.474  0.4336  0.7198 -0.7133
  116RES   C18932619   5.993   7.299   2.586  0.0354  0.0595  0.0381
  116RES   H19032620   5.819   7.004   2.380 -2.1579 -0.8589  0.8027
  116RES   H19132621   5.648   7.064   2.382 -1.0675 -0.5912 -1.9824
  116RES   H19232622   5.850   7.224   2.222  0.0416 -1.2699 -1.0652
  116RES   H19332623   5.746   7.262   2.505 -2.6555  0.2480 -2.7434
  116RES   H19432624   5.823   7.393   2.424  2.2086  0.4737 -1.1542
  116RES   H19532625   6.063   7.231   2.634 -1.0876  0.3201  2.1030
  116RES   H19632626   6.048   7.391   2.566  0.0185  0.1605  0.4605
  116RES   H19732627   5.913   7.313   2.659  0.6088  2.0202  0.3026
  116RES   O19832628   5.652   7.280   2.262  0.0125  0.3365 -0.1793
  116RES   C19932629   5.644   7.309   2.120 -0.2221  0.4108 -0.5936
  116RES   C20032630   5.513   7.388   2.083  0.5917  0.3776  0.4387
  116RES   C20132631   5.481   7.391   1.936 -0.1198 -0.4119 -0.1386
  116RES   O20232632   5.341   7.404   1.912  0.1288 -0.3568  0.2795
  116RES   C20332633   5.321   7.412   1.770  0.2341  0.5839  0.3930
  116RES   H20432634   5.653   7.213   2.068  3.0870 -0.4420  1.3310
  116RES   H20532635   5.727   7.373   2.089  1.1246 -1.6712 -1.4688
  116RES   H20632636   5.427   7.351   2.140  1.3850 -0.0655  1.3768
  116RES   H20732637   5.534   7.468   1.881  1.6583 -2.8793 -2.0018
  116RES   H20832638   5.524   7.298   1.897  0.8429  0.0351 -0.1545
  116RES   H20932639   5.387   7.484   1.723  1.0209 -0.6023 -0.3386
  116RES   H21032640   5.217   7.437   1.746  0.5924  0.9092 -0.8176
  116RES   H21132641   5.334   7.314   1.725 -1.0994  0.6978 -0.2664
  116RES   O21232642   5.546   7.520   2.118 -0.3579  0.0927 -0.1707
  116RES   C21332643   5.434   7.609   2.122 -0.2667  0.0245  0.1817
  116RES   C21432644   5.488   7.750   2.160 -0.0520 -0.5868 -0.0573
  116RES   C21532645   5.374   0.038   2.203  0.2475 -0.3561  0.2227
  116RES   O21632646   5.429   0.146   2.272  0.3196  0.0160 -0.0245
  116RES   C21732647   5.329   0.248   2.301 -0.0158  0.5900  0.7417
  116RES   H21832648   5.367   7.577   2.202  0.5130 -1.4637  0.2576
  116RES   H21932649   5.388   7.622   2.025  1.9599  0.7655 -0.8073
  116RES   H22032650   5.567   7.739   2.234 -1.8077 -0.3072  1.8929
  116RES   H22132651   5.301   0.071   2.129 -0.6196  0.7791  1.5494
  116RES   H22232652   5.315   7.809   2.282  0.4628  1.6577  1.6039
  116RES   H22332653   5.278   0.295   2.217 -0.5380 -1.4915 -0.1413
  116RES   H22432654   5.384   0.323   2.357  3.0525 -0.1987 -1.1229
  116RES   H22532655   5.254   0.209   2.370 -0.0313  1.5615  1.2754
  116RES   O22632656   5.548   7.799   2.044 -0.0164 -0.2665  0.4389
  116RES   C22732657   5.631   0.094   2.064 -0.3955 -0.3584  0.2238
  116RES   C22832658   5.763   0.050   1.999 -0.0856  0.1641 -0.1151
  116RES   C22932659   5.869   0.163   1.976  0.7646  0.7564 -0.5411
  116RES   O23032660   5.898   0.224   2.098 -0.1062 -0.2360 -0.4122
  116RES   C23132661   6.021   0.192   2.152  0.1588  0.0400 -0.3100
  116RES   H23232662   5.649   0.130   2.165  0.2954  1.2064 -0.4518
  116RES   H23332663   5.592   0.181   2.012 -0.2946 -0.7092 -0.4469
  116RES   H23432664   5.744   7.812   1.907 -0.4697  0.9821 -0.5268
  116RES   H23532665   5.829   0.235   1.905  1.7204  2.8381  0.9450
  116RES   H23632666   5.959   0.128   1.925  0.2334 -1.5475  0.0544
  116RES   H23732667   6.090   0.133   2.092  0.4130 -0.9471  0.9349
  116RES   H23832668   6.015   0.142   2.249  1.2190  3.1854  1.4546
  116RES   H23932669   6.064   0.291   2.168 -0.6611  0.3040  0.2861
  116RES   O24032670   5.829   7.776   2.094  0.2951 -0.0199  0.2192
  116RES   C24132671   5.823   7.640   2.060  0.4047 -0.0747 -0.2863
  116RES   C24232672   5.968   7.590   2.035  0.6387  0.1956 -0.2718
  116RES   C24332673   5.983   7.441   2.068  1.2614  0.3258 -0.0757
  116RES   O24432674   6.113   7.416   2.120 -0.1159  0.0930 -0.3158
  116RES   C24532675   6.145   7.286   2.168  0.6962 -0.3714 -0.1438
  116RES   H24632676   5.750   7.616   1.982 -2.0145  0.9515  1.5916
  116RES   H24732677   5.776   7.600   2.150  0.4431 -1.0166 -0.6787
  116RES   H24832678   6.028   7.638   2.112  1.8124 -1.2653 -0.2565
  116RES   H24932679   5.907   7.427   2.144  0.3347  1.8712 -0.7106
  116RES   H25032680   5.961   7.376   1.984 -2.5701 -3.7067  3.8052
  116RES   H25132681   6.073   7.260   2.247  0.6186  0.0710 -0.0699
  116RES   H25232682   6.242   7.297   2.217  1.3948 -0.7356 -1.4232
  116RES   H25332683   6.162   7.215   2.088  0.1573  0.2594 -0.8194
  116RES   O25432684   6.009   7.627   1.907 -0.3690 -0.2913 -0.0736
  116RES   C25532685   6.144   7.672   1.894 -0.0247 -0.0044  0.4848
  116RES   C25632686   6.199   7.659   1.753 -0.2373 -0.3587 -0.0230
  116RES   C25732687   6.317   7.756   1.731  0.4729  0.2959  0.0308
  116RES   O25832688   6.392   7.776   1.850  0.4764  0.0844 -0.1412
  116RES   C25932689   6.474   7.670   1.884 -0.1858 -0.0011 -0.4069
  116RES   H26032690   6.123   7.776   1.920 -1.3013 -0.4914  1.4484
  116RES   H26132691   6.217   7.629   1.964 -0.7495  1.4194  2.1777
  116RES   H26232692   6.110   7.683   1.695 -0.3310  1.6578  0.9073
  116RES   H26332693   6.372   7.725   1.642 -1.5964  1.8817 -1.8486
  116RES   H26432694   6.277   0.035   1.697 -1.0244 -0.1227  0.5887
  116RES   H26532695   6.540   7.645   1.800 -0.6717  0.3729 -0.9021
  116RES   H26632696   6.438   7.583   1.939 -1.4445  1.5815  1.3176
  116RES   H26732697   6.539   7.705   1.963 -0.8669  0.5755 -0.1068
  116RES   O26832698   6.250   7.536   1.718 -0.3092  0.2526  0.0681
  116RES   C26932699   6.143   7.432   1.713 -0.2999  0.7908  0.0609
  116RES   C27032700   6.230   7.301   1.691  0.1113  0.9198 -0.3162
  116RES   C27132701   6.130   7.183   1.697  0.2788 -0.8335 -0.0195
  116RES   O27232702   6.112   7.158   1.840  0.6501 -0.0486 -0.0533
  116RES   C27332703   6.009   7.063   1.857 -0.0268  0.2101  0.0058
  116RES   H27432704   6.080   7.457   1.629 -1.1905  0.8185  0.7303
  116RES   H27532705   6.089   7.427   1.808  0.5076 -3.4347  0.4090
  116RES   H27632706   6.286   7.297   1.598 -0.7323  0.3437 -0.8070
  116RES   H27732707   6.183   7.098   1.654  0.4075 -0.2532 -1.0309
  116RES   H27832708   6.041   7.217   1.644  2.2590  0.0025 -2.9415
  116RES   H27932709   6.018   6.972   1.798 -0.0280  1.5598 -2.1491
  116RES   H28032710   5.912   7.107   1.834  1.0737  1.6744 -2.1097
  116RES   H28132711   6.008   7.045   1.964 -1.2699  0.3147  0.0218
  116RES   H28232712   6.299   7.295   1.774  0.5379 -1.7946 -0.8442
  117RES     O132713   4.330   3.176   2.765 -0.6923 -0.1596  0.1223
  117RES     C232714   4.306   3.075   2.867 -0.8478  0.3852  0.1014
  117RES     C332715   4.292   2.928   2.811 -0.3322 -0.3853 -0.0590
  117RES     C432716   4.190   2.919   2.700 -0.5150 -0.2290  0.3095
  117RES     O532717   4.157   2.789   2.658 -0.2737 -0.3911 -0.4341
  117RES     C632718   4.111   2.789   2.525  1.2192 -0.0192  0.0956
  117RES     H732719   4.390   3.074   2.936  2.1633  1.5155 -3.3559
  117RES     H832720   4.217   3.109   2.919 -1.3607  0.1972 -0.6369
  117RES     H932721   4.265   2.860   2.892 -2.4240  1.8578  1.1902
  117RES    H1032722   4.223   2.991   2.624 -3.1390  1.0008  0.2794
  117RES    H1132723   4.100   2.968   2.736  1.1756  1.7953  1.9911
  117RES    H1232724   4.013   2.831   2.508  0.7879 -1.1433 -0.2055
  117RES    H1332725   4.185   2.842   2.465  0.2684  1.0769 -0.0987
  117RES    H1432726   4.101   2.691   2.479 -3.0123  0.6947 -0.6785
  117RES    H1532727   4.333   3.262   2.804 -1.9377 -0.1145  0.1389
  117RES    O1632728   4.424   2.884   2.776 -0.1128  1.2156 -0.1020
  117RES    C1732729   4.453   2.753   2.723 -0.0527  0.0256 -0.3237
  117RES    C1832730   4.449   2.654   2.840 -0.8949 -0.9226 -0.5267
  117RES    C1932731   4.384   2.521   2.794 -0.2216 -0.2364 -0.4338
  117RES    O2032732   4.343   2.448   2.913 -0.2916  0.1000  0.0819
  117RES    C2132733   4.282   2.322   2.869  0.2956 -0.0595 -0.5168
  117RES    H2232734   4.553   2.749   2.681 -0.8291 -1.6168 -2.1234
  117RES    H2332735   4.379   2.728   2.647  1.6529  1.1682 -2.4241
  117RES    H2432736   4.385   2.699   2.916 -1.5966  0.6798 -2.0444
  117RES    H2532737   4.299   2.537   2.729  0.7474 -0.6354 -1.8364
  117RES    H2632738   4.449   2.460   2.730  1.6070 -0.6077  1.7156
  117RES    H2732739   4.194   2.334   2.805 -0.2998  0.3112  0.3583
  117RES    H2832740   4.273   2.256   2.955  2.0889  0.2410 -0.0734
  117RES    H2932741   4.361   2.270   2.816  0.5974 -1.1219  0.9444
  117RES    O3032742   4.580   2.641   2.881  0.0059  0.5396 -0.0189
  117RES    C3132743   4.608   2.653   3.018  0.0226  0.0148 -0.2513
  117RES    C3232744   4.738   2.574   3.040  0.2647  0.6844  0.6359
  117RES    C3332745   4.745   2.501   3.174 -0.0942  0.1904 -0.1695
  117RES    O3432746   4.629   2.431   3.192  0.1141 -0.8010  0.1526
  117RES    C3532747   4.628   2.307   3.121  0.0559 -0.2657  0.0056
  117RES    H3632748   4.619   2.756   3.053  0.3320 -0.2430  0.4256
  117RES    H3732749   4.529   2.617   3.083  0.4297  0.6706  0.6255
  117RES    H3832750   4.744   2.488   2.973  0.4180  0.3036  1.1368
  117RES    H3932751   4.748   2.577   3.252  1.9954 -1.3390  1.2959
  117RES    H4032752   4.843   2.456   3.192 -0.3074  0.1649  0.9930
  117RES    H4132753   4.722   2.254   3.138 -0.1135 -0.3898  0.5365
  117RES    H4232754   4.611   2.327   3.015  0.4196  0.6313  0.1106
  117RES    H4332755   4.543   2.242   3.142 -1.0478  0.7113 -1.3307
  117RES    O4432756   4.854   2.656   3.020 -0.3071 -0.4567  0.1539
  117RES    C4532757   4.861   2.733   2.897  0.2745 -0.6510 -0.4941
  117RES    C4632758   4.989   2.818   2.899 -0.0905  0.3087 -0.3603
  117RES    C4732759   5.023   2.888   2.769 -0.3804 -0.0759  0.3767
  117RES    O4832760   5.159   2.918   2.759 -0.2985 -0.3837 -0.2547
  117RES    C4932761   5.186   2.974   2.635  0.2212 -0.3846 -0.4370
  117RES    H5032762   4.777   2.800   2.877 -0.8887 -1.8171  0.4297
  117RES    H5132763   4.851   2.660   2.817  0.6762 -0.4733 -0.7086
  117RES    H5232764   5.065   2.745   2.924 -1.4360 -1.7233 -2.0376
  117RES    H5332765   5.007   2.808   2.696  1.6167  1.7425 -2.1490
  117RES    H5432766   4.969   2.977   2.735 -1.4447 -1.8654 -2.8591
  117RES    H5532767   5.282   3.023   2.653 -0.6883  1.6532 -1.0834
  117RES    H5632768   5.125   3.063   2.619 -1.0457 -0.9412  1.2126
  117RES    H5732769   5.181   2.911   2.546 -0.4843 -0.4288 -0.3670
  117RES    O5832770   4.957   2.917   3.000 -0.2461 -0.6605 -0.3056
  117RES    C5932771   5.062   2.943   3.095 -0.6275  0.1400  0.4721
  117RES    C6032772   5.009   2.991   3.233 -0.5765  0.0896 -0.0100
  117RES    C6132773   4.871   2.937   3.263 -0.2038  0.1241  0.2510
  117RES    O6232774   4.826   2.968   3.398 -0.6001 -0.3847  0.0391
  117RES    C6332775   4.787   3.107   3.412 -0.0998 -0.4266 -1.0997
  117RES    H6432776   5.140   3.009   3.057  0.9460  0.0497  3.3974
  117RES    H6532777   5.104   2.843   3.111 -0.8348 -0.3359 -1.8577
  117RES    H6632778   5.059   2.941   3.315 -2.2642  0.1610  1.0765
  117RES    H6732779   4.788   2.964   3.199 -1.0657  0.1105  1.3622
  117RES    H6832780   4.886   2.829   3.262 -1.0146  0.0145 -0.1964
  117RES    H6932781   4.877   3.155   3.452  0.4348 -1.5173 -0.9557
  117RES    H7032782   4.707   3.126   3.483 -0.1661 -2.7448 -0.5021
  117RES    H7132783   4.757   3.155   3.319 -0.7687 -0.5093 -0.9286
  117RES    O7232784   5.027   3.132   3.242  0.5047 -0.5526  0.2053
  117RES    C7332785   5.133   3.179   3.325  0.1982  0.1200 -0.1616
  117RES    C7432786   5.134   3.333   3.336 -0.2874 -0.0547  0.3248
  117RES    C7532787   5.245   3.386   3.424  0.0451  0.6817  0.0342
  117RES    O7632788   5.267   3.523   3.394  0.1902 -0.3844 -0.2298
  117RES    C7732789   5.379   3.578   3.467  0.4700 -0.2794  0.0502
  117RES    H7832790   5.129   3.137   3.426 -0.5162 -1.8022 -0.9706
  117RES    H7932791   5.229   3.143   3.288  0.0446 -0.6569  0.1751
  117RES    H8032792   5.143   3.375   3.236  0.8177  1.3807  1.0131
  117RES    H8132793   5.336   3.333   3.397 -0.8194 -1.0755  0.5144
  117RES    H8232794   5.225   3.365   3.529  0.5688 -2.9367 -0.5392
  117RES    H8332795   5.473   3.529   3.441  0.1150 -0.2667 -1.3236
  117RES    H8432796   5.372   3.569   3.575 -1.4055 -1.2129 -0.1135
  117RES    H8532797   5.372   3.683   3.441  1.9477 -0.3645 -0.7706
  117RES    O8632798   5.006   3.368   3.389  0.5496 -0.4238 -0.2049
  117RES    C8732799   4.967   3.499   3.377  0.7324  0.6617 -0.6763
  117RES    C8832800   4.829   3.518   3.317  0.4676 -0.0739  0.6358
  117RES    C8932801   4.769   3.646   3.368  0.2664  0.1018  0.4038
  117RES    O9032802   4.633   3.646   3.343  0.2185  0.2571 -0.6971
  117RES    C9132803   4.561   3.740   3.422  0.5921 -0.1777  0.7791
  117RES    H9232804   4.974   3.548   3.474  0.0220 -0.0113 -0.2780
  117RES    H9332805   5.041   3.549   3.315  3.3343 -0.6469  1.2611
  117RES    H9432806   4.763   3.443   3.358 -0.1976  0.2406  0.1522
  117RES    H9532807   4.772   3.646   3.477 -1.5104  1.2259  0.4810
  117RES    H9632808   4.820   3.733   3.328  0.1088  0.9794  2.0992
  117RES    H9732809   4.604   3.839   3.403  1.4270 -0.5560  0.6555
  117RES    H9832810   4.458   3.743   3.386  1.2630  1.0190 -1.1618
  117RES    H9932811   4.569   3.712   3.527 -1.6337 -0.6385  0.8456
  117RES   O10032812   4.829   3.506   3.173  0.3086  0.1067  0.0788
  117RES   C10132813   4.798   3.368   3.139 -0.3139 -0.1303 -0.5627
  117RES   C10232814   4.818   3.352   2.982  0.1940 -0.1702 -0.5821
  117RES   C10332815   4.773   3.209   2.933 -0.3156  1.0376  0.1555
  117RES   O10432816   4.804   3.184   2.799 -0.0733  0.3617  0.2713
  117RES   C10532817   4.716   3.088   2.741  0.1742  0.1387  0.1958
  117RES   H10632818   4.696   3.343   3.167  0.8445 -1.6912  2.5643
  117RES   H10732819   4.868   3.303   3.191  0.3157  0.8719 -0.1201
  117RES   H10832820   4.765   3.426   2.923  0.1187  0.0757 -0.2103
  117RES   H10932821   4.665   3.192   2.939 -0.2197  0.0789 -0.5712
  117RES   H11032822   4.820   3.127   2.989 -1.5764 -0.7293 -1.3047
  117RES   H11132823   4.747   3.033   2.653 -0.6142  0.9142 -0.5736
  117RES   H11232824   4.616   3.129   2.730  0.3086  0.0574 -1.4059
  117RES   H11332825   4.693   3.011   2.814  1.3020 -0.5120 -0.1228
  117RES   O11432826   4.961   3.359   2.947  0.2095 -0.1506  1.0019
  117RES   C11532827   5.006   3.489   2.926 -0.6573  0.3002  0.3047
  117RES   C11632828   5.155   3.473   2.889 -0.2187 -0.1652 -0.0980
  117RES   C11732829   5.161   3.407   2.749  0.0189 -0.0917  0.3075
  117RES   O11832830   5.285   3.338   2.717 -0.3616 -0.0568 -0.1748
  117RES   C11932831   5.349   3.261   2.817 -0.3659 -0.1145 -0.5568
  117RES   H12032832   4.955   3.544   2.847  0.6221 -0.3929 -1.0286
  117RES   H12132833   5.003   3.545   3.020 -0.2516 -0.3105  0.6867
  117RES   H12232834   5.209   3.420   2.967 -0.5640 -1.8058 -0.9456
  117RES   H12332835   5.084   3.332   2.734 -0.0821 -0.2753  1.7396
  117RES   H12432836   5.131   3.480   2.673 -1.0810 -0.3581  0.4892
  117RES   H12532837   5.294   3.200   2.889  0.1028 -1.1303 -1.0533
  117RES   H12632838   5.400   3.339   2.874 -0.3254  0.3197 -1.1795
  117RES   H12732839   5.431   3.201   2.778 -1.6305 -3.1919  1.3924
  117RES   O12832840   5.206   3.606   2.894  0.2129 -0.0365  0.4896
  117RES   C12932841   5.345   3.606   2.884 -0.8622  0.5404 -0.4806
  117RES   C13032842   5.394   3.745   2.891  0.6841  0.6897 -0.5212
  117RES   C13132843   5.523   3.778   2.823 -0.4210  0.0353  0.3164
  117RES   O13232844   5.632   3.698   2.868 -0.2536 -0.0244  0.2072
  117RES   C13332845   5.755   3.710   2.795  0.4423 -0.1638  0.1202
  117RES   H13432846   5.379   3.562   2.978 -0.9333 -1.6973 -1.4772
  117RES   H13532847   5.371   3.539   2.803 -2.2756  0.0020 -0.5171
  117RES   H13632848   5.324   3.814   2.845 -0.8992  0.4070  1.3899
  117RES   H13732849   5.557   3.880   2.840  0.3217 -0.1241 -0.2053
  117RES   H13832850   5.500   3.770   2.717  2.9095 -0.4485 -0.4258
  117RES   H13932851   5.784   3.813   2.817 -1.5644  0.4259  0.1014
  117RES   H14032852   5.828   3.633   2.821 -2.0483 -2.1446  1.5537
  117RES   H14132853   5.737   3.697   2.688 -1.0271  0.1940  0.3068
  117RES   O14232854   5.405   3.798   3.026 -0.0968 -0.5184 -0.0808
  117RES   C14332855   5.284   3.800   3.102  0.4982  0.2973 -0.3079
  117RES   C14432856   5.321   3.888   3.221  0.8642 -0.6626  0.0571
  117RES   C14532857   5.202   3.927   3.301 -0.2375 -0.4932 -0.4992
  117RES   O14632858   5.238   4.002   3.421 -0.3963 -0.0430 -0.2044
  117RES   C14732859   5.122   4.078   3.457 -0.0182  0.1149 -0.0534
  117RES   H14832860   5.202   3.847   3.048  0.7693  1.2555  0.0946
  117RES   H14932861   5.240   3.704   3.131 -0.9251  1.7803  2.6614
  117RES   H15032862   5.403   3.850   3.282  0.0302 -2.7572 -0.0682
  117RES   H15132863   5.145   3.839   3.331 -1.4171  0.5939  0.4804
  117RES   H15232864   5.128   3.980   3.242 -2.1692 -1.3020  1.1257
  117RES   H15332865   5.130   4.106   3.562 -0.9887 -1.3569  0.4320
  117RES   H15432866   5.029   4.024   3.443 -0.8898  1.7998 -0.9364
  117RES   H15532867   5.123   4.172   3.401 -1.3857 -1.0024 -2.0239
  117RES   O15632868   5.365   4.008   3.157 -0.4089 -0.3627  0.6787
  117RES   C15732869   5.503   4.042   3.183  0.4277  0.7837  0.0651
  117RES   C15832870   5.533   4.183   3.125 -0.0577  0.3292  0.1819
  117RES   C15932871   5.679   4.196   3.080 -0.2832 -0.1126 -0.7802
  117RES   O16032872   5.687   4.324   3.016 -0.0748 -0.0222 -0.0104
  117RES   C16132873   5.817   4.380   3.003  0.2394  0.1298  0.4472
  117RES   H16232874   5.521   4.042   3.290 -0.1725  2.0598  0.1703
  117RES   H16332875   5.576   3.971   3.145 -0.0222  1.1996 -1.6189
  117RES   H16432876   5.462   4.217   3.049  0.1489  2.3596  0.8585
  117RES   H16532877   5.739   4.200   3.170 -0.5762 -2.3588 -0.4451
  117RES   H16632878   5.724   4.111   3.029 -1.6011 -1.7156  0.6424
  117RES   H16732879   5.901   4.311   2.997  1.1708  1.2586  0.4284
  117RES   H16832880   5.836   4.453   3.082  0.3147  0.9204 -0.2910
  117RES   H16932881   5.813   4.429   2.906  1.6342 -3.4240 -1.4830
  117RES   O17032882   5.526   4.280   3.240  0.1211  0.5688 -0.0535
  117RES   C17132883   5.397   4.304   3.287 -0.1766  0.0322 -0.2859
  117RES   C17232884   5.398   4.406   3.404  0.0417  0.4367 -0.3097
  117RES   C17332885   5.469   4.533   3.357  0.5785 -0.2670  0.3888
  117RES   O17432886   5.458   4.628   3.465 -0.2738 -0.3883 -0.0501
  117RES   C17532887   5.544   4.739   3.453 -0.0788  0.5205 -0.4390
  117RES   H17632888   5.369   4.209   3.333 -0.8246  0.6688  0.6461
  117RES   H17732889   5.331   4.335   3.206 -0.3910 -0.2010 -0.2012
  117RES   H17832890   5.290   4.422   3.414 -0.1822  0.4865 -2.4736
  117RES   H17932891   5.574   4.505   3.343  0.8443  2.3083 -3.7668
  117RES   H18032892   5.426   4.576   3.267 -1.2517  0.8516  1.7667
  117RES   H18132893   5.519   4.814   3.377  1.4990  0.8906 -0.5990
  117RES   H18232894   5.650   4.713   3.448  0.5633  2.4938  1.9193
  117RES   H18332895   5.520   4.792   3.545 -1.1783  0.8602 -0.9095
  117RES   O18432896   5.467   4.354   3.515  0.5414  0.5164  0.0173
  117RES   C18532897   5.405   4.377   3.636  0.5017 -0.3040 -0.5031
  117RES   C18632898   5.512   4.365   3.748  0.0375 -0.0637  1.0507
  117RES   C18732899   5.445   4.364   3.886 -0.9559 -0.8215  0.0844
  117RES   O18832900   5.386   4.493   3.921 -0.6403  0.1625  0.3864
  117RES   C18932901   5.335   4.500   4.050  0.1378 -0.1103  0.0812
  117RES   H19032902   5.321   4.310   3.652 -0.7594  1.0660 -1.2242
  117RES   H19132903   5.356   4.472   3.658 -0.3529 -0.0308 -3.3841
  117RES   H19232904   5.561   4.268   3.743  0.4100 -0.0175  3.1337
  117RES   H19332905   5.529   4.357   3.955  1.3060 -2.9990 -2.7896
  117RES   H19432906   5.380   4.277   3.903 -2.0968 -0.0010 -0.0058
  117RES   H19532907   5.288   4.406   4.079  4.2487 -2.1112  0.6747
  117RES   H19632908   5.417   4.521   4.120  0.2483  1.2893 -0.4647
  117RES   H19732909   5.270   4.587   4.051 -1.0964 -1.0198 -0.0276
  117RES   O19832910   5.616   4.464   3.745 -0.0871 -0.0283  0.1121
  117RES   C19932911   5.725   4.444   3.644  0.1583 -0.6213  0.6533
  117RES   C20032912   5.859   4.509   3.686  0.9605 -0.7900 -0.1942
  117RES   C20132913   5.925   4.581   3.574  0.1841 -0.0843  0.2971
  117RES   O20232914   5.942   4.508   3.450 -0.0541  0.4706  0.2986
  117RES   C20332915   5.979   4.592   3.346 -0.1775  0.2268  0.5523
  117RES   H20432916   5.696   4.487   3.548  1.4094 -1.6359 -0.1951
  117RES   H20532917   5.738   4.338   3.625 -1.0972 -0.2067 -2.9492
  117RES   H20632918   5.839   4.586   3.760 -1.2893 -0.5396 -1.0232
  117RES   H20732919   5.866   4.671   3.562  1.5261  0.8438  0.5309
  117RES   H20832920   6.024   4.604   3.615  0.5458 -1.5890  0.3141
  117RES   H20932921   6.072   4.646   3.365  0.2409 -0.4143  0.3462
  117RES   H21032922   5.909   4.670   3.317 -2.3618 -2.7648 -2.6022
  117RES   H21132923   5.998   4.544   3.250  1.1023  2.0524 -0.1368
  117RES   O21232924   5.950   4.411   3.731 -0.5054 -0.8952 -0.0285
  117RES   C21332925   6.033   4.461   3.833  0.0601  0.0896 -0.0241
  117RES   C21432926   6.159   4.368   3.843 -0.3628  0.2631  0.3807
  117RES   C21532927   6.223   4.371   3.977  0.2508  0.2478 -0.3354
  117RES   O21632928   6.342   4.290   3.988 -0.4161  0.1609  0.4737
  117RES   C21732929   6.309   4.168   4.054  0.2899  1.0024 -0.0991
  117RES   H21832930   5.973   4.446   3.923 -3.9761  4.0017 -1.8736
  117RES   H21932931   6.063   4.564   3.819 -2.8409  1.0628  0.4885
  117RES   H22032932   6.143   4.264   3.818  0.6702  0.6266 -1.9229
  117RES   H22132933   6.247   4.476   3.994 -0.3097  0.8001 -2.6999
  117RES   H22232934   6.157   4.342   4.058  1.3166  0.1521  0.5242
  117RES   H22332935   6.273   4.189   4.154  0.3552  1.9865 -0.2796
  117RES   H22432936   6.405   4.117   4.057  0.3261  1.0629 -0.2458
  117RES   H22532937   6.239   4.110   3.993 -0.5140  0.5032  1.2619
  117RES   O22632938   6.261   4.418   3.759  0.6126 -0.6621 -0.7112
  117RES   C22732939   6.240   4.390   3.620 -0.4290 -0.4533 -0.0532
  117RES   C22832940   6.361   4.416   3.536  0.7500  0.2483  0.2800
  117RES   C22932941   6.379   4.330   3.406 -0.0550 -0.1641 -0.1527
  117RES   O23032942   6.507   4.267   3.409 -0.3501  0.5923 -1.0694
  117RES   C23132943   6.544   4.182   3.297 -0.0884 -0.0837  0.3586
  117RES   H23232944   6.152   4.435   3.575  0.1033 -1.1315 -1.8065
  117RES   H23332945   6.222   4.283   3.613  0.9852 -0.6968 -0.0705
  117RES   H23432946   6.455   4.410   3.590  0.8498  0.2135  0.1026
  117RES   H23532947   6.373   4.394   3.319 -1.6465  1.2996  1.0037
  117RES   H23632948   6.306   4.250   3.397 -1.6464  1.5252 -2.7674
  117RES   H23732949   6.515   4.225   3.201 -1.8358 -0.9705  0.4762
  117RES   H23832950   6.492   4.087   3.301  0.4755 -0.4040  0.1002
  117RES   H23932951   6.652   4.173   3.310 -0.1535 -0.3025  0.7608
  117RES   O24032952   6.345   4.551   3.484  0.2383 -0.2079  0.2098
  117RES   C24132953   6.408   4.643   3.571 -0.1858 -0.9212 -0.1326
  117RES   C24232954   6.387   4.796   3.527 -0.1570  0.2219 -0.1114
  117RES   C24332955   6.402   4.890   3.650  0.2966  0.4005 -0.2837
  117RES   O24432956   6.278   4.962   3.666 -0.4202  0.0138  0.1948
  117RES   C24532957   6.257   5.089   3.595  0.4186  0.3192  0.0514
  117RES   H24632958   6.516   4.633   3.584 -0.0559  1.9132  1.3215
  117RES   H24732959   6.366   4.633   3.671 -2.5807  0.6641 -0.9617
  117RES   H24832960   6.283   4.803   3.495 -1.3764  0.7526  3.7028
  117RES   H24932961   6.409   4.827   3.739 -0.1737 -1.0529 -1.2447
  117RES   H25032962   6.482   4.963   3.638  0.1545  0.3260 -1.8697
  117RES   H25132963   6.311   5.173   3.638  2.8412 -1.6543  0.9405
  117RES   H25232964   6.150   5.107   3.602  0.1757 -1.0456  0.0049
  117RES   H25332965   6.265   5.079   3.486  1.3896 -0.5904  0.2023
  117RES   O25432966   6.477   4.834   3.422 -0.3823 -0.5427 -0.0490
  117RES   C25532967   6.427   4.866   3.291  0.6834  0.2982  0.5696
  117RES   C25632968   6.353   4.756   3.212 -0.4006  0.0105 -0.2679
  117RES   C25732969   6.227   4.798   3.132  0.1383 -0.0751 -0.4981
  117RES   O25832970   6.140   4.684   3.108  0.2951 -0.2900 -0.0430
  117RES   C25932971   6.152   4.626   2.983  1.0446  0.1846 -0.1813
  117RES   H26032972   6.361   4.950   3.309 -0.8675 -0.6317 -0.7187
  117RES   H26132973   6.505   4.914   3.231  1.9252  1.3593  2.9789
  117RES   H26232974   6.315   4.680   3.281  0.4402  0.1782  0.3878
  117RES   H26332975   6.167   4.871   3.187  0.9849 -0.1288  0.4984
  117RES   H26432976   6.261   4.856   3.046  2.9012 -1.9898 -0.7392
  117RES   H26532977   6.233   4.553   2.969 -1.6730 -3.0079  0.0580
  117RES   H26632978   6.173   4.706   2.913  0.5097 -0.3730 -0.9821
  117RES   H26732979   6.060   4.574   2.957  1.2515  0.5170 -1.6174
  117RES   O26832980   6.430   4.700   3.111  0.1740  0.3138 -0.0114
  117RES   C26932981   6.544   4.633   3.167  0.5141 -0.6821  1.0202
  117RES   C27032982   6.589   4.534   3.054 -0.8588  0.2750 -0.2980
  117RES   C27132983   6.725   4.478   3.057  0.1721  0.0546  0.8969
  117RES   O27232984   6.741   4.404   3.178 -0.3575  0.1993  0.9747
  117RES   C27332985   6.864   4.336   3.187  0.2727 -0.7865  0.1057
  117RES   H27432986   6.526   4.584   3.262 -2.2169 -0.1376  0.8338
  117RES   H27532987   6.622   4.708   3.185 -0.8969  1.4667 -1.3312
  117RES   H27632988   6.521   4.449   3.055  1.0694 -1.2948  2.0638
  117RES   H27732989   6.809   4.547   3.045 -0.6203  0.6448 -1.4922
  117RES   H27832990   6.731   4.405   2.976 -2.1786  0.3348  0.4533
  117RES   H27932991   6.863   4.266   3.271 -1.0768 -0.4766  0.3652
  117RES   H28032992   6.945   4.406   3.208 -0.6463  0.0466  0.9825
  117RES   H28132993   6.884   4.281   3.096  1.3464 -0.4186  0.1062
  117RES   H28232994   6.571   4.579   2.956 -0.3053  0.0371 -0.5156
  118RES     O132995   0.971   1.461   7.793 -0.0849 -0.1631  0.3863
  118RES     C232996   0.891   1.566   0.035 -0.0591  0.1342  0.0010
  118RES     C332997   0.744   1.530   0.008 -0.3784  0.4012  1.4559
  118RES     C432998   0.647   1.633   0.077  0.7530  0.0432  0.0403
  118RES     O532999   0.514   1.592   0.070  0.9244  0.2309  0.3195
  118RES     C633000   0.425   1.673   0.139  0.7368 -0.6666 -0.2545
  118RES     H733001   0.909   1.577   0.142 -0.6772  0.6222  0.0570
  118RES     H833002   0.915   1.662   7.805  0.2699 -0.1135 -0.3411
  118RES     H933003   0.726   1.426   0.033 -2.9897  0.6690  0.8745
  118RES    H1033004   0.657   1.726   0.021  0.9523  0.7935  1.3043
  118RES    H1133005   0.676   1.647   0.181 -0.7163  0.6038  0.3949
  118RES    H1233006   0.324   1.634   0.130  0.7789 -1.0392  0.7426
  118RES    H1333007   0.449   1.688   0.244  1.0543 -0.2593 -0.3854
  118RES    H1433008   0.436   1.768   0.087 -0.9694 -0.1740  0.2714
  118RES    H1533009   0.924   1.446   7.712  1.6100 -3.4183 -0.0492
  118RES    O1633010   0.744   1.532   7.679 -0.8195  0.0150  0.3300
  118RES    C1733011   0.623   1.538   7.607 -0.0228  0.0808 -0.2673
  118RES    C1833012   0.641   1.539   7.459 -0.1532 -0.4963 -0.9272
  118RES    C1933013   0.503   1.516   7.397  0.3036  0.9562 -0.3871
  118RES    O2033014   0.516   1.527   7.254 -0.0948 -0.0021  0.1025
  118RES    C2133015   0.398   1.500   7.194 -0.7001 -0.6313  0.2337
  118RES    H2233016   0.561   1.625   7.629 -0.5154 -0.4798  0.6149
  118RES    H2333017   0.566   1.447   7.627 -0.3711  0.4048  0.2203
  118RES    H2433018   0.695   1.449   7.430  2.5623  0.9058 -0.3883
  118RES    H2533019   0.461   1.418   7.421 -1.6064  1.4378 -1.6128
  118RES    H2633020   0.424   1.585   7.426  0.3022  0.5657  0.5605
  118RES    H2733021   0.417   1.508   7.087 -3.4665  1.4350 -0.1442
  118RES    H2833022   0.313   1.562   7.222  0.2572  1.3379 -1.1274
  118RES    H2933023   0.374   1.394   7.206 -1.0239 -0.4516  1.1796
  118RES    O3033024   0.697   1.660   7.427 -0.1515 -0.1964 -0.3005
  118RES    C3133025   0.787   1.668   7.321 -0.0330 -0.4521 -0.0430
  118RES    C3233026   0.853   1.806   7.315  0.3202  0.1060 -0.1126
  118RES    C3333027   0.949   1.818   7.200  0.0114  0.4951 -0.1988
  118RES    O3433028   0.972   1.951   7.158 -0.2464 -0.1364  0.2553
  118RES    C3533029   1.062   1.955   7.053 -0.0850  0.7046  0.0419
  118RES    H3633030   0.859   1.587   7.326 -0.1533 -0.5532  0.0650
  118RES    H3733031   0.733   1.650   7.228  0.4264 -0.0297 -0.3896
  118RES    H3833032   0.772   1.877   7.301  0.2319  0.0895  0.3027
  118RES    H3933033   0.892   1.767   7.122  1.9144 -0.1610 -1.1989
  118RES    H4033034   1.042   1.763   7.211  1.6541  2.9385 -1.3369
  118RES    H4133035   1.025   1.897   6.968 -1.8765  0.7423  0.7873
  118RES    H4233036   1.160   1.916   7.080  0.0742 -0.6833 -2.3889
  118RES    H4333037   1.069   2.059   7.019 -0.8229  0.0814 -2.1181
  118RES    O4433038   0.923   1.809   7.436  0.8602  0.4780 -0.6330
  118RES    C4533039   0.959   1.942   7.474 -0.4553 -0.0869  0.2266
  118RES    C4633040   0.920   1.973   7.617  0.0028 -0.3740  0.1292
  118RES    C4733041   0.763   1.968   7.640 -0.6256  0.2984  0.6374
  118RES    O4833042   0.747   2.001   7.780 -0.0814 -0.2855  0.1233
  118RES    C4933043   0.611   2.009   7.809 -0.3775 -0.2532 -0.0452
  118RES    H5033044   0.915   2.019   7.410  0.7876  1.4828  1.2173
  118RES    H5133045   1.065   1.965   7.464 -1.2807  3.1637 -1.6633
  118RES    H5233046   0.941   2.077   7.640  4.5984 -1.5631  1.7638
  118RES    H5333047   0.711   2.038   7.574  2.2101  0.3324 -1.6701
  118RES    H5433048   0.728   1.867   7.624  0.0111  0.5481 -2.8727
  118RES    H5533049   0.601   1.971   0.093  1.4637  3.2628  1.5777
  118RES    H5633050   0.553   1.960   7.731  1.7493 -3.4029  0.2473
  118RES    H5733051   0.580   2.114   7.812  1.4815  0.3169 -0.0582
  118RES    O5833052   0.997   1.894   7.701 -0.3089  0.2840 -0.6036
  118RES    C5933053   1.116   1.961   7.744 -0.3898  0.1150 -0.0905
  118RES    C6033054   1.208   1.855   7.798 -1.0590 -0.1236  0.5452
  118RES    C6133055   1.309   1.915   0.073  0.0411 -0.2089 -0.2628
  118RES    O6233056   1.409   1.817   0.102  0.2984 -0.6660 -0.3245
  118RES    C6333057   1.491   1.860   0.202  0.1995  0.1207 -0.4631
  118RES    H6433058   1.081   2.027   0.006 -0.8545 -0.2206 -0.0122
  118RES    H6533059   1.154   2.025   7.665  2.2997 -0.3213  0.8212
  118RES    H6633060   1.149   1.784   0.039  0.5705 -0.4220  1.8526
  118RES    H6733061   1.351   2.006   0.030  1.9345 -0.8673  0.1537
  118RES    H6833062   1.263   1.925   0.171 -0.2061  3.7723 -0.6969
  118RES    H6933063   1.548   1.774   0.237 -0.8856  0.2733  1.7737
  118RES    H7033064   1.439   1.890   0.293  0.0002 -0.2889 -0.4403
  118RES    H7133065   1.554   1.948   0.188  0.6468  0.1590  1.6127
  118RES    O7233066   1.272   1.808   7.680 -0.1507  0.4022 -0.2377
  118RES    C7333067   1.228   1.681   7.644 -0.6826  0.1061 -0.0091
  118RES    C7433068   1.265   1.671   7.489 -0.1299 -0.3693  0.3312
  118RES    C7533069   1.199   1.542   7.437  0.4072  0.1032  0.2085
  118RES    O7633070   1.223   1.534   7.296 -0.0593 -0.5930 -0.1479
  118RES    C7733071   1.178   1.410   7.243  0.1909  0.4546 -0.1431
  118RES    H7833072   1.274   1.603   7.705 -0.2462 -0.3035 -0.8431
  118RES    H7933073   1.120   1.667   7.654 -0.2203 -0.5559  6.2234
  118RES    H8033074   1.228   1.762   7.443 -0.0885  0.0369  1.0930
  118RES    H8133075   1.092   1.542   7.454  0.1329 -1.0564 -1.3511
  118RES    H8233076   1.233   1.455   7.494  1.4018 -0.5477 -1.3420
  118RES    H8333077   1.242   1.333   7.287  1.5694  1.3648 -0.5260
  118RES    H8433078   1.186   1.420   7.135 -2.1471  0.7891 -0.3154
  118RES    H8533079   1.076   1.385   7.271  1.2986 -2.4845  1.5580
  118RES    O8633080   1.406   1.659   7.472  0.1465 -0.2853  0.0061
  118RES    C8733081   1.459   1.724   7.358  0.2574 -0.4961  0.0411
  118RES    C8833082   1.612   1.730   7.349  0.4883 -0.6733  0.0100
  118RES    C8933083   1.680   1.613   7.277  0.8011 -1.2638 -0.5771
  118RES    O9033084   1.823   1.621   7.294  0.6729 -0.1681 -0.0231
  118RES    C9133085   1.881   1.495   7.279 -0.1475 -0.5397 -0.2853
  118RES    H9233086   1.421   1.683   7.265 -0.6447  1.2098 -0.3762
  118RES    H9333087   1.417   1.823   7.377  1.8990 -0.0292  1.2959
  118RES    H9433088   1.644   1.738   7.453  1.0322  0.4583 -0.2346
  118RES    H9533089   1.636   1.522   7.317 -1.4629  0.0371 -0.0748
  118RES    H9633090   1.663   1.618   7.169  0.5274  1.7317 -0.4350
  118RES    H9733091   1.847   1.433   7.196 -0.5915 -0.5826 -0.0701
  118RES    H9833092   1.988   1.510   7.267  0.0856 -1.1406  0.8920
  118RES    H9933093   1.861   1.439   7.371 -0.6463 -0.9621 -0.6477
  118RES   O10033094   1.640   1.851   7.280 -0.5548  0.2115  0.6443
  118RES   C10133095   1.735   1.935   7.340 -0.4492 -0.3761 -0.8020
  118RES   C10233096   1.750   2.064   7.254 -0.4132 -0.4427 -0.6242
  118RES   C10333097   1.893   2.118   7.280  0.7165  0.1281 -0.0798
  118RES   O10433098   1.929   2.241   7.206 -0.0069 -0.1633 -0.3722
  118RES   C10533099   2.063   2.268   7.179  0.7831 -0.2053  0.4303
  118RES   H10633100   1.829   1.881   7.348  0.1402  0.8256  0.4233
  118RES   H10733101   1.687   1.960   7.434 -1.0421  0.5453 -1.3435
  118RES   H10833102   1.733   2.038   7.150 -0.6648  0.0993 -0.7217
  118RES   H10933103   1.962   2.041   7.245 -0.6838 -0.9048 -0.6026
  118RES   H11033104   1.912   2.131   7.386  1.0285  2.1774 -0.3498
  118RES   H11133105   2.086   2.370   7.151 -1.2256 -0.4517 -2.2238
  118RES   H11233106   2.086   2.196   7.100 -2.8353 -2.3647  1.2490
  118RES   H11333107   2.126   2.240   7.264  1.0258 -1.5135 -0.1660
  118RES   O11433108   1.665   2.165   7.297 -0.2482 -0.3605 -0.0908
  118RES   C11533109   1.538   2.140   7.245 -0.4543  0.4525 -0.5076
  118RES   C11633110   1.439   2.235   7.305 -0.1659 -0.7663 -0.2434
  118RES   C11733111   1.308   2.244   7.219 -0.8826 -0.0283  0.2374
  118RES   O11833112   1.232   2.356   7.273 -0.4876  0.0746 -0.2924
  118RES   C11933113   1.109   2.380   7.203  0.3811 -0.1554  0.5567
  118RES   H12033114   1.540   2.159   7.138  2.2008  0.5237 -0.4631
  118RES   H12133115   1.503   2.037   7.259  1.9198 -0.8469 -3.5581
  118RES   H12233116   1.473   2.338   7.314  0.5897 -1.0995  0.7179
  118RES   H12333117   1.322   2.267   7.113 -1.4041  1.9603  0.5842
  118RES   H12433118   1.250   2.153   7.235  1.4724 -1.3249  1.7175
  118RES   H12533119   1.045   2.294   7.185  2.5506 -1.7455  0.1116
  118RES   H12633120   1.121   2.442   7.115 -0.7968  0.2408  0.6678
  118RES   H12733121   1.055   2.456   7.259  1.5604  2.1106 -1.3373
  118RES   O12833122   1.414   2.189   7.435  0.6909  0.1683 -0.2350
  118RES   C12933123   1.371   2.278   7.528  0.4435  0.0667  0.2391
  118RES   C13033124   1.401   2.227   7.670 -1.1667 -0.0043  0.0653
  118RES   C13133125   1.313   2.289   7.787  0.4783 -0.1100  0.6130
  118RES   O13233126   1.353   2.237   0.098  0.3715  0.3377  0.0061
  118RES   C13333127   1.248   2.250   0.197  0.1731 -0.3781  0.0130
  118RES   H13433128   1.423   2.373   7.522 -0.0760  0.3953  0.8431
  118RES   H13533129   1.264   2.294   7.518  0.3815 -0.7037 -0.3722
  118RES   H13633130   1.396   2.118   7.678  1.1369 -0.2448 -1.2982
  118RES   H13733131   1.210   2.264   7.760 -0.2797  2.5562  0.8648
  118RES   H13833132   1.318   2.398   7.789  1.2076 -0.1474  0.6470
  118RES   H13933133   1.249   2.350   0.239  0.0625 -1.0217  1.6072
  118RES   H14033134   1.152   2.220   0.155  0.1992  1.3311 -1.3194
  118RES   H14133135   1.277   2.177   0.274  2.5838 -0.9054 -1.3482
  118RES   O14233136   1.535   2.271   7.700 -0.2334  0.6007  0.1763
  118RES   C14333137   1.625   2.170   7.698  0.2865 -0.5212 -0.2631
  118RES   C14433138   1.769   2.226   7.715 -0.0798  0.3772 -0.4730
  118RES   C14533139   1.791   2.327   7.598 -0.1300  0.0291 -0.2489
  118RES   O14633140   1.919   2.392   7.610 -0.9560 -0.4741 -0.9234
  118RES   C14733141   1.939   2.495   7.517 -0.4407 -0.1493  0.3884
  118RES   H14833142   1.609   2.100   7.780 -1.7830  0.5321  0.2766
  118RES   H14933143   1.610   2.121   7.601  1.4838 -0.1075 -0.6635
  118RES   H15033144   1.777   2.265   7.816  0.7466 -1.4222  0.1729
  118RES   H15133145   1.714   2.403   7.598 -1.3781 -1.1465  3.6007
  118RES   H15233146   1.786   2.272   7.504  1.2273 -0.3995 -0.0802
  118RES   H15333147   1.868   2.572   7.548 -0.4624  1.2281 -2.8685
  118RES   H15433148   1.918   2.475   7.412 -1.7067  1.2721  0.3432
  118RES   H15533149   2.040   2.532   7.531 -0.6347  0.5805 -0.1017
  118RES   O15633150   1.846   2.107   7.696 -0.1434 -1.0212 -0.3809
  118RES   C15733151   1.859   2.013   7.806  0.0420 -0.2462  0.0534
  118RES   C15833152   1.875   1.868   7.744  0.3219  0.0266 -0.9632
  118RES   C15933153   1.853   1.758   0.034 -0.0041 -0.4422  0.2016
  118RES   O16033154   1.846   1.622   7.790  0.1697  0.0638 -0.6600
  118RES   C16133155   1.831   1.526   0.081 -0.2942 -0.2074 -0.1677
  118RES   H16233156   1.941   2.032   0.059  0.4075 -0.3174 -0.3555
  118RES   H16333157   1.766   2.011   0.045  0.6312 -0.9743  1.0444
  118RES   H16433158   1.802   1.862   7.663 -1.2214  0.2377  0.3773
  118RES   H16533159   1.937   1.769   0.102 -0.7686  0.9851  0.9418
  118RES   H16633160   1.761   1.777   0.090 -0.2431  0.3276 -0.4478
  118RES   H16733161   1.891   1.550   0.169 -2.0647  2.3760  0.4318
  118RES   H16833162   1.825   1.421   0.053  0.4435 -0.1457 -0.5571
  118RES   H16933163   1.727   1.526   0.116 -0.9813 -1.3627 -2.1321
  118RES   O17033164   2.010   1.851   7.693  0.6287 -0.5905 -0.0654
  118RES   C17133165   2.019   1.817   7.553  0.1823  0.8171 -0.1848
  118RES   C17233166   2.169   1.793   7.516  0.4315  0.8737  0.1221
  118RES   C17333167   2.180   1.743   7.372  0.1286 -0.4061  0.1650
  118RES   O17433168   2.309   1.779   7.323 -0.4248 -0.1967  0.0045
  118RES   C17533169   2.324   1.701   7.204  0.3597 -0.0010  0.3013
  118RES   H17633170   1.979   1.903   7.498  2.4369  2.6633  0.9745
  118RES   H17733171   1.960   1.728   7.534 -0.5556  1.6711 -2.0148
  118RES   H17833172   2.227   1.884   7.535  0.8381  0.1709  2.3965
  118RES   H17933173   2.141   1.641   7.376  1.9813 -1.0983  1.7327
  118RES   H18033174   2.115   1.802   7.307  1.5860  1.1681  0.0968
  118RES   H18133175   2.361   1.602   7.231 -0.2235  0.2510  2.1123
  118RES   H18233176   2.387   1.754   7.133  2.5075 -1.8106  0.7947
  118RES   H18333177   2.236   1.683   7.143  0.2469  2.2219 -0.2394
  118RES   O18433178   2.201   1.681   7.593 -0.2773  0.1720 -0.3149
  118RES   C18533179   2.331   1.669   7.632 -0.4703 -0.9876 -0.1872
  118RES   C18633180   2.353   1.588   7.751  0.2298  0.3443  0.0438
  118RES   C18733181   2.500   1.598   7.794  0.4789 -0.2890 -0.4860
  118RES   O18833182   2.508   1.529   0.110 -0.2514 -0.5367  0.0733
  118RES   C18933183   2.629   1.458   0.130 -0.0116  1.1116  0.7751
  118RES   H19033184   2.378   1.765   7.653 -0.3482 -1.2248  0.6239
  118RES   H19133185   2.382   1.625   7.546 -0.6656  0.5662 -1.1240
  118RES   H19233186   2.297   1.622   0.020  0.3678  1.1459 -0.1794
  118RES   H19333187   2.518   1.704   7.808 -0.3366 -0.4018  1.4998
  118RES   H19433188   2.572   1.554   7.724 -1.0493 -2.3655 -0.7973
  118RES   H19533189   2.616   1.360   0.084 -0.9629  1.5659  0.0218
  118RES   H19633190   2.724   1.505   0.106  1.7089 -1.3531  2.5467
  118RES   H19733191   2.634   1.432   0.235 -2.5426 -1.6901  0.2811
  118RES   O19833192   2.336   1.449   7.733 -0.3229 -0.1029 -0.0470
  118RES   C19933193   2.214   1.383   7.755  0.1109  0.6345 -0.7457
  118RES   C20033194   2.208   1.263   7.675 -1.2591  0.6804  0.3783
  118RES   C20133195   2.056   1.212   7.674  0.2215 -0.1026  0.1994
  118RES   O20233196   2.019   1.200   7.810  0.4431  0.3827 -0.2623
  118RES   C20333197   2.049   1.073   0.037 -0.0008  0.1423  1.1559
  118RES   H20433198   2.132   1.445   7.716 -1.9884 -1.8319 -0.3880
  118RES   H20533199   2.197   1.355   0.042  0.9458 -0.8988 -1.0149
  118RES   H20633200   2.231   1.294   7.573 -3.0511 -0.2971 -0.3438
  118RES   H20733201   2.000   1.286   7.617  2.4269  0.6072 -1.1312
  118RES   H20833202   2.051   1.123   7.611  1.0629  0.6101 -0.8945
  118RES   H20933203   2.132   1.028   7.802 -1.2580  0.6354 -1.3618
  118RES   H21033204   1.958   1.015   0.018  1.1371 -2.0875  2.3655
  118RES   H21133205   2.065   1.061   0.144  0.7934  1.7471  1.2378
  118RES   O21233206   2.296   1.152   7.708  0.4271 -0.6903 -0.1673
  118RES   C21333207   2.429   1.168   7.676 -1.0094  0.3384  0.2242
  118RES   C21433208   2.492   1.026   7.697 -0.9870  0.6069 -0.3910
  118RES   C21533209   2.638   1.024   7.747 -0.4437 -0.0976  0.0974
  118RES   O21633210   2.676   0.886   7.778 -0.5992  0.2546 -0.0603
  118RES   C21733211   2.669   0.867   0.106  0.2863  0.1234  0.6187
  118RES   H21833212   2.471   1.239   7.747  0.1736 -1.0222  0.9043
  118RES   H21933213   2.450   1.207   7.576  3.7418  1.0553  1.3806
  118RES   H22033214   2.435   0.965   7.766 -0.8837  2.8886  1.7743
  118RES   H22133215   2.704   1.051   7.665 -1.0590  1.7886  0.1932
  118RES   H22233216   2.662   1.097   0.007  1.7766 -0.4720 -0.1967
  118RES   H22333217   2.761   0.912   0.144  0.8189 -0.4224  0.0114
  118RES   H22433218   2.683   0.766   0.143 -0.3131  1.2392  3.9944
  118RES   H22533219   2.579   0.912   0.146  1.0153  2.8557 -0.7114
  118RES   O22633220   2.502   0.957   7.566 -0.2978  0.2030  0.4072
  118RES   C22733221   2.404   0.852   7.556 -0.7208  0.3345 -0.0835
  118RES   C22833222   2.393   0.811   7.409  0.0655 -0.1866  0.4330
  118RES   C22933223   2.303   0.691   7.379  0.3364 -0.2914  0.2569
  118RES   O23033224   2.289   0.654   7.242  0.3021 -0.3739  0.0154
  118RES   C23133225   2.177   0.566   7.229  0.0594  0.1056 -0.8651
  118RES   H23233226   2.303   0.884   7.578 -1.2595  0.9901 -3.2910
  118RES   H23333227   2.427   0.761   7.611  1.8530  0.6682 -0.5181
  118RES   H23433228   2.492   0.781   7.377 -0.1793 -0.6630  0.1189
  118RES   H23533229   2.204   0.716   7.419 -0.5342 -0.0386 -1.9732
  118RES   H23633230   2.338   0.603   7.433  1.9389  0.9173  1.2264
  118RES   H23733231   2.190   0.480   7.295  0.2730  1.4132  0.8468
  118RES   H23833232   2.157   0.526   7.130  1.9028 -1.3755 -0.6572
  118RES   H23933233   2.082   0.611   7.258  0.7694  0.9722  0.1791
  118RES   O24033234   2.353   0.923   7.334 -0.3397  0.4690 -0.1383
  118RES   C24133235   2.445   1.003   7.259 -0.4575 -0.9004  0.0292
  118RES   C24233236   2.395   1.143   7.228 -0.1111  0.4888  0.0614
  118RES   C24333237   2.488   1.223   7.134 -0.0135 -0.1387  0.1689
  118RES   O24433238   2.455   1.360   7.132 -0.0219 -0.0429 -0.2652
  118RES   C24533239   2.545   1.441   7.054  0.0664  0.6825 -0.2493
  118RES   H24633240   2.477   0.945   7.172  0.8306 -0.1634  0.0005
  118RES   H24733241   2.535   1.007   7.320  0.2073 -1.8428 -0.8702
  118RES   H24833242   2.388   1.206   7.317  0.4222 -0.1651  0.5717
  118RES   H24933243   2.590   1.209   7.169  0.0550 -0.8533 -0.3055
  118RES   H25033244   2.489   1.173   7.037  1.2498 -1.1887  0.7005
  118RES   H25133245   2.549   1.410   6.950 -1.8106 -1.9528  0.4001
  118RES   H25233246   2.644   1.446   7.099  1.5176 -0.8785 -3.1430
  118RES   H25333247   2.508   1.543   7.064 -0.3741  0.4956  0.0312
  118RES   O25433248   2.270   1.142   7.167  0.1041  0.1468 -0.7243
  118RES   C25533249   2.153   1.123   7.249  0.1449  0.2352  0.3463
  118RES   C25633250   2.018   1.113   7.170 -0.6836 -0.3004  0.0507
  118RES   C25733251   1.898   1.075   7.249  0.2630 -0.0707  0.0376
  118RES   O25833252   1.888   1.152   7.368 -0.0792 -0.1548  0.0014
  118RES   C25933253   1.771   1.112   7.438 -0.2948 -0.6613  0.3941
  118RES   H26033254   2.152   1.039   7.318  0.5754 -0.7992 -0.8810
  118RES   H26133255   2.133   1.212   7.309 -0.9390 -0.7461  1.4583
  118RES   H26233256   2.032   1.037   7.093  0.9345  1.5214 -1.4925
  118RES   H26333257   1.811   1.077   7.183  1.7378  1.2944 -1.9285
  118RES   H26433258   1.914   0.973   7.282  1.2715  0.1382  0.2058
  118RES   H26533259   1.766   1.166   7.533 -2.1294  1.4277 -0.8427
  118RES   H26633260   1.761   1.006   7.462 -0.0757 -0.9138 -0.5989
  118RES   H26733261   1.684   1.151   7.384  0.1081 -0.4252 -0.0806
  118RES   O26833262   1.981   1.234   7.108  0.3211  0.5219  0.2434
  118RES   C26933263   2.062   1.280   7.002  0.4056 -0.3991 -0.3314
  118RES   C27033264   2.010   1.403   6.933 -1.0198 -0.1920 -0.4937
  118RES   C27133265   1.860   1.394   6.894 -0.7281 -0.4086  0.0406
  118RES   O27233266   1.825   1.509   6.811  0.0235  0.1542 -0.3851
  118RES   C27333267   1.692   1.510   6.765  0.5690 -0.7705 -0.3230
  118RES   H27433268   2.081   1.201   6.930  0.0837  0.3766 -1.2822
  118RES   H27533269   2.162   1.312   7.032  0.0872  3.5984 -3.2240
  118RES   H27633270   2.018   1.480   7.010 -1.1926  0.0217 -0.6868
  118RES   H27733271   1.791   1.395   6.978 -0.9140  0.3908 -0.1198
  118RES   H27833272   1.848   1.304   6.832  2.1818 -2.3752  2.2038
  118RES   H27933273   1.672   1.600   6.706  0.7825 -2.0374 -2.3795
  118RES   H28033274   1.632   1.515   6.855  2.0541 -3.7500  0.8861
  118RES   H28133275   1.654   1.422   6.714  0.8508 -0.7507 -0.5682
  118RES   H28233276   2.085   1.425   6.857  0.9262 -3.0372  0.5215
  119RES     O133277   1.980   3.476   4.159  0.0973  0.0527  0.3704
  119RES     C233278   2.093   3.406   4.107 -0.2786 -0.7703  0.4286
  119RES     C333279   2.204   3.358   4.204 -0.4826  0.7388 -0.4820
  119RES     C433280   2.243   3.208   4.185  0.0056 -0.3638 -0.0397
  119RES     O533281   2.359   3.176   4.256 -0.0391 -0.1075 -0.5236
  119RES     C633282   2.384   3.035   4.240  0.1679 -0.6935  0.0183
  119RES     H733283   2.062   3.326   4.040 -1.7070 -0.9710  1.2977
  119RES     H833284   2.141   3.463   4.028 -1.2192  2.5778  2.1650
  119RES     H933285   2.163   3.389   4.301 -3.5018 -3.0592 -0.4444
  119RES    H1033286   2.267   3.178   4.083 -0.3221 -3.8148  0.8287
  119RES    H1133287   2.160   3.145   4.218 -0.0988  0.3928  1.2044
  119RES    H1233288   2.304   2.964   4.262 -0.8187  1.3371  3.2081
  119RES    H1333289   2.415   3.019   4.136  0.5369  1.8576 -0.2778
  119RES    H1433290   2.466   3.013   4.307  0.9203  0.6643 -0.4541
  119RES    H1533291   1.996   3.568   4.145  0.5646  0.2326  1.9422
  119RES    O1633292   2.324   3.423   4.162  0.5315 -0.0550 -0.1271
  119RES    C1733293   2.359   3.552   4.201  0.3057 -0.9783  0.4996
  119RES    C1833294   2.450   3.613   4.095  0.8255  0.2162  0.1984
  119RES    C1933295   2.484   3.758   4.121 -0.1775  0.1699 -0.2458
  119RES    O2033296   2.526   3.817   4.002  0.3093  0.3298 -0.6443
  119RES    C2133297   2.530   3.964   4.006  0.0073 -0.1827 -0.4618
  119RES    H2233298   2.393   3.548   4.304  0.2854 -0.0440  0.5442
  119RES    H2333299   2.266   3.609   4.210  1.4203  1.1080 -0.7106
  119RES    H2433300   2.408   3.594   3.996  0.9706 -1.4336  0.4489
  119RES    H2533301   2.394   3.807   4.156 -0.7941  0.5314 -2.2943
  119RES    H2633302   2.564   3.775   4.193 -0.5292  0.3583  0.1032
  119RES    H2733303   2.590   3.998   4.091 -0.3336 -0.0998 -0.2551
  119RES    H2833304   2.431   4.005   4.023  0.7787  1.1805  0.8686
  119RES    H2933305   2.571   4.000   3.911  3.2014 -1.0963  0.5183
  119RES    O3033306   2.573   3.540   4.112  0.1050 -0.0074 -0.5076
  119RES    C3133307   2.635   3.504   3.985 -0.1020 -0.6832  0.7866
  119RES    C3233308   2.583   3.367   3.917 -0.3245 -0.1454  1.0130
  119RES    C3333309   2.692   3.275   3.857  0.4774  0.7297  0.8651
  119RES    O3433310   2.635   3.139   3.846 -0.5451  0.4318 -0.6032
  119RES    C3533311   2.742   3.043   3.819 -0.0543  0.8958 -0.5217
  119RES    H3633312   2.648   3.585   3.912  2.4688  0.3151  2.2868
  119RES    H3733313   2.736   3.482   4.020 -0.4348 -2.3312  0.7527
  119RES    H3833314   2.539   3.302   3.992 -1.8728 -0.9402 -0.5432
  119RES    H3933315   2.778   3.270   3.924  0.5724 -0.9549  0.6321
  119RES    H4033316   2.732   3.309   3.762 -1.1565  0.6846  0.1496
  119RES    H4133317   2.696   2.944   3.825 -0.7073  1.2004 -0.4334
  119RES    H4233318   2.823   3.030   3.891  0.3962 -0.2807 -1.2312
  119RES    H4333319   2.782   3.060   3.719  0.3736  0.6860 -0.3865
  119RES    O4433320   2.497   3.393   3.807 -0.2364 -0.3111 -0.1348
  119RES    C4533321   2.362   3.347   3.823  0.2049  0.1747 -0.8461
  119RES    C4633322   2.280   3.371   3.695  0.7227 -0.0789 -0.1448
  119RES    C4733323   2.169   3.263   3.681 -0.1670 -0.5199 -0.1709
  119RES    O4833324   2.081   3.263   3.793  0.1986 -0.6562 -0.3981
  119RES    C4933325   1.949   3.291   3.757  0.2951  0.8630  0.1827
  119RES    H5033326   2.313   3.393   3.908  0.1653  0.5262 -1.0565
  119RES    H5133327   2.365   3.240   3.841 -0.8684  0.7159  2.8758
  119RES    H5233328   2.351   3.359   3.614  1.3763 -1.5511  0.6389
  119RES    H5333329   2.126   3.266   3.581  0.4229  1.4535 -0.3919
  119RES    H5433330   2.221   3.167   3.684  2.4181  0.8701  1.8928
  119RES    H5533331   1.938   3.386   3.706 -2.5687  2.1345  2.9479
  119RES    H5633332   1.891   3.291   3.850 -0.3901 -1.2077 -0.2127
  119RES    H5733333   1.905   3.207   3.702 -0.1275  1.6176 -0.6424
  119RES    O5833334   2.215   3.497   3.691 -0.0144  0.3547  0.8907
  119RES    C5933335   2.298   3.605   3.651  0.1810 -0.9014 -0.0227
  119RES    C6033336   2.209   3.731   3.663  0.5598  0.0969 -0.0399
  119RES    C6133337   2.279   3.850   3.601 -0.2114 -0.4984  0.4601
  119RES    O6233338   2.198   3.965   3.604 -0.8207  0.0131  0.0137
  119RES    C6333339   2.274   4.082   3.600  0.1943  0.6245  0.1060
  119RES    H6433340   2.338   3.602   3.550  0.6992 -2.8479  0.2233
  119RES    H6533341   2.384   3.614   3.718  0.3825  1.0874 -0.5162
  119RES    H6633342   2.120   3.718   3.602 -0.6598 -0.0106  1.7426
  119RES    H6733343   2.374   3.862   3.653  1.3566 -0.9947 -2.1993
  119RES    H6833344   2.297   3.835   3.494 -2.9422  1.3412 -0.3010
  119RES    H6933345   2.224   4.179   3.605  0.1176  0.5344  1.4003
  119RES    H7033346   2.319   4.072   3.502  0.6621 -1.1357  0.4900
  119RES    H7133347   2.352   4.075   3.676  0.4720  0.0778 -0.2287
  119RES    O7233348   2.190   3.742   3.805  0.3880 -0.3130 -0.4218
  119RES    C7333349   2.116   3.850   3.859  0.0365  0.4657  0.1876
  119RES    C7433350   1.969   3.874   3.810  0.5738  0.1511  0.2697
  119RES    C7533351   1.917   4.019   3.867  0.3856  0.7503 -0.9315
  119RES    O7633352   1.806   4.070   3.800  0.3560  0.6619  0.3906
  119RES    C7733353   1.681   4.005   3.826  0.2883 -0.2376 -0.2772
  119RES    H7833354   2.119   3.835   3.967  0.9472  0.2564  0.1320
  119RES    H7933355   2.178   3.934   3.827  0.1529  0.2345 -0.1905
  119RES    H8033356   1.965   3.869   3.701  0.3822  1.0733  0.2248
  119RES    H8133357   2.002   4.080   3.838  1.7395 -0.5124  0.3104
  119RES    H8233358   1.927   4.032   3.975 -1.4271  1.0570 -0.7912
  119RES    H8333359   1.647   3.991   3.929  0.6942  0.4565 -0.0434
  119RES    H8433360   1.665   3.916   3.766  2.1972  0.2121 -1.4827
  119RES    H8533361   1.607   4.077   3.789  1.0127  0.0685 -1.1351
  119RES    O8633362   1.890   3.779   3.870 -0.0389  0.6284  0.0769
  119RES    C8733363   1.888   3.651   3.803  0.4794  0.1087 -0.1689
  119RES    C8833364   1.735   3.607   3.762 -0.3925  0.2432 -0.3780
  119RES    C8933365   1.641   3.607   3.892  0.3100  0.1030  0.1410
  119RES    O9033366   1.527   3.531   3.855 -1.0067 -0.5375 -0.5390
  119RES    C9133367   1.429   3.522   3.951  0.1526 -0.0776 -0.1216
  119RES    H9233368   1.950   3.639   3.715  1.8542 -0.4717  0.8686
  119RES    H9333369   1.919   3.574   3.873  2.4234  0.9837 -0.0469
  119RES    H9433370   1.730   3.513   3.709 -1.7734  0.0268  0.1152
  119RES    H9533371   1.694   3.543   3.962  2.1318  3.1629  1.7048
  119RES    H9633372   1.631   3.707   3.936 -2.6586 -0.5533  1.0078
  119RES    H9733373   1.371   3.614   3.954  1.1410  0.5581 -0.1985
  119RES    H9833374   1.363   3.437   3.937 -0.1634 -0.1534  1.7120
  119RES    H9933375   1.476   3.507   4.048  1.6199 -0.6695 -0.9047
  119RES   O10033376   1.693   3.697   3.663  0.7554  0.1468  0.3640
  119RES   C10133377   1.560   3.678   3.606  0.2670 -0.4107  0.2951
  119RES   C10233378   1.535   3.801   3.511  0.0660  0.2047 -0.1492
  119RES   C10333379   1.397   3.786   3.445  0.3153 -0.2651  1.0487
  119RES   O10433380   1.366   3.894   3.350  0.1908  0.0366  0.1899
  119RES   C10533381   1.271   3.861   3.260  0.7339 -0.6069  0.1574
  119RES   H10633382   1.482   3.689   3.681  0.3838 -0.3389  0.4073
  119RES   H10733383   1.557   3.583   3.553  0.9710 -0.5744  0.5498
  119RES   H10833384   1.553   3.896   3.562  3.4018 -0.1425 -0.5754
  119RES   H10933385   1.315   3.791   3.517  0.3361  0.9140  1.0097
  119RES   H11033386   1.393   3.681   3.416 -2.2617  0.3215 -0.8843
  119RES   H11133387   1.216   3.946   3.221  0.3347 -1.7850 -1.9605
  119RES   H11233388   1.190   3.810   3.312  1.7850  0.6249  3.1380
  119RES   H11333389   1.311   3.796   3.181  1.7072 -0.5711  0.6062
  119RES   O11433390   1.625   3.782   3.398  0.1918  0.5125  0.0325
  119RES   C11533391   1.731   3.876   3.414  0.2964  0.1545 -0.1661
  119RES   C11633392   1.839   3.848   3.307  0.6879  0.2351  0.4566
  119RES   C11733393   1.920   3.974   3.254  0.3014 -0.2967  0.9307
  119RES   O11833394   1.973   3.938   3.127  0.1244 -0.2904 -0.5853
  119RES   C11933395   2.047   4.040   3.068 -0.1443  0.3069  0.7987
  119RES   H12033396   1.703   3.980   3.401 -0.1800 -0.2703 -2.7791
  119RES   H12133397   1.782   3.868   3.510  1.2135 -1.3717 -0.7572
  119RES   H12233398   1.787   3.796   3.227  0.7027  1.0162 -0.0621
  119RES   H12333399   1.848   4.056   3.250 -0.5627 -1.1142 -0.5369
  119RES   H12433400   1.999   4.007   3.322  2.7335 -0.8487 -1.5562
  119RES   H12533401   2.131   4.075   3.127 -0.9458  1.8527  1.0412
  119RES   H12633402   1.980   4.125   3.054  0.7845  1.2769  2.1143
  119RES   H12733403   2.093   4.009   2.974  1.5130  0.9376  1.3986
  119RES   O12833404   1.939   3.758   3.374 -0.2596 -0.2434  0.2254
  119RES   C12933405   2.020   3.683   3.277  0.5653  0.7853 -0.3581
  119RES   C13033406   2.049   3.543   3.339  0.3328  0.9848  0.7323
  119RES   C13133407   2.177   3.474   3.295 -0.2229 -0.5006 -0.8099
  119RES   O13233408   2.178   3.337   3.327  0.0296 -0.2465 -0.2448
  119RES   C13333409   2.300   3.273   3.308  0.3426  0.1417 -0.1909
  119RES   H13433410   1.966   3.674   3.182  0.4361 -0.6471 -0.1676
  119RES   H13533411   2.116   3.729   3.254  2.6613 -2.3147  1.7921
  119RES   H13633412   2.038   3.533   3.447  0.3358  0.2287  0.6659
  119RES   H13733413   2.267   3.517   3.339 -1.3717  1.4005 -0.2518
  119RES   H13833414   2.186   3.463   3.187  1.3266 -2.8045 -0.4859
  119RES   H13933415   2.268   3.170   3.328 -2.0855  0.6470 -1.3237
  119RES   H14033416   2.336   3.271   3.205 -5.3687  1.1556 -2.3364
  119RES   H14133417   2.385   3.295   3.373 -0.8054 -0.5254  1.5719
  119RES   O14233418   1.945   3.457   3.287  0.6474  0.6196 -0.4454
  119RES   C14333419   1.810   3.482   3.327 -0.6633  0.5041  0.0303
  119RES   C14433420   1.731   3.363   3.279 -1.0418 -0.3042  0.0391
  119RES   C14533421   1.582   3.407   3.292 -0.2026  0.1546  0.0350
  119RES   O14633422   1.509   3.306   3.232 -0.0707 -0.3434  0.7396
  119RES   C14733423   1.364   3.334   3.220  0.1976 -0.6354 -0.2156
  119RES   H14833424   1.806   3.483   3.436 -0.2232  0.1328  0.0512
  119RES   H14933425   1.773   3.573   3.281 -0.4781  0.1151 -0.9168
  119RES   H15033426   1.756   3.330   3.178  1.6660  1.6852  0.0244
  119RES   H15133427   1.557   3.497   3.235 -0.8695 -0.8897 -1.3664
  119RES   H15233428   1.552   3.423   3.396 -0.7985  1.7717 -0.3688
  119RES   H15333429   1.341   3.409   3.145  0.0304 -0.0213  0.4424
  119RES   H15433430   1.309   3.361   3.311 -0.5374 -0.1270 -0.8079
  119RES   H15533431   1.309   3.246   3.186 -0.8481  0.2048 -0.6979
  119RES   O15633432   1.746   3.261   3.371  0.0401  0.1091 -0.1433
  119RES   C15733433   1.868   3.192   3.360  0.2712  0.6816  0.3075
  119RES   C15833434   1.849   3.055   3.424 -0.3015 -0.1652  0.1170
  119RES   C15933435   1.983   2.994   3.453  1.1202 -0.2365 -0.2986
  119RES   O16033436   1.953   2.880   3.528 -0.3243 -0.3017  0.1029
  119RES   C16133437   2.065   2.799   3.556  0.2130 -0.5369  0.0170
  119RES   H16233438   1.905   3.181   3.258  1.9328 -0.9205  1.0560
  119RES   H16333439   1.935   3.246   3.426  0.1365 -0.1271  1.1198
  119RES   H16433440   1.794   3.050   3.518  4.2322  0.5141  2.9653
  119RES   H16533441   2.039   2.972   3.362  0.9125 -2.4348  0.0906
  119RES   H16633442   2.047   3.064   3.506  1.4139 -0.0976 -0.8325
  119RES   H16733443   2.157   2.844   3.592 -0.4499  0.9148 -0.0663
  119RES   H16833444   2.091   2.738   3.470 -1.7819 -3.0449  1.1079
  119RES   H16933445   2.041   2.721   3.629 -0.0954 -1.6129 -1.2162
  119RES   O17033446   1.794   2.971   3.325 -0.0241 -0.0922  0.5273
  119RES   C17133447   1.650   2.973   3.323 -0.1610  0.2748 -0.0269
  119RES   C17233448   1.580   2.903   3.209  0.9535 -0.9913 -0.0290
  119RES   C17333449   1.427   2.926   3.219  0.1121 -0.3857  0.4841
  119RES   O17433450   1.374   2.906   3.092 -0.2784  0.0582 -0.3628
  119RES   C17533451   1.234   2.916   3.086 -0.6995 -0.7249 -0.1599
  119RES   H17633452   1.611   3.074   3.320  0.2900  0.4679  0.4614
  119RES   H17733453   1.612   2.928   3.415  3.9275 -1.9208  0.7108
  119RES   H17833454   1.617   2.950   3.118  2.8663 -0.4087  1.0288
  119RES   H17933455   1.375   2.869   3.296 -3.0932  2.9726  0.9280
  119RES   H18033456   1.413   3.028   3.254  1.4800  0.0259 -0.1295
  119RES   H18133457   1.214   2.894   2.981 -0.7815  2.1256 -0.7745
  119RES   H18233458   1.199   3.013   3.120 -0.1086 -0.6752  0.3156
  119RES   H18333459   1.190   2.839   3.148  1.4906 -1.5472  0.4334
  119RES   O18433460   1.592   2.764   3.222  0.5198 -0.1960  0.8186
  119RES   C18533461   1.704   2.704   3.157 -0.3494 -0.4672 -0.2465
  119RES   C18633462   1.806   2.634   3.261  0.3173 -0.3640 -0.4069
  119RES   C18733463   1.936   2.576   3.210  0.8752  0.0617 -0.4335
  119RES   O18833464   2.028   2.543   3.312  0.1015  0.2318 -0.2104
  119RES   C18933465   2.145   2.479   3.267 -0.0137  0.3978  0.2422
  119RES   H19033466   1.774   2.772   3.109 -1.6758 -2.2296 -4.9736
  119RES   H19133467   1.677   2.629   3.083  2.6940  0.2226 -2.1449
  119RES   H19233468   1.832   2.711   3.333  1.0013  0.0425 -1.0665
  119RES   H19333469   1.987   2.649   3.146  1.5320 -0.2249 -0.2468
  119RES   H19433470   1.915   2.492   3.144  0.9389 -2.1016  2.2471
  119RES   H19533471   2.192   2.420   3.346 -0.2372  0.3704  0.3557
  119RES   H19633472   2.130   2.414   3.181 -0.8887 -0.0621  0.7314
  119RES   H19733473   2.214   2.559   3.241  0.4466 -0.2768 -0.6407
  119RES   O19833474   1.726   2.537   3.319 -0.1006  0.1515 -0.0640
  119RES   C19933475   1.760   2.488   3.445 -0.0014  0.0491 -0.7543
  119RES   C20033476   1.659   2.534   3.548  0.3415  0.0937 -0.2547
  119RES   C20133477   1.706   2.517   3.689 -0.6373  0.0869 -0.8421
  119RES   O20233478   1.630   2.604   3.768  0.2539 -0.1387  0.0429
  119RES   C20333479   1.628   2.581   3.903  0.6085  0.5421  0.0997
  119RES   H20433480   1.856   2.517   3.487 -0.6402  1.5479 -0.2823
  119RES   H20533481   1.755   2.380   3.450 -0.0804  0.1739  2.7804
  119RES   H20633482   1.630   2.638   3.535 -2.5433 -0.8207 -1.6498
  119RES   H20733483   1.691   2.413   3.719  1.3601  0.2764  0.9419
  119RES   H20833484   1.808   2.553   3.694 -0.8668  0.4762  1.6972
  119RES   H20933485   1.614   2.477   3.933 -0.6500  1.1299  1.5486
  119RES   H21033486   1.544   2.642   3.934 -1.4822 -1.5034 -1.3955
  119RES   H21133487   1.719   2.620   3.948  0.6807  0.6530 -0.1386
  119RES   O21233488   1.544   2.455   3.533 -0.1169  0.2965  0.2618
  119RES   C21333489   1.434   2.500   3.458 -0.2660  0.1251 -0.2203
  119RES   C21433490   1.316   2.418   3.521  0.8322 -0.1505 -0.3959
  119RES   C21533491   1.198   2.422   3.418  0.0883 -0.1909 -0.7492
  119RES   O21633492   1.087   2.347   3.466  0.4982  0.3367  0.0447
  119RES   C21733493   0.964   2.378   3.402  0.2848  0.0931 -0.2886
  119RES   H21833494   1.451   2.510   3.351 -0.5238  1.2143 -0.1709
  119RES   H21933495   1.412   2.602   3.490 -1.0707 -0.4102  0.9853
  119RES   H22033496   1.342   2.312   3.528 -2.2321 -0.8942  0.6395
  119RES   H22133497   1.170   2.525   3.396 -1.0320 -0.0037  1.4077
  119RES   H22233498   1.238   2.371   3.330  0.0649  0.9132 -1.4011
  119RES   H22333499   0.928   2.480   3.419 -1.3487 -0.2483 -1.5799
  119RES   H22433500   0.893   2.308   3.445  2.1117 -0.6766  1.5348
  119RES   H22533501   0.968   2.355   3.296  1.0421  0.0330 -0.2500
  119RES   O22633502   1.272   2.476   3.641 -0.1806  0.4302  0.2607
  119RES   C22733503   1.300   2.412   3.766  0.5279 -0.0337  0.1064
  119RES   C22833504   1.219   2.492   3.876 -0.3306  0.1503  0.9464
  119RES   C22933505   1.195   2.399   3.998  1.0921  0.5260 -0.1805
  119RES   O23033506   1.087   2.446   4.083  0.3598 -0.2691  0.0309
  119RES   C23133507   1.129   2.503   4.208 -0.0906 -0.1479 -0.1083
  119RES   H23233508   1.403   2.436   3.792  0.5246  0.0496  0.0406
  119RES   H23333509   1.289   2.304   3.761  2.1846 -0.0806 -3.8960
  119RES   H23433510   1.120   2.525   3.847  0.9488  2.3064 -1.2000
  119RES   H23533511   1.290   2.390   4.052  0.4916 -0.7888  0.6720
  119RES   H23633512   1.159   2.304   3.958  0.2494  1.0193 -0.5939
  119RES   H23733513   1.207   2.448   4.262  0.5999  0.1358 -0.8065
  119RES   H23833514   1.044   2.514   4.275  1.1078 -0.0861  1.4520
  119RES   H23933515   1.174   2.601   4.190 -2.0997  0.4868 -1.7903
  119RES   O24033516   1.293   2.599   3.928  0.1899 -0.7756  0.1203
  119RES   C24133517   1.298   2.703   3.826 -0.3074 -0.4322  0.3120
  119RES   C24233518   1.340   2.839   3.880  0.5037 -0.4739 -0.2667
  119RES   C24333519   1.424   2.915   3.774  0.0320  0.1899 -0.4275
  119RES   O24433520   1.478   3.036   3.819  0.4978  0.3520 -0.0357
  119RES   C24533521   1.514   3.128   3.715  0.1094  0.3653  0.0174
  119RES   H24633522   1.205   2.712   3.770 -0.4430  0.5260  0.6752
  119RES   H24733523   1.377   2.666   3.762 -1.6162  0.1351 -1.6719
  119RES   H24833524   1.400   2.832   3.970 -0.9442  2.1743  0.9565
  119RES   H24933525   1.511   2.855   3.749 -0.4653 -0.3705 -0.8189
  119RES   H25033526   1.363   2.934   3.685 -0.7453  0.9542  0.2553
  119RES   H25133527   1.535   3.082   3.618  0.2377  0.9516 -0.2330
  119RES   H25233528   1.598   3.192   3.742  1.4175 -1.6713  0.8998
  119RES   H25333529   1.430   3.195   3.695  0.8579  1.8196  1.6233
  119RES   O25433530   1.222   2.916   3.899 -0.4993  0.4857  0.2081
  119RES   C25533531   1.134   2.869   3.995 -0.3963  0.1830  0.3902
  119RES   C25633532   1.060   2.993   4.058  0.1675  0.2261 -0.1260
  119RES   C25733533   0.924   2.961   4.126 -0.2707  0.2895 -0.2563
  119RES   O25833534   0.843   2.925   4.013 -0.0869 -0.0454 -0.4972
  119RES   C25933535   0.705   2.915   4.046  0.7288 -0.0282  0.3911
  119RES   H26033536   1.059   2.799   3.958  1.8279 -3.2144  2.0651
  119RES   H26133537   1.194   2.825   4.075  0.3683 -0.8799 -0.7629
  119RES   H26233538   1.052   3.075   3.987 -1.8626 -0.4499 -0.7107
  119RES   H26333539   0.941   2.871   4.184 -0.3667  0.4662  0.0488
  119RES   H26433540   0.889   3.036   4.197 -0.5626  1.2444 -1.3890
  119RES   H26533541   0.665   3.001   4.099 -2.8097 -1.7447  0.6539
  119RES   H26633542   0.689   2.827   4.109  0.7628  1.3379  2.3435
  119RES   H26733543   0.643   2.888   3.961  0.0244 -0.0243  0.8992
  119RES   O26833544   1.138   3.056   4.161 -0.6369 -0.0135  0.5933
  119RES   C26933545   1.275   3.080   4.127 -0.8484 -0.1899 -0.6007
  119RES   C27033546   1.334   3.190   4.226  0.2098 -0.7801  0.5268
  119RES   C27133547   1.242   3.316   4.239  0.5205  0.4481 -0.1063
  119RES   O27233548   1.321   3.438   4.243  0.5069  0.4769 -0.9308
  119RES   C27333549   1.252   3.558   4.266  0.5406 -0.3528  0.6163
  119RES   H27433550   1.290   3.120   4.026 -1.2889  0.2257 -0.5047
  119RES   H27533551   1.331   2.988   4.145 -2.1846 -1.7566 -3.9188
  119RES   H27633552   1.349   3.149   4.326  1.2535 -0.0487  0.6729
  119RES   H27733553   1.197   3.291   4.335 -1.5116 -1.2644 -1.4577
  119RES   H27833554   1.152   3.321   4.178  0.9701  2.2518 -0.6469
  119RES   H27933555   1.154   3.571   4.219  0.2818  1.5315  1.6312
  119RES   H28033556   1.310   3.647   4.243 -0.9697  0.3723 -0.4972
  119RES   H28133557   1.240   3.569   4.374 -2.3495  1.6093  0.1592
  119RES   H28233558   1.437   3.207   4.197  0.2145 -0.8658  0.4929
  120RES     O133559   4.283   6.750   7.380  0.6012 -0.5612  0.2196
  120RES     C233560   4.306   6.795   7.246  0.2483  0.3581 -0.2635
  120RES     C333561   4.247   6.689   7.144  1.1090 -0.8420  0.6165
  120RES     C433562   4.216   6.754   7.002 -0.0471  0.4041 -0.0472
  120RES     O533563   4.316   6.838   6.951  0.0607  0.1626 -0.2610
  120RES     C633564   4.433   6.767   6.914  0.2031 -0.0511  0.8138
  120RES     H733565   4.250   6.889   7.246  1.9958  1.4576  1.8198
  120RES     H833566   4.412   6.819   7.233  0.5533  0.5445  2.3708
  120RES     H933567   4.148   6.654   7.173  0.9254 -2.3701 -1.7164
  120RES    H1033568   4.135   6.825   7.019 -1.2103 -0.5774 -1.3522
  120RES    H1133569   4.192   6.667   6.940 -2.1236  1.0630 -0.2082
  120RES    H1233570   4.496   6.853   6.893  2.0336 -1.3145  1.0270
  120RES    H1333571   4.490   6.709   6.987 -0.9453 -1.6653  0.4643
  120RES    H1433572   4.421   6.711   6.821 -0.4151  0.3944  0.6196
  120RES    H1533573   4.265   6.820   7.441  1.5860  0.8821 -1.1339
  120RES    O1633574   4.325   6.573   7.119  0.1138  0.6302  0.5894
  120RES    C1733575   4.336   6.495   7.236  0.1942  0.9282  0.0400
  120RES    C1833576   4.409   6.363   7.213 -0.1202 -0.0060  0.1723
  120RES    C1933577   4.476   6.307   7.339  0.2305 -0.4394 -0.3346
  120RES    O2033578   4.583   6.401   7.382  0.3639  0.1494 -0.0029
  120RES    C2133579   4.634   6.356   7.517 -0.0432  0.2061  0.5739
  120RES    H2233580   4.240   6.475   7.284 -1.2727  1.2491 -2.6706
  120RES    H2333581   4.402   6.549   7.304 -0.5236  1.6572  0.1690
  120RES    H2433582   4.495   6.388   7.150  2.2766 -1.0592  2.8818
  120RES    H2533583   4.395   6.291   7.409  0.4936  1.7187  0.5060
  120RES    H2633584   4.517   6.209   7.314 -0.8392 -1.3119  1.2661
  120RES    H2733585   4.698   6.441   7.539  0.6306 -0.2797  0.5210
  120RES    H2833586   4.697   6.271   7.492 -1.4958 -0.6415 -0.2618
  120RES    H2933587   4.557   6.337   7.591  2.3718  1.3172  3.4849
  120RES    O3033588   4.327   6.258   7.158  0.2145 -0.1374  0.4742
  120RES    C3133589   4.279   6.265   7.027  0.4770 -0.2017  0.5029
  120RES    C3233590   4.221   6.133   6.979 -0.2327  0.0274 -0.1484
  120RES    C3333591   4.114   6.080   7.070 -0.1342 -0.0571 -1.0146
  120RES    O3433592   4.045   5.969   7.019  0.1577  0.2748  0.3210
  120RES    C3533593   3.926   5.924   7.084  0.0477 -0.5789 -0.1195
  120RES    H3633594   4.210   6.348   7.014  3.1562  1.8288 -1.2041
  120RES    H3733595   4.358   6.282   6.955 -1.0092  1.7762 -0.6862
  120RES    H3833596   4.180   6.154   6.880 -0.3427 -1.9822 -0.5572
  120RES    H3933597   4.032   6.150   7.057  0.0021  0.0448 -1.3438
  120RES    H4033598   4.151   6.074   7.172 -1.6414  1.2262 -0.3738
  120RES    H4133599   3.879   5.841   7.031 -1.2398 -0.8339  1.4117
  120RES    H4233600   3.849   6.000   7.097 -1.4427 -1.9147 -0.9533
  120RES    H4333601   3.956   5.888   7.182 -0.0039 -0.1852  0.0416
  120RES    O4433602   4.328   6.039   6.974  0.3164  0.3154  0.2973
  120RES    C4533603   4.372   6.005   6.848 -0.1068  0.3130 -0.1285
  120RES    C4633604   4.482   5.890   6.857 -0.3092 -0.3145 -0.5580
  120RES    C4733605   4.515   5.823   6.721 -0.6083  0.2224  0.0603
  120RES    O4833606   4.603   5.711   6.736 -0.0646 -0.2178  0.1602
  120RES    C4933607   4.536   5.588   6.775 -0.1673 -0.6318 -0.6490
  120RES    H5033608   4.408   6.095   6.798  0.4145 -0.7932 -1.7787
  120RES    H5133609   4.286   5.970   6.791  1.6371 -1.9796 -1.4113
  120RES    H5233610   4.465   5.805   6.923 -1.0402 -0.1576 -0.5424
  120RES    H5333611   4.427   5.798   6.661  0.3725 -1.0265 -0.8818
  120RES    H5433612   4.577   5.896   6.669 -0.2342 -0.9121 -1.1142
  120RES    H5533613   4.428   5.598   6.780 -0.0951 -0.5947  1.1854
  120RES    H5633614   4.566   5.553   6.874  1.6435  0.2588 -0.8454
  120RES    H5733615   4.554   5.508   6.704  1.3253 -1.1599  0.2846
  120RES    O5833616   4.610   5.941   6.886 -0.0923  0.4320 -0.3375
  120RES    C5933617   4.624   6.000   7.013 -0.4488 -0.1712 -0.6506
  120RES    C6033618   4.770   6.056   7.028 -0.2719  0.4366 -0.1075
  120RES    C6133619   4.800   6.072   7.173 -0.1662 -0.2855  0.0795
  120RES    O6233620   4.845   5.950   7.233  0.0778 -0.2781 -0.3979
  120RES    C6333621   4.870   5.959   7.374  0.2099  0.2584 -0.3485
  120RES    H6433622   4.596   5.931   7.092  0.7218  0.5802  0.4467
  120RES    H6533623   4.563   6.089   7.025 -0.1769  0.1489 -1.5711
  120RES    H6633624   4.834   5.979   6.984 -2.1790  0.0358 -2.3082
  120RES    H6733625   4.858   6.162   7.196 -1.0819 -0.0673  1.6206
  120RES    H6833626   4.709   6.090   7.230 -1.1303 -2.1394 -0.8511
  120RES    H6933627   4.792   6.001   7.438  0.6354  0.0781  0.2984
  120RES    H7033628   4.962   6.016   7.389 -0.5532  1.4207 -0.0525
  120RES    H7133629   4.895   5.858   7.406  0.7398  0.6199  0.4091
  120RES    O7233630   4.789   6.191   6.975 -0.4971  0.5598 -0.2032
  120RES    C7333631   4.790   6.202   6.831 -0.5877 -0.4188 -0.3988
  120RES    C7433632   4.666   6.266   6.775  0.8646  0.1490  0.1304
  120RES    C7533633   4.661   6.221   6.630  0.6825  0.0066 -0.2660
  120RES    O7633634   4.538   6.255   6.565 -0.2293 -0.5375 -0.1874
  120RES    C7733635   4.527   6.202   6.433 -0.2809  0.6230  0.8644
  120RES    H7833636   4.884   6.252   6.810 -1.1189 -0.1943 -2.3307
  120RES    H7933637   4.807   6.110   6.775  0.6620  0.2346 -1.1000
  120RES    H8033638   4.575   6.234   6.826 -0.9152 -0.9840 -3.5546
  120RES    H8133639   4.663   6.113   6.623  0.0863 -0.2250  2.4946
  120RES    H8233640   4.742   6.261   6.569  0.7468  0.4831  0.1259
  120RES    H8333641   4.597   6.247   6.363  0.0169 -1.1046  0.0286
  120RES    H8433642   4.427   6.208   6.389 -0.0081  0.4566  0.2235
  120RES    H8533643   4.552   6.096   6.433 -1.6822  0.2829  0.8966
  120RES    O8633644   4.684   6.404   6.783 -0.8244  0.0293  0.2044
  120RES    C8733645   4.639   6.462   6.905 -0.5023  0.0980  0.1656
  120RES    C8833646   4.729   6.584   6.942  0.4771 -0.1908 -0.7490
  120RES    C8933647   4.876   6.530   6.957  0.5448  0.6817  0.6162
  120RES    O9033648   4.954   6.617   7.028  0.4722  0.0534 -0.1120
  120RES    C9133649   5.084   6.579   7.056 -0.0159  0.7233 -0.2428
  120RES    H9233650   4.534   6.490   6.908 -1.2556 -2.5750  0.2798
  120RES    H9333651   4.639   6.392   6.988 -2.3879  0.7481  0.7333
  120RES    H9433652   4.689   6.617   7.039 -2.0567 -1.1586 -1.4234
  120RES    H9533653   4.873   6.434   7.008  0.5512 -0.9908 -2.3845
  120RES    H9633654   4.914   6.519   6.855 -0.5359  1.4228  0.1143
  120RES    H9733655   5.148   6.658   7.095 -1.1544  0.0371  3.2138
  120RES    H9833656   5.094   6.507   7.138  1.7597 -1.1385 -2.0314
  120RES    H9933657   5.143   6.535   6.976 -2.9899 -0.7686 -1.7249
  120RES   O10033658   4.711   6.674   6.834 -0.2260  0.2646 -0.1859
  120RES   C10133659   4.771   6.799   6.841 -0.3506 -0.8822 -0.1110
  120RES   C10233660   4.754   6.909   6.725  0.5807  0.6341 -0.6586
  120RES   C10333661   4.862   6.888   6.617 -0.7738  0.2824  0.0468
  120RES   O10433662   4.823   6.951   6.496 -0.5676 -0.7870  0.0686
  120RES   C10533663   4.918   6.944   6.389 -0.1010  0.2055 -0.7066
  120RES   H10633664   4.879   6.788   6.850 -0.3463 -2.6617 -1.9380
  120RES   H10733665   4.726   6.833   6.934  1.3880 -2.2725  1.2881
  120RES   H10833666   4.652   6.896   6.688  0.0574  1.9457  0.2705
  120RES   H10933667   4.902   6.788   6.597  1.2728  1.5014 -2.3475
  120RES   H11033668   4.950   6.941   6.653 -0.6027  0.2720 -0.3500
  120RES   H11133669   4.989   7.027   6.390 -0.5623  0.6449 -2.7943
  120RES   H11233670   4.876   6.970   6.292  2.0226 -0.5788 -1.8657
  120RES   H11333671   4.975   6.851   6.396 -1.4662 -0.5882  0.0165
  120RES   O11433672   4.765   7.037   6.789 -0.6450  0.5365 -0.4940
  120RES   C11533673   4.707   7.143   6.724  0.1258 -0.4004  0.5240
  120RES   C11633674   4.695   7.270   6.819 -0.2025 -0.3396 -0.2430
  120RES   C11733675   4.674   7.407   6.738  0.2589 -0.2960  0.1308
  120RES   O11833676   4.795   7.451   6.680 -0.3111  0.7203  0.2897
  120RES   C11933677   4.777   7.563   6.605  0.4067 -0.0102 -0.1978
  120RES   H12033678   4.766   7.183   6.642 -0.4062 -0.8182 -0.0661
  120RES   H12133679   4.609   7.119   6.683  1.7657 -2.3565 -2.3576
  120RES   H12233680   4.796   7.272   6.861  0.1630  0.9225 -1.1771
  120RES   H12333681   4.585   7.405   6.677  1.2200  1.8323 -1.3789
  120RES   H12433682   4.654   7.483   6.813  2.3221  0.1414  0.2751
  120RES   H12533683   4.870   7.605   6.566  1.1070 -0.0682  1.3374
  120RES   H12633684   4.725   7.642   6.659  1.5640 -0.1792  1.2019
  120RES   H12733685   4.708   7.552   6.522 -1.1191  0.1330  1.0206
  120RES   O12833686   4.607   7.257   6.934 -0.5120 -0.4707  0.0463
  120RES   C12933687   4.628   7.154   7.027  0.5950  0.0865 -0.3976
  120RES   C13033688   4.579   7.189   7.171  0.2382  0.6620 -0.0558
  120RES   C13133689   4.631   7.093   7.275  0.2847  0.0336  0.4843
  120RES   O13233690   4.609   7.147   7.404 -0.2531  0.3795 -0.1653
  120RES   C13333691   4.722   7.205   7.464 -0.4153 -0.2780 -0.1093
  120RES   H13433692   4.586   7.062   6.988 -1.0161 -0.2011  1.9168
  120RES   H13533693   4.737   7.148   7.037  0.6388  2.6610  1.4259
  120RES   H13633694   4.609   7.286   7.212  0.5896  0.5200  0.0263
  120RES   H13733695   4.735   7.069   7.253 -0.1415 -1.1466 -0.2411
  120RES   H13833696   4.577   7.000   7.261  1.9180 -0.9091  0.4403
  120RES   H13933697   4.777   7.272   7.397  2.6003 -0.9748  1.5629
  120RES   H14033698   4.714   7.265   7.554  0.8627 -0.3934  0.1016
  120RES   H14133699   4.791   7.126   7.495  0.6146  0.3213 -0.8264
  120RES   O14233700   4.436   7.178   7.178 -0.0886  0.2062 -0.0849
  120RES   C14333701   4.369   7.296   7.129 -0.1896 -0.1562  0.5589
  120RES   C14433702   4.221   7.264   7.115 -0.2577  0.2326 -0.7405
  120RES   C14533703   4.160   7.368   7.027  1.1880 -0.0923 -0.1409
  120RES   O14633704   4.027   7.326   6.992 -0.4994  0.2212 -0.8619
  120RES   C14733705   3.954   7.409   6.910  0.4316  0.0109 -0.2366
  120RES   H14833706   4.367   7.379   7.199 -0.8417 -1.0402  1.6106
  120RES   H14933707   4.410   7.328   7.033 -1.2674  0.8471  0.4215
  120RES   H15033708   4.209   7.166   7.070  0.7229 -0.5158  0.5783
  120RES   H15133709   4.225   7.388   6.942  2.6557 -0.6928  0.8165
  120RES   H15233710   4.147   7.465   7.076 -0.6038 -1.3366  1.9718
  120RES   H15333711   3.852   7.372   6.902  1.2310 -2.5074  0.5890
  120RES   H15433712   3.993   7.402   6.809  1.3153  0.6605  0.0467
  120RES   H15533713   3.959   7.516   6.931  2.9099  0.3438 -2.2728
  120RES   O15633714   4.161   7.264   7.246 -0.5715  0.8778  0.8381
  120RES   C15733715   4.049   7.170   7.264 -0.5309  0.5886 -0.0987
  120RES   C15833716   3.969   7.225   7.378  0.7447 -0.2987 -0.0199
  120RES   C15933717   3.888   7.122   7.460  0.8562 -0.2524  0.0615
  120RES   O16033718   3.813   7.039   7.378 -0.7144 -0.0535 -0.2878
  120RES   C16133719   3.704   6.979   7.444 -0.1824 -0.2157  0.0712
  120RES   H16233720   3.987   7.154   7.176  1.6702  2.7717 -2.1283
  120RES   H16333721   4.099   7.075   7.281  0.0339  0.5973 -1.5996
  120RES   H16433722   4.034   7.278   7.448 -1.3738  0.1433  1.6823
  120RES   H16533723   3.956   7.054   7.512 -2.2756 -2.9903  0.7555
  120RES   H16633724   3.815   7.178   7.519  0.1227  0.2268 -1.2869
  120RES   H16733725   3.636   6.929   7.375 -0.9714 -0.4095  0.9788
  120RES   H16833726   3.652   7.045   7.514 -0.8381 -0.6402 -0.0108
  120RES   H16933727   3.739   6.895   7.503  1.9857 -0.1209 -1.0291
  120RES   O17033728   3.880   7.316   7.318  0.7222  0.2862 -0.1079
  120RES   C17133729   3.910   7.453   7.337 -0.5118  0.0511 -0.7250
  120RES   C17233730   3.789   7.552   7.305 -1.2507  0.4180  0.5750
  120RES   C17333731   3.840   7.694   7.284 -0.3860  1.0262 -0.4231
  120RES   O17433732   3.737   7.780   7.226 -0.5936  0.0238 -0.1202
  120RES   C17533733   3.790   0.071   7.160  0.1647  0.2254  0.5077
  120RES   H17633734   4.007   7.476   7.290 -0.3160  2.8188  0.9344
  120RES   H17733735   3.928   7.453   7.444 -5.3139 -1.0956  0.1916
  120RES   H17833736   3.742   7.508   7.217 -1.3897  2.7423 -0.5610
  120RES   H17933737   3.885   7.743   7.370 -1.4609 -1.3459  1.5478
  120RES   H18033738   3.921   7.684   7.210  0.6138 -1.7317  0.9762
  120RES   H18133739   3.833   0.046   7.063  0.5374  0.5103  0.6016
  120RES   H18233740   3.862   0.129   7.218 -0.7906  0.3489  1.5982
  120RES   H18333741   3.707   0.140   7.142 -1.4637 -1.5771  0.8719
  120RES   O18433742   3.696   7.559   7.414 -0.3784 -0.0065  0.0028
  120RES   C18533743   3.595   7.461   7.404 -0.5767  0.2985 -0.6307
  120RES   C18633744   3.485   7.497   7.502  0.1082 -0.3180  1.3775
  120RES   C18733745   3.396   7.374   7.519  0.1938  0.1869 -1.3190
  120RES   O18833746   3.331   7.376   7.647  0.1988 -0.0615  0.1346
  120RES   C18933747   3.238   7.480   7.663  0.1173 -0.0197  0.0298
  120RES   H19033748   3.637   7.361   7.416 -0.0892  0.0791 -3.7412
  120RES   H19133749   3.548   7.466   7.306 -0.3341  2.0798 -0.6727
  120RES   H19233750   3.528   7.521   7.600 -2.2626  2.3326  1.8445
  120RES   H19333751   3.471   7.295   7.523  2.7099  2.5790  1.7711
  120RES   H19433752   3.333   7.345   7.434 -0.6038 -2.8050  0.2119
  120RES   H19533753   3.282   7.579   7.655 -1.3204  0.7193  1.0170
  120RES   H19633754   3.157   7.472   7.591 -0.6763  1.6266  0.7083
  120RES   H19733755   3.190   7.474   7.761 -2.2105  2.5642 -0.8826
  120RES   O19833756   3.407   7.606   7.459 -0.0273  0.6535 -0.1516
  120RES   C19933757   3.463   7.735   7.460 -0.0271 -0.3835 -0.1506
  120RES   C20033758   3.364   0.025   7.410  0.0965  0.2932  0.9449
  120RES   C20133759   3.429   0.163   7.407 -0.0596 -0.1679  0.2743
  120RES   O20233760   3.395   0.246   7.295  0.0217 -0.1695 -0.4793
  120RES   C20333761   3.261   0.290   7.307  0.3924  0.7905 -0.3828
  120RES   H20433762   3.542   7.740   7.385 -0.4855 -1.1649 -0.6910
  120RES   H20533763   3.494   7.766   7.559 -1.6759  1.2180 -0.0982
  120RES   H20633764   3.320   7.815   7.314 -1.5309  1.7382  1.2626
  120RES   H20733765   3.420   0.215   7.502  1.0213 -0.6581  0.6613
  120RES   H20833766   3.537   0.148   7.412  0.1939  0.6996 -1.9350
  120RES   H20933767   3.233   0.352   7.222 -3.1111 -0.0553  0.0857
  120RES   H21033768   3.248   0.341   7.403  0.1272  0.1653 -0.0862
  120RES   H21133769   3.195   0.204   7.313  0.7266  0.3788 -2.3802
  120RES   O21233770   3.257   0.033   7.503 -0.1860 -0.0172 -0.1828
  120RES   C21333771   3.143   7.785   7.444  0.1083  0.2805  0.7106
  120RES   C21433772   3.023   7.804   7.538  0.2103  0.1688  0.1498
  120RES   C21533773   2.930   7.682   7.553 -0.1049 -0.2522  0.2245
  120RES   O21633774   2.865   7.687   7.683 -0.4805 -0.1768 -0.2243
  120RES   C21733775   2.764   7.792   7.692 -0.1614 -0.1468 -0.2035
  120RES   H21833776   3.161   7.678   7.434  0.1438  0.1270  2.2451
  120RES   H21933777   3.103   7.817   7.348 -1.6486 -2.0161  0.6226
  120RES   H22033778   3.068   0.008   7.635 -0.2787  2.8183 -0.1664
  120RES   H22133779   2.858   7.663   7.473  1.4117  1.4921 -1.6185
  120RES   H22233780   2.986   7.588   7.550 -2.2431 -1.5546  0.4425
  120RES   H22333781   2.686   7.781   7.617  1.5494 -0.6905 -1.9427
  120RES   H22433782   2.805   0.074   7.674  0.3977 -0.4609 -0.6623
  120RES   H22533783   2.719   7.796   7.791 -0.7367  0.6419 -0.4898
  120RES   O22633784   2.942   0.094   7.501 -0.0796 -0.8952 -0.1726
  120RES   C22733785   2.999   0.222   7.538 -0.5361  0.1432  0.1673
  120RES   C22833786   2.923   0.346   7.484 -0.0866 -0.5789  0.3711
  120RES   C22933787   2.978   0.472   7.553  0.4373 -0.2832 -0.9163
  120RES   O23033788   2.938   0.493   7.687 -0.2994  0.5455  0.1698
  120RES   C23133789   2.905   0.627   7.725  0.2235  0.6417 -0.4425
  120RES   H23233790   3.100   0.238   7.501  0.0077  0.9705  1.9738
  120RES   H23333791   3.001   0.234   7.646 -0.1316 -0.3009  0.2117
  120RES   H23433792   2.818   0.343   7.514  0.3573 -0.3568  2.0259
  120RES   H23533793   2.930   0.555   7.501  0.9136  0.7636  0.3067
  120RES   H23633794   3.084   0.486   7.532  0.9161  0.3694  1.7909
  120RES   H23733795   2.923   0.697   7.643  3.6351  0.4210  0.0691
  120RES   H23833796   2.953   0.662   7.816 -2.4572  0.3627  1.1483
  120RES   H23933797   2.798   0.632   7.746  0.4451  0.5686  0.7283
  120RES   O24033798   2.944   0.352   7.341  0.3053  0.4741  0.0562
  120RES   C24133799   2.832   0.309   7.266  0.4151  0.2518  0.1318
  120RES   C24233800   2.869   0.276   7.118  1.2895  0.2576  0.2428
  120RES   C24333801   2.921   0.414   7.056 -0.0167  0.3571  0.5284
  120RES   O24433802   2.920   0.409   6.922 -0.2242  0.1876 -0.1822
  120RES   C24533803   2.992   0.514   6.863  0.1242  0.5440 -0.4438
  120RES   H24633804   2.760   0.389   7.254  0.5142  0.5831  1.6319
  120RES   H24733805   2.792   0.222   7.317  2.9344  0.7472  3.1065
  120RES   H24833806   2.781   0.233   7.071  0.6368  1.7485  0.0608
  120RES   H24933807   2.849   0.492   7.081  0.7787  1.3084 -0.0681
  120RES   H25033808   3.021   0.436   7.094  1.5458 -1.2065 -2.4424
  120RES   H25133809   2.983   0.605   6.922 -0.8975 -1.0332  1.8913
  120RES   H25233810   2.957   0.541   6.763  2.6476 -1.0295 -1.7999
  120RES   H25333811   3.099   0.498   6.857  0.4349  1.5688  2.0504
  120RES   O25433812   2.978   0.183   7.114 -0.0071  0.9261 -1.0935
  120RES   C25533813   2.970   0.093   7.001  0.3791  0.1792 -0.4717
  120RES   C25633814   3.089   0.007   6.982 -0.2801  0.1528  0.3808
  120RES   C25733815   3.226   0.087   6.979  0.5930  0.1327  0.0352
  120RES   O25833816   3.327   0.003   6.925  0.2580 -0.5338  0.4864
  120RES   C25933817   3.462   0.057   6.954 -0.7833  0.4775  0.0244
  120RES   H26033818   2.880   0.032   7.008  0.4747  0.1585  0.7222
  120RES   H26133819   2.958   0.166   6.921  1.8049  2.9782  1.7579
  120RES   H26233820   3.084   7.781   6.881 -0.2965  1.1472 -0.0479
  120RES   H26333821   3.227   0.184   6.930 -1.2224  0.8495  1.3501
  120RES   H26433822   3.255   0.127   7.075 -1.3446 -1.3968  1.2990
  120RES   H26533823   3.477   0.063   7.062  2.3338 -1.9087 -0.1692
  120RES   H26633824   3.471   0.159   6.917 -2.1209  0.0906 -1.4081
  120RES   H26733825   3.533   7.815   6.895  0.1117  0.4749  1.0859
  120RES   O26833826   3.090   7.724   7.076  0.1583 -0.2554  0.2605
  120RES   C26933827   3.183   7.615   7.053 -0.7423 -0.2619  0.1311
  120RES   C27033828   3.141   7.496   7.136  0.5857  0.3961  0.8848
  120RES   C27133829   3.032   7.411   7.069  0.0280  0.4669  0.5107
  120RES   O27233830   2.992   7.302   7.147 -0.6240 -0.0465 -0.4707
  120RES   C27333831   2.888   7.235   7.072  0.0390 -0.1823 -0.4986
  120RES   H27433832   3.281   7.643   7.091 -0.7195 -1.5258  1.0236
  120RES   H27533833   3.192   7.588   6.948  0.6387  0.8334 -0.0309
  120RES   H27633834   3.229   7.434   7.154 -0.2794 -1.6175 -1.5262
  120RES   H27733835   3.064   7.370   6.974 -3.8027  0.5778 -0.9188
  120RES   H27833836   2.948   7.479   7.055  0.1047  0.9375  2.1440
  120RES   H27933837   2.844   7.149   7.122  2.4261 -1.0969  0.0948
  120RES   H28033838   2.924   7.206   6.974  0.8865  1.2382 -0.6255
  120RES   H28133839   2.800   7.300   7.075  1.5872  1.9628  0.7565
  120RES   H28233840   3.115   7.532   7.236 -2.1973  1.0759 -0.0363
  121RES     O133841   7.251   6.529   1.469 -0.1330 -0.9098  0.7369
  121RES     C233842   7.128   6.533   1.405 -0.0260  0.0874  0.6350
  121RES     C333843   7.085   6.399   1.350  0.1099  1.0330  0.1215
  121RES     C433844   6.933   6.396   1.330  0.0345 -0.6464  0.8284
  121RES     O533845   6.889   6.259   1.346 -0.6458  0.1964  0.0031
  121RES     C633846   6.749   6.248   1.347  0.4649  0.0837  0.0736
  121RES     H733847   7.053   6.575   1.473 -0.5751  0.1400  0.0070
  121RES     H833848   7.141   6.601   1.321 -0.5451  0.6484  0.9961
  121RES     H933849   7.112   6.327   1.428  0.0098 -0.4473 -1.1803
  121RES    H1033850   6.899   6.435   1.234 -0.3075  0.5805  1.4329
  121RES    H1133851   6.876   6.459   1.399 -0.9713  1.0733 -1.4837
  121RES    H1233852   6.698   6.306   1.270 -0.1791 -1.1005 -0.4026
  121RES    H1333853   6.713   6.147   1.328  0.3967  0.6317 -2.9730
  121RES    H1433854   6.700   6.268   1.442 -0.7022  0.7212 -0.6611
  121RES    H1533855   7.312   6.498   1.404 -0.3969  1.0574 -0.4956
  121RES    O1633856   7.159   6.375   1.224 -0.1503  0.0908 -0.2078
  121RES    C1733857   7.128   6.242   1.165 -0.2656 -0.0086 -0.1766
  121RES    C1833858   7.225   6.210   1.051  0.1308  0.7078  0.1246
  121RES    C1933859   7.239   6.060   1.037  0.2719  0.5127 -0.3424
  121RES    O2033860   7.343   6.016   0.959 -0.2411  0.0714 -0.1715
  121RES    C2133861   7.348   5.875   0.955  0.2056 -0.5140  0.3203
  121RES    H2233862   7.023   6.234   1.136 -0.2099  0.7693 -0.6050
  121RES    H2333863   7.133   6.176   1.252 -2.7209 -1.0905 -0.8100
  121RES    H2433864   7.322   6.246   1.085 -0.1352 -0.1039  1.7757
  121RES    H2533865   7.251   6.019   1.137 -2.9550  2.2215  0.7934
  121RES    H2633866   7.139   6.036   1.001 -0.1992  0.4685  0.9753
  121RES    H2733867   7.258   5.826   0.919 -1.1481 -0.0015  2.8406
  121RES    H2833868   7.374   5.837   1.054  0.2789  1.4633  1.0786
  121RES    H2933869   7.432   5.841   0.894  0.0426  0.5418 -0.4971
  121RES    O3033870   7.164   6.266   0.933  0.2584  0.1483 -0.0969
  121RES    C3133871   7.232   6.355   0.857 -0.6019 -0.2783  0.9274
  121RES    C3233872   7.331   6.288   0.752  0.6389  0.5661  0.2043
  121RES    C3333873   7.430   6.387   0.701 -0.1538  0.0350  0.9054
  121RES    O3433874   7.556   6.349   0.649  0.5051  0.1313  0.4529
  121RES    C3533875   7.544   6.255   0.541 -0.1144  0.2531 -0.0241
  121RES    H3633876   7.154   6.408   0.803  2.5040  2.1251 -1.3803
  121RES    H3733877   7.290   6.411   0.931 -1.4048  1.3732  0.3277
  121RES    H3833878   7.392   6.212   0.802  0.9692 -0.1291 -1.2381
  121RES    H3933879   7.461   6.450   0.784  0.4117  0.9264  0.0258
  121RES    H4033880   7.369   6.442   0.630  0.3981 -0.9596 -0.3595
  121RES    H4133881   7.505   6.163   0.585  0.0629  1.3978  2.6553
  121RES    H4233882   7.645   6.232   0.507  1.0569  0.5776  3.0765
  121RES    H4333883   7.479   6.298   0.465 -0.6010  1.7023  1.1744
  121RES    O4433884   7.270   6.230   0.639  0.2312  0.5472 -0.2716
  121RES    C4533885   7.212   6.107   0.657 -0.0677  0.1356  0.1781
  121RES    C4633886   7.144   6.054   0.523 -0.4562 -0.1163  0.1273
  121RES    C4733887   7.228   5.933   0.467 -0.2473 -0.3813  0.5635
  121RES    O4833888   7.183   5.915   0.335 -0.4891  0.1970  0.8212
  121RES    C4933889   7.272   5.847   0.253 -0.7543  0.3663  0.5734
  121RES    H5033890   7.130   6.118   0.728  0.4361 -1.1019  0.9719
  121RES    H5133891   7.279   6.032   0.699 -1.3883 -0.7354  0.7686
  121RES    H5233892   7.126   6.139   0.457  1.0278  0.2156  0.1394
  121RES    H5333893   7.336   5.940   0.472 -0.2060 -1.8001  2.2173
  121RES    H5433894   7.217   5.847   0.533 -1.1639 -0.2192  0.6326
  121RES    H5533895   7.366   5.902   0.249 -0.6484 -0.0096 -3.8994
  121RES    H5633896   7.257   5.834   0.146  1.6070  0.9379  0.1397
  121RES    H5733897   7.302   5.751   0.296  1.7474 -0.5720 -3.0828
  121RES    O5833898   7.019   6.006   0.571  0.2705 -0.1198 -0.2491
  121RES    C5933899   6.918   6.013   0.471  0.9175  0.7016 -0.3060
  121RES    C6033900   6.786   5.964   0.533  0.7495  0.3312  0.6616
  121RES    C6133901   6.753   6.037   0.669 -0.4709 -0.3236 -0.5359
  121RES    O6233902   6.612   6.010   0.679  0.1651  0.3093  0.0640
  121RES    C6333903   6.571   5.950   0.801  0.4335  0.6449  0.2293
  121RES    H6433904   6.952   5.958   0.383 -1.0459 -1.0960  0.0181
  121RES    H6533905   6.896   6.111   0.430 -2.4897 -0.2342 -0.8946
  121RES    H6633906   6.699   5.975   0.468 -1.1740 -0.8890  2.9130
  121RES    H6733907   6.814   6.005   0.754 -0.2308 -1.9371 -1.2940
  121RES    H6833908   6.766   6.143   0.648 -0.1648  0.0468  1.4863
  121RES    H6933909   6.542   6.014   0.885 -1.3354  0.8407 -0.5012
  121RES    H7033910   6.637   5.867   0.827  0.8400  0.3866 -1.5746
  121RES    H7133911   6.471   5.912   0.783  0.7628  0.1125 -0.5110
  121RES    O7233912   6.798   5.824   0.564 -0.2125 -0.4970 -0.2695
  121RES    C7333913   6.792   5.737   0.460  0.0637 -0.1267 -0.0927
  121RES    C7433914   6.930   5.665   0.445  0.3623  0.5697  0.2529
  121RES    C7533915   6.948   5.594   0.312 -0.6193  0.3561 -0.4048
  121RES    O7633916   6.931   5.681   0.202 -0.4026  0.1245 -0.3880
  121RES    C7733917   7.013   5.638   0.094 -0.2061 -0.1530 -0.1577
  121RES    H7833918   6.711   5.664   0.475 -0.2997  0.1741 -0.5879
  121RES    H7933919   6.772   5.794   0.370 -1.0682  0.0937  0.2834
  121RES    H8033920   7.004   5.745   0.446  0.3062  0.6065  1.6498
  121RES    H8133921   6.876   5.512   0.304 -0.1983 -0.1718  1.1444
  121RES    H8233922   7.047   5.551   0.310 -0.8954 -0.3285  0.6032
  121RES    H8333923   7.120   5.651   0.105 -0.1143 -1.2511  0.2069
  121RES    H8433924   6.995   5.714   0.017  0.5487  2.3811  2.0727
  121RES    H8533925   6.999   5.535   0.061 -0.9328 -0.9516  2.5693
  121RES    O8633926   6.944   5.564   0.549  0.3263  0.0915  0.0401
  121RES    C8733927   6.999   5.601   0.672 -0.1816 -0.0724 -0.2681
  121RES    C8833928   6.981   5.489   0.777  0.7206 -0.0321 -0.1415
  121RES    C8933929   7.039   5.517   0.913  0.2481  0.3297  0.4104
  121RES    O9033930   7.006   5.646   0.971 -0.1113 -0.0770 -0.1829
  121RES    C9133931   6.878   5.648   1.034 -0.1238  0.0828 -0.8134
  121RES    H9233932   7.107   5.611   0.673 -0.2117  0.2481  0.8214
  121RES    H9333933   6.942   5.691   0.700  0.4997 -0.0517  1.1161
  121RES    H9433934   7.034   5.403   0.735  1.3894 -0.2231  1.0783
  121RES    H9533935   7.039   5.437   0.987 -1.7041  0.5883  0.7184
  121RES    H9633936   7.145   5.526   0.887  0.1901 -0.9306 -0.3330
  121RES    H9733937   6.801   5.628   0.959 -1.0345  1.6940 -0.3224
  121RES    H9833938   6.872   5.575   1.115  1.1122  1.3899  0.4636
  121RES    H9933939   6.866   5.750   1.069  0.5561  0.5035 -1.7971
  121RES   O10033940   6.845   5.462   0.784 -0.2565 -0.6118 -0.3590
  121RES   C10133941   6.798   5.349   0.710  0.4003  0.5723  0.3595
  121RES   C10233942   6.808   5.226   0.798  0.1930 -0.0903  0.6007
  121RES   C10333943   6.785   5.103   0.712 -0.3559  1.2947 -0.1655
  121RES   O10433944   6.869   4.988   0.750  0.2813  0.0751  0.0141
  121RES   C10533945   6.819   4.924   0.864  0.1620  0.5307  0.3235
  121RES   H10633946   6.866   5.339   0.625  1.6660  1.5978  1.2320
  121RES   H10733947   6.703   5.379   0.666  1.3012  3.2822  0.1796
  121RES   H10833948   6.907   5.220   0.842  0.7944 -0.5890 -0.8091
  121RES   H10933949   6.802   5.122   0.606 -1.4684  0.1200 -0.5699
  121RES   H11033950   6.678   5.081   0.715 -0.0092 -0.4607 -0.2729
  121RES   H11133951   6.724   4.873   0.848  1.5910 -1.6529 -1.3860
  121RES   H11233952   6.805   4.990   0.949 -0.4134 -0.7456  1.2280
  121RES   H11333953   6.910   4.868   0.887 -0.3638 -0.6992 -0.5471
  121RES   O11433954   6.698   5.232   0.889  0.0359 -0.0427 -0.1374
  121RES   C11533955   6.724   5.264   1.023  0.6942  0.5592  0.3008
  121RES   C11633956   6.607   5.237   1.116  0.1260  0.3906  0.0490
  121RES   C11733957   6.651   5.224   1.263  0.4134  0.0732  0.0358
  121RES   O11833958   6.595   5.117   1.339  0.3870  0.1692 -0.4888
  121RES   C11933959   6.463   5.140   1.388  0.4264  0.6826  0.5048
  121RES   H12033960   6.793   5.185   1.053 -1.4599 -1.3694  0.3076
  121RES   H12133961   6.773   5.361   1.031 -1.3313  1.6249  0.1743
  121RES   H12233962   6.553   5.149   1.083  0.0971  0.8640 -1.2010
  121RES   H12333963   6.757   5.200   1.270  0.4592 -0.1028 -1.1536
  121RES   H12433964   6.636   5.322   1.310 -0.2170 -0.5904  1.2601
  121RES   H12533965   6.418   5.064   1.452  4.8049 -1.9355  0.6878
  121RES   H12633966   6.388   5.154   1.310  1.8166  0.8872 -0.8140
  121RES   H12733967   6.461   5.227   1.453 -2.2486  0.2546  1.0516
  121RES   O12833968   6.507   5.331   1.116 -0.3847 -0.3208  0.1747
  121RES   C12933969   6.469   5.401   0.994 -0.0173 -0.4331 -0.1886
  121RES   C13033970   6.362   5.510   1.030  0.1871  0.5866  0.5758
  121RES   C13133971   6.296   5.564   0.904  0.0792 -0.1048 -0.0616
  121RES   O13233972   6.166   5.618   0.912  0.0665  0.2574  0.1268
  121RES   C13333973   6.165   5.747   0.974 -0.4076 -0.1241 -0.4506
  121RES   H13433974   6.554   5.441   0.939  0.8093 -1.0740  0.5951
  121RES   H13533975   6.422   5.340   0.917  0.1723 -1.1556  0.2549
  121RES   H13633976   6.296   5.476   1.110  0.6685  0.3347  0.8691
  121RES   H13733977   6.278   5.476   0.843  0.1623 -0.1703  0.0074
  121RES   H13833978   6.365   5.620   0.840  1.0501 -0.6936  0.4580
  121RES   H13933979   6.214   5.825   0.916 -0.7018  0.1155 -0.3735
  121RES   H14033980   6.064   5.787   0.973 -0.5643 -0.5331 -1.4423
  121RES   H14133981   6.212   5.743   1.073 -1.1741  1.4105 -0.0189
  121RES   O14233982   6.434   5.625   1.077  0.4080  0.0800  0.0263
  121RES   C14333983   6.505   5.608   1.201  0.1389 -0.6179 -0.3796
  121RES   C14433984   6.558   5.747   1.243 -0.1727  0.2063 -0.2494
  121RES   C14533985   6.664   5.724   1.344 -0.4525  0.2447 -0.8227
  121RES   O14633986   6.767   5.822   1.337 -0.2341 -0.1421  0.0038
  121RES   C14733987   6.863   5.827   1.442 -0.6543 -0.2838  0.0046
  121RES   H14833988   6.435   5.566   1.274 -0.2951 -1.4380 -1.2501
  121RES   H14933989   6.584   5.535   1.183 -0.3411 -1.4768  0.8828
  121RES   H15033990   6.593   5.785   1.147 -0.1989  0.1585 -0.2784
  121RES   H15133991   6.706   5.625   1.331 -0.0454  0.3451 -0.3211
  121RES   H15233992   6.618   5.722   1.443  1.5448 -1.3198  0.1111
  121RES   H15333993   6.887   5.727   1.477  2.3405  0.0723 -0.9414
  121RES   H15433994   6.822   5.892   1.519  0.9201  0.5322  0.1622
  121RES   H15533995   6.954   5.875   1.408 -1.0525  1.9780  2.0447
  121RES   O15633996   6.451   5.825   1.298  0.1683 -0.1343  0.2355
  121RES   C15733997   6.489   5.959   1.341 -0.5751 -0.4186  0.4416
  121RES   C15833998   6.374   6.033   1.411 -0.6966  0.1369  0.0125
  121RES   C15933999   6.247   6.059   1.320 -0.2187 -0.0266 -0.3095
  121RES   O16034000   6.130   6.062   1.398 -0.0730  0.0822  0.1864
  121RES   C16134001   6.008   6.085   1.335 -0.0612  0.0762  0.5353
  121RES   H16234002   6.581   5.977   1.397  1.2394  1.5710 -3.0624
  121RES   H16334003   6.507   6.014   1.249  0.2718 -2.7261 -0.7945
  121RES   H16434004   6.351   5.961   1.490 -0.8971 -0.9771 -1.0325
  121RES   H16534005   6.261   6.155   1.269 -0.0502  0.3928  0.5258
  121RES   H16634006   6.247   5.990   1.235 -1.3052  0.1499 -0.4550
  121RES   H16734007   5.926   6.057   1.400  0.5055  0.2694  1.3349
  121RES   H16834008   5.994   6.018   1.250  0.1899  0.4776  0.1732
  121RES   H16934009   5.993   6.190   1.308  0.0508 -0.0649 -0.0923
  121RES   O17034010   6.420   6.155   1.461  0.1263  0.1185 -0.2372
  121RES   C17134011   6.341   6.216   1.566 -0.8463 -0.7823 -0.0238
  121RES   C17234012   6.374   6.365   1.591 -0.5809 -0.6288  0.2505
  121RES   C17334013   6.317   6.401   1.724 -0.2679  0.5443  0.2344
  121RES   O17434014   6.397   6.343   1.830 -0.0876 -0.4685 -0.2541
  121RES   C17534015   6.391   6.428   1.946  0.3622 -0.0766  0.5213
  121RES   H17634016   6.351   6.153   1.654  2.4300  0.2380  0.3673
  121RES   H17734017   6.234   6.218   1.544 -0.6295 -0.9249 -1.1475
  121RES   H17834018   6.481   6.384   1.585 -0.6033 -0.5398  0.1344
  121RES   H17934019   6.323   6.509   1.740 -0.2421  0.2955  2.0175
  121RES   H18034020   6.212   6.375   1.737  0.2754 -0.1476  4.0081
  121RES   H18134021   6.460   6.391   2.022  2.7118 -0.7896 -1.8822
  121RES   H18234022   6.293   6.439   1.994  0.3214  0.4265  0.3229
  121RES   H18334023   6.428   6.528   1.923 -0.6028 -0.0313 -0.9449
  121RES   O18434024   6.314   6.453   1.496  1.5209 -0.3204 -0.0276
  121RES   C18534025   6.374   6.447   1.369  0.2385  0.9174 -0.3659
  121RES   C18634026   6.424   6.586   1.335 -0.6446 -0.0455 -0.4465
  121RES   C18734027   6.321   6.687   1.278  0.3923  0.4202 -0.1524
  121RES   O18834028   6.352   6.818   1.321 -0.2030  0.2170  0.0362
  121RES   C18934029   6.275   6.913   1.248  0.4404 -0.5554 -0.2154
  121RES   H19034030   6.304   6.418   1.291  1.0389 -3.0757  0.3002
  121RES   H19134031   6.457   6.377   1.361  0.5849  1.3574 -0.6357
  121RES   H19234032   6.468   6.624   1.428 -0.0101 -0.3982 -0.6007
  121RES   H19334033   6.229   6.665   1.332  1.0306 -0.1396  0.7186
  121RES   H19434034   6.300   6.671   1.172 -2.3007  1.4460  0.1920
  121RES   H19534035   6.297   7.019   1.265 -1.6691 -0.3286  1.4652
  121RES   H19634036   6.278   6.896   1.140 -1.3438 -0.8141 -0.2413
  121RES   H19734037   6.169   6.905   1.275  0.9729  0.1493  2.2053
  121RES   O19834038   6.537   6.573   1.242 -0.1441 -0.6922 -0.1267
  121RES   C19934039   6.630   6.681   1.253 -0.0986 -0.5031 -0.1976
  121RES   C20034040   6.719   6.668   1.128 -0.7659 -0.6418  0.0263
  121RES   C20134041   6.855   6.739   1.153  0.4801  0.0248 -0.8897
  121RES   O20234042   6.963   6.699   1.068 -0.2527 -0.5576  0.4360
  121RES   C20334043   7.071   6.795   1.071 -0.0825  0.5223 -0.4265
  121RES   H20434044   6.680   6.664   1.348 -1.3347 -0.6792  0.4410
  121RES   H20534045   6.589   6.781   1.265 -1.7754 -1.5464  3.6546
  121RES   H20634046   6.740   6.562   1.112 -1.4868 -0.7807 -0.0448
  121RES   H20734047   6.837   6.846   1.154  1.0037  0.1112  0.0885
  121RES   H20834048   6.892   6.710   1.251 -1.9755  2.5992  0.8688
  121RES   H20934049   7.154   6.764   1.007  0.5089  0.4663  0.3655
  121RES   H21034050   7.106   6.822   1.170  0.3888  2.2118 -1.0344
  121RES   H21134051   7.028   6.890   1.039 -1.7610 -0.0124  0.1565
  121RES   O21234052   6.653   6.724   1.020  0.0614  0.4051  0.7060
  121RES   C21334053   6.721   6.718   0.892  0.3531 -0.4795 -0.0222
  121RES   C21434054   6.622   6.773   0.789  0.1755  0.1704  0.0690
  121RES   C21534055   6.647   6.736   0.646  0.5338  0.5019  0.4481
  121RES   O21634056   6.545   6.790   0.559  0.3711  0.1807 -0.0916
  121RES   C21734057   6.570   6.771   0.423 -0.8567 -0.5081 -0.0514
  121RES   H21834058   6.748   6.616   0.866 -0.1222 -1.0059  1.4761
  121RES   H21934059   6.811   6.780   0.895 -1.1649  1.7683  0.7619
  121RES   H22034060   6.521   6.735   0.806  0.1293  1.0246  1.7784
  121RES   H22134061   6.736   6.788   0.612  1.0449 -0.2300  0.6617
  121RES   H22234062   6.657   6.629   0.629  1.2193  0.8604 -1.4597
  121RES   H22334063   6.579   6.665   0.398 -0.3670 -0.4172 -0.2650
  121RES   H22434064   6.654   6.821   0.376 -1.8910 -0.3197 -1.7335
  121RES   H22534065   6.480   6.812   0.377 -1.3545 -0.8969  0.5645
  121RES   O22634066   6.625   6.916   0.803 -0.1860  0.0237  0.6205
  121RES   C22734067   6.499   6.974   0.821 -0.2182 -0.3678 -0.9725
  121RES   C22834068   6.496   7.126   0.841  0.2943 -0.0670  0.0324
  121RES   C22934069   6.356   7.193   0.817  0.3000  0.1497  0.2612
  121RES   O23034070   6.379   7.325   0.798  0.7567 -0.1047 -0.2572
  121RES   C23134071   6.257   7.394   0.784  0.2562  0.0854  0.1647
  121RES   H23234072   6.454   6.920   0.904  1.0943 -3.0218 -1.9414
  121RES   H23334073   6.454   6.948   0.726 -3.9233  3.3097 -0.3911
  121RES   H23434074   6.574   7.175   0.783  0.6446  2.2120  2.3545
  121RES   H23534075   6.295   7.177   0.905  0.7417  1.2942  0.7851
  121RES   H23634076   6.303   7.154   0.730  1.7806 -0.9066 -0.1992
  121RES   H23734077   6.190   7.394   0.870 -1.1279 -1.3342 -0.8872
  121RES   H23834078   6.196   7.354   0.703  1.1231  0.0482 -0.4677
  121RES   H23934079   6.288   7.492   0.748 -1.0879 -0.3958 -2.4024
  121RES   O24034080   6.517   7.139   0.984 -0.1057  0.6093 -0.5521
  121RES   C24134081   6.652   7.133   1.017  0.1949  0.0126  0.1600
  121RES   C24234082   6.677   7.160   1.166 -0.1032  0.3233  0.3806
  121RES   C24334083   6.604   7.070   1.259 -0.0237 -0.0246 -0.1805
  121RES   O24434084   6.605   7.122   1.387 -0.1602 -0.1213  0.2686
  121RES   C24534085   6.496   7.080   1.466 -0.0530  0.3768 -0.2960
  121RES   H24634086   6.709   7.210   0.966  0.8247 -2.4927 -3.1088
  121RES   H24734087   6.701   7.040   0.988  0.3687  0.9414 -2.6313
  121RES   H24834088   6.633   7.259   1.173 -1.2220 -0.0554 -0.9546
  121RES   H24934089   6.505   7.059   1.216 -1.3039 -0.4925  2.8123
  121RES   H25034090   6.653   6.973   1.254  0.1807  0.1106 -0.9756
  121RES   H25134091   6.405   7.127   1.430 -0.5093 -1.2468 -1.2955
  121RES   H25234092   6.508   7.101   1.572 -1.2351 -0.4583  0.0038
  121RES   H25334093   6.486   6.973   1.453  1.9406  0.1842 -0.4024
  121RES   O25434094   6.814   7.160   1.179 -0.1088 -0.2779 -0.7592
  121RES   C25534095   6.857   7.275   1.240 -0.1556  0.5673 -0.4181
  121RES   C25634096   7.010   7.279   1.238  0.5530  0.2900 -0.0249
  121RES   C25734097   7.069   7.420   1.232 -0.0213 -0.5875  0.1169
  121RES   O25834098   7.042   7.492   1.355 -0.6931  0.5687 -0.1341
  121RES   C25934099   7.040   7.635   1.346 -0.2184  0.1235  0.6079
  121RES   H26034100   6.813   7.359   1.186 -2.2746  1.1353  2.1379
  121RES   H26134101   6.835   7.289   1.345  1.4512 -0.1064  0.0336
  121RES   H26234102   7.047   7.233   1.147 -0.0366  1.2456 -0.7583
  121RES   H26334103   7.177   7.404   1.224  0.5716  2.7626  0.5389
  121RES   H26434104   7.036   7.466   1.138 -2.4703  0.2627  1.3506
  121RES   H26534105   7.143   7.653   1.315 -1.1344 -0.2630 -2.9379
  121RES   H26634106   7.014   7.684   1.440 -1.8168 -0.0745  0.2859
  121RES   H26734107   6.966   7.668   1.273 -0.2347 -0.1598  0.4938
  121RES   O26834108   7.081   7.213   1.344 -0.3152 -0.3512  0.2879
  121RES   C26934109   7.047   7.079   1.361  0.2792 -0.4174 -0.3418
  121RES   C27034110   7.128   7.017   1.476  0.0045  0.4470 -0.0903
  121RES   C27134111   7.102   6.863   1.480  0.1392  0.1668  0.9674
  121RES   O27234112   6.970   6.813   1.482  0.2472 -0.1108 -0.5031
  121RES   C27334113   6.905   6.826   1.604  0.2878  0.0937  0.6846
  121RES   H27434114   7.056   7.027   1.266 -2.2824 -0.4329 -0.6187
  121RES   H27534115   6.940   7.081   1.385  0.8753 -0.3247  2.5201
  121RES   H27634116   7.234   7.029   1.454  0.0338 -1.7019 -1.3233
  121RES   H27734117   7.157   6.821   1.565  0.8584  1.0924  0.9633
  121RES   H27834118   7.153   6.828   1.390 -1.1570  2.4717 -0.6840
  121RES   H27934119   6.804   6.786   1.598  0.3690  0.1164 -0.8681
  121RES   H28034120   6.910   6.930   1.639 -1.5913 -0.1530  1.7583
  121RES   H28134121   6.955   6.760   1.676  0.7371 -0.7816 -0.4243
  121RES   H28234122   7.110   7.069   1.570 -0.3958  2.2354 -1.1304
  122RES     O134123   6.338   1.757   3.228  0.3313 -0.4307  0.0568
  122RES     C234124   6.451   1.774   3.309  0.2188  0.3021 -0.1297
  122RES     C334125   6.478   1.920   3.347 -1.1871  0.3077  0.5840
  122RES     C434126   6.546   1.932   3.489 -1.0858 -0.3334 -1.0297
  122RES     O534127   6.490   2.043   3.568 -0.4657  1.3282  0.4884
  122RES     C634128   6.530   2.040   3.700  0.3256 -0.4816 -0.4944
  122RES     H734129   6.419   1.717   3.397 -1.8199  3.5999  1.3542
  122RES     H834130   6.536   1.733   3.255  0.2613  0.7162 -0.3713
  122RES     H934131   6.384   1.972   3.364 -0.0952  3.1089 -1.5212
  122RES    H1034132   6.655   1.939   3.492 -1.1835  0.6632  1.2475
  122RES    H1134133   6.522   1.840   3.543 -2.0393  0.3582 -0.2474
  122RES    H1234134   6.487   1.955   3.754  2.0847 -0.2526  1.3065
  122RES    H1334135   6.636   2.059   3.718  0.1484 -0.1493  0.2152
  122RES    H1434136   6.474   2.126   3.737  1.0152  0.6694 -2.0513
  122RES    H1534137   6.338   1.820   3.157  0.9696 -1.5070 -0.9076
  122RES    O1634138   6.566   1.987   3.249  0.2303  0.4724 -0.5258
  122RES    C1734139   6.557   2.132   3.245 -0.2225 -1.1783  0.2937
  122RES    C1834140   6.669   2.185   3.151 -0.3158  0.4156  0.1685
  122RES    C1934141   6.804   2.121   3.181  0.0708  0.0247  0.4356
  122RES    O2034142   6.913   2.181   3.101  0.1993 -0.2518 -0.4672
  122RES    C2134143   7.032   2.122   3.133 -0.5638  0.2697  0.4886
  122RES    H2234144   6.579   2.170   3.344 -2.2764  0.8277  0.0194
  122RES    H2334145   6.454   2.163   3.227  0.2483  0.7487  0.8909
  122RES    H2434146   6.683   2.293   3.163 -1.0535  0.3450  1.7723
  122RES    H2534147   6.817   2.132   3.289 -1.1264  0.5268  0.5409
  122RES    H2634148   6.806   2.014   3.160  2.6412  0.2171 -0.4855
  122RES    H2734149   7.099   2.181   3.070  1.0450  1.3198  3.1031
  122RES    H2834150   7.037   2.014   3.116  0.4055 -0.2126  3.5669
  122RES    H2934151   7.061   2.138   3.237 -0.3547  0.3413  0.4199
  122RES    O3034152   6.635   2.159   3.017  0.0457 -0.6546  0.5122
  122RES    C3134153   6.558   2.260   2.958  0.0188 -0.1521 -0.0125
  122RES    C3234154   6.515   2.200   2.825 -0.2165  0.1226  0.5525
  122RES    C3334155   6.460   2.300   2.727  0.3580 -0.3520 -0.0881
  122RES    O3434156   6.555   2.345   2.629 -0.3649 -0.1787  0.2576
  122RES    C3534157   6.529   2.471   2.573 -0.1153  0.1871 -0.4532
  122RES    H3634158   6.472   2.278   3.022  1.0034  0.5702  1.1413
  122RES    H3734159   6.608   2.354   2.935 -1.7484  0.3807 -1.8435
  122RES    H3834160   6.601   2.152   2.779  0.9982  1.7745  1.0625
  122RES    H3934161   6.422   2.385   2.784  1.3652  0.7635 -1.0344
  122RES    H4034162   6.377   2.257   2.670  2.0851 -0.9889 -2.2028
  122RES    H4134163   6.617   2.498   2.514  0.1508 -0.4183 -0.3330
  122RES    H4234164   6.521   2.550   2.648  2.6367 -0.4823  0.5863
  122RES    H4334165   6.433   2.463   2.522  0.5513 -0.1458 -1.6981
  122RES    O4434166   6.404   2.114   2.841 -0.5192  0.4434 -0.1116
  122RES    C4534167   6.447   1.981   2.866 -0.7377 -0.1420  0.0286
  122RES    C4634168   6.319   1.895   2.877  0.4227 -0.1873 -0.9043
  122RES    C4734169   6.356   1.747   2.878 -0.2601  0.3921  0.1844
  122RES    O4834170   6.472   1.723   2.950  0.3894 -0.4733 -0.2675
  122RES    C4934171   6.472   1.592   3.004 -0.4065  0.5974  0.4459
  122RES    H5034172   6.505   1.972   2.959 -0.8177 -2.7219 -0.1305
  122RES    H5134173   6.509   1.926   2.795 -0.3563 -0.1398  0.3578
  122RES    H5234174   6.260   1.904   2.786  0.5375  0.9343 -0.8815
  122RES    H5334175   6.277   1.684   2.919  0.4576 -0.8080 -0.2527
  122RES    H5434176   6.367   1.716   2.775  1.0985  1.6506 -0.0617
  122RES    H5534177   6.565   1.570   3.056  0.3432  0.4848 -0.9247
  122RES    H5634178   6.479   1.516   2.927 -0.5227  0.7569  0.2780
  122RES    H5734179   6.387   1.582   3.072 -1.6514 -1.8500 -1.3518
  122RES    O5834180   6.251   1.935   2.996 -0.0246 -0.0252 -0.4415
  122RES    C5934181   6.126   1.877   3.011  0.6827  0.1685  0.0837
  122RES    C6034182   6.033   1.959   3.094 -0.1213  0.4696  0.6116
  122RES    C6134183   6.093   2.009   3.230  0.6394 -0.2577  0.0190
  122RES    O6234184   5.989   2.098   3.271  0.5010 -0.5533 -0.1693
  122RES    C6334185   6.030   2.187   3.376  0.2601  0.9556  0.7631
  122RES    H6434186   6.149   1.783   3.061 -1.0962 -1.0497 -1.3327
  122RES    H6534187   6.072   1.850   2.920  2.9906 -2.2155 -0.6444
  122RES    H6634188   5.993   2.045   3.041 -1.3340 -0.6624 -0.3391
  122RES    H6734189   6.119   1.938   3.308 -2.1420 -0.7928  0.4887
  122RES    H6834190   6.187   2.063   3.216  1.5299 -2.3628 -2.4185
  122RES    H6934191   6.098   2.141   3.448 -0.4243 -1.7113 -0.2261
  122RES    H7034192   5.938   2.203   3.434 -1.3617 -0.4150 -1.3699
  122RES    H7134193   6.068   2.288   3.362  0.2332  0.5711 -2.2579
  122RES    O7234194   5.930   1.867   3.129 -0.5021 -0.7055  0.3586
  122RES    C7334195   5.804   1.919   3.084 -0.0238 -0.1022  0.5230
  122RES    C7434196   5.698   1.808   3.080  0.0889 -0.6799 -0.1796
  122RES    C7534197   5.663   1.752   3.213  0.5158 -0.2892 -0.0199
  122RES    O7634198   5.544   1.680   3.192 -0.1388 -0.2819 -0.6576
  122RES    C7734199   5.529   1.580   3.293  0.5085 -0.2507 -0.4088
  122RES    H7834200   5.776   2.011   3.135  0.7241  0.3928  0.0448
  122RES    H7934201   5.821   1.951   2.982 -0.2926 -0.2149  0.4425
  122RES    H8034202   5.606   1.859   3.051  1.5646  1.8635 -0.5502
  122RES    H8134203   5.640   1.834   3.280  1.1310  0.6212 -0.9127
  122RES    H8234204   5.746   1.696   3.256 -0.2959 -0.6053  1.1607
  122RES    H8334205   5.532   1.616   3.396  0.7316  0.4826 -0.6710
  122RES    H8434206   5.595   1.493   3.281 -0.4442 -1.1462  0.7071
  122RES    H8534207   5.428   1.542   3.283  0.6909 -1.2483  1.2457
  122RES    O8634208   5.737   1.706   2.989 -0.3415 -0.4828  0.0518
  122RES    C8734209   5.704   1.740   2.856  0.0061  0.5620 -0.3791
  122RES    C8834210   5.747   1.637   2.748  0.3470  0.1213  0.1409
  122RES    C8934211   5.904   1.645   2.734 -0.8364 -0.2346 -0.5457
  122RES    O9034212   5.965   1.593   2.619 -0.4184  0.2420  0.8421
  122RES    C9134213   6.093   1.616   2.609 -0.4323 -0.0266  0.0958
  122RES    H9234214   5.596   1.751   2.862  0.0802  1.5354 -0.8019
  122RES    H9334215   5.746   1.835   2.824 -0.9617  1.3283  0.6114
  122RES    H9434216   5.693   1.662   2.657  0.9444 -0.3203 -0.3362
  122RES    H9534217   5.939   1.748   2.735 -2.7721  0.4350  0.7550
  122RES    H9634218   5.954   1.607   2.823 -1.4506  1.8336  0.7058
  122RES    H9734219   6.141   1.560   2.689  0.2915  2.5653  1.5428
  122RES    H9834220   6.127   1.562   2.520 -0.3805  2.1111 -1.2096
  122RES    H9934221   6.106   1.724   2.611 -2.0154  0.1682  1.6464
  122RES   O10034222   5.690   1.505   2.776 -0.0534  0.3774  0.5757
  122RES   C10134223   5.766   1.425   2.867  0.2142 -0.0559  0.4260
  122RES   C10234224   5.662   1.324   2.925 -0.2133  0.7422  0.2245
  122RES   C10334225   5.716   1.245   3.049 -0.6685  0.2316 -0.4039
  122RES   O10434226   5.628   1.147   3.112 -0.0526 -0.4047  0.2848
  122RES   C10534227   5.525   1.201   3.197  0.7558 -0.2481 -0.4958
  122RES   H10634228   5.809   1.488   2.945 -0.8607  2.4748 -0.9728
  122RES   H10734229   5.840   1.368   2.811 -0.2440  0.7748 -1.0543
  122RES   H10834230   5.576   1.380   2.962 -0.5060  0.8812 -0.6451
  122RES   H10934231   5.745   1.311   3.131  1.0482 -2.0987  0.8952
  122RES   H11034232   5.807   1.191   3.023  0.1114  0.7854  1.1181
  122RES   H11134233   5.461   1.114   3.216 -0.1521  0.8714  1.8121
  122RES   H11234234   5.470   1.277   3.142 -0.6010 -0.2570  0.8019
  122RES   H11334235   5.559   1.235   3.295 -0.5564  1.4296 -0.5956
  122RES   O11434236   5.616   1.226   2.833 -0.1320  0.8309  1.2985
  122RES   C11534237   5.483   1.239   2.794 -0.3026  0.1159 -0.6871
  122RES   C11634238   5.460   1.162   2.659 -0.2198  0.2659  0.0398
  122RES   C11734239   5.315   1.105   2.652  0.2017  0.6481 -0.3531
  122RES   O11834240   5.312   0.985   2.574  0.1649  0.3021 -0.2718
  122RES   C11934241   5.263   0.997   2.436 -0.1845 -0.3888 -0.0371
  122RES   H12034242   5.436   1.171   2.865 -0.8932  0.0070 -1.1780
  122RES   H12134243   5.448   1.342   2.798 -1.1690 -0.1246 -1.7730
  122RES   H12234244   5.529   1.078   2.650  0.9302  1.4219 -2.4872
  122RES   H12334245   5.288   1.074   2.753  1.1295  2.4457  0.4770
  122RES   H12434246   5.236   1.178   2.633 -0.4932  0.4706  1.7474
  122RES   H12534247   5.336   1.051   2.376  1.3917 -2.6978 -0.2520
  122RES   H12634248   5.171   1.055   2.432 -0.0090 -0.1765 -0.9873
  122RES   H12734249   5.252   0.905   2.379  0.6048 -0.4014 -0.1660
  122RES   O12834250   5.467   1.237   2.541 -0.1965 -0.3186  0.4556
  122RES   C12934251   5.587   1.307   2.529 -0.1565 -0.1200 -0.7023
  122RES   C13034252   5.631   1.327   2.384 -0.1975  0.2622  0.0872
  122RES   C13134253   5.784   1.382   2.375  0.8215  0.0904 -0.0618
  122RES   O13234254   5.848   1.344   2.259  0.1751 -0.7373 -0.0826
  122RES   C13334255   5.958   1.417   2.222 -0.0619 -0.1938 -0.3681
  122RES   H13434256   5.587   1.409   2.567  1.0838  0.1343 -1.3655
  122RES   H13534257   5.668   1.252   2.577  0.7744 -0.7445 -2.9518
  122RES   H13634258   5.621   1.231   2.333 -0.5839  1.2067 -1.6565
  122RES   H13734259   5.838   1.338   2.459 -0.2364  0.8250  1.0232
  122RES   H13834260   5.795   1.488   2.398 -2.9764  0.4583  0.3916
  122RES   H13934261   5.932   1.523   2.226 -1.2164 -0.4850  0.0164
  122RES   H14034262   6.039   1.409   2.294 -0.2881 -0.1790 -0.1153
  122RES   H14134263   5.987   1.378   2.124  0.0652 -0.7887 -0.0967
  122RES   O14234264   5.563   1.431   2.314 -0.0726  0.4562  0.1818
  122RES   C14334265   5.434   1.396   2.288 -0.3623 -0.5195  0.1208
  122RES   C14434266   5.387   1.471   2.164 -0.2874 -0.5054  0.3787
  122RES   C14534267   5.238   1.447   2.148  0.0798 -0.3576  0.5109
  122RES   O14634268   5.215   1.312   2.110 -0.1089 -0.4060 -0.5079
  122RES   C14734269   5.077   1.284   2.088  0.3148 -0.0750  0.0087
  122RES   H14834270   5.437   1.292   2.257  0.1599 -0.8296  1.1826
  122RES   H14934271   5.376   1.405   2.380  0.5778 -1.0247  0.7584
  122RES   H15034272   5.405   1.579   2.171  0.3503 -0.4791 -1.4986
  122RES   H15134273   5.215   1.510   2.062  0.7082 -1.0514 -0.1703
  122RES   H15234274   5.189   1.491   2.234 -1.2909 -0.2501 -0.2987
  122RES   H15334275   5.016   1.276   2.179 -1.3381 -1.1506 -1.1662
  122RES   H15434276   5.076   1.191   2.033  3.9591 -0.6896  0.8708
  122RES   H15534277   5.026   1.364   2.034  1.0850  0.7578  0.5117
  122RES   O15634278   5.443   1.423   2.043  0.1901 -0.1481  0.1567
  122RES   C15734279   5.586   1.437   2.038 -0.4279 -0.5153 -0.0431
  122RES   C15834280   5.626   1.448   1.890 -0.0410  0.5070  0.7815
  122RES   C15934281   5.771   1.401   1.856 -0.1002  0.2677  0.3370
  122RES   O16034282   5.785   1.356   1.715  0.1467 -0.5379 -0.1626
  122RES   C16134283   5.758   1.459   1.623 -0.6444 -0.0835  0.9947
  122RES   H16234284   5.608   1.527   2.095 -1.1395 -0.6719  0.4842
  122RES   H16334285   5.633   1.348   2.080 -2.1486 -1.7795 -0.7165
  122RES   H16434286   5.561   1.382   1.832  0.4905  0.4029  0.3057
  122RES   H16534287   5.830   1.491   1.872  3.5030 -1.6515 -1.6458
  122RES   H16634288   5.795   1.320   1.925  0.2796  2.1731  2.5072
  122RES   H16734289   5.656   1.494   1.612 -0.3118  0.3809 -0.7960
  122RES   H16834290   5.780   1.407   1.530  0.3529  0.4487  0.9177
  122RES   H16934291   5.834   1.532   1.651 -1.2518  0.9314 -0.0015
  122RES   O17034292   5.595   1.583   1.856  0.3047 -0.4173 -0.1923
  122RES   C17134293   5.458   1.617   1.840 -0.6368 -1.2474  0.0700
  122RES   C17234294   5.438   1.701   1.714 -0.7649  0.5446 -0.0950
  122RES   C17334295   5.309   1.781   1.703 -0.5314 -0.8845  0.2336
  122RES   O17434296   5.333   1.911   1.655  0.6109 -0.1899 -0.1402
  122RES   C17534297   5.210   1.976   1.635 -0.5454 -0.2413  0.7014
  122RES   H17634298   5.441   1.678   1.928  1.3550  0.8208 -0.9115
  122RES   H17734299   5.393   1.530   1.838 -2.0331 -0.2771  1.8531
  122RES   H17834300   5.521   1.770   1.699 -1.0511  0.8954 -0.0659
  122RES   H17934301   5.234   1.730   1.643 -0.7263  1.9496 -2.0292
  122RES   H18034302   5.252   1.798   1.794 -0.9895  0.7340 -0.3415
  122RES   H18134303   5.142   1.983   1.720 -0.8687  0.6432  0.3775
  122RES   H18234304   5.160   1.931   1.550 -0.0911  0.0849  0.2567
  122RES   H18334305   5.238   2.077   1.604  0.7419 -0.7498  0.1823
  122RES   O18434306   5.436   1.611   1.597 -0.3843 -0.2290  0.3520
  122RES   C18534307   5.477   1.679   1.475  0.7375  0.7387 -0.6135
  122RES   C18634308   5.440   1.584   1.356 -0.2951  0.2343  0.2887
  122RES   C18734309   5.529   1.616   1.237 -0.7475 -0.4059  0.8601
  122RES   O18834310   5.507   1.521   1.132  0.7807 -0.4551 -0.1402
  122RES   C18934311   5.566   1.395   1.148  0.3669  0.1385 -0.3938
  122RES   H19034312   5.584   1.698   1.486  0.5956  0.9089  0.5670
  122RES   H19134313   5.428   1.776   1.463  2.1949  1.4793 -0.7339
  122RES   H19234314   5.470   1.486   1.396  0.1080  0.6090  0.9195
  122RES   H19334315   5.628   1.594   1.276 -1.5885 -3.0518  1.5639
  122RES   H19434316   5.510   1.720   1.209 -0.7085 -1.0157 -1.5874
  122RES   H19534317   5.542   1.332   1.062  0.8553  0.1865 -0.5661
  122RES   H19634318   5.673   1.403   1.130  0.4273 -1.7560 -1.0414
  122RES   H19734319   5.561   1.342   1.243 -1.1108  0.4110 -0.3169
  122RES   O19834320   5.307   1.591   1.314 -0.4898 -0.3005  0.0372
  122RES   C19934321   5.216   1.513   1.396 -0.5466  0.1380  0.8747
  122RES   C20034322   5.072   1.532   1.349 -0.9714  0.0665  0.0326
  122RES   C20134323   5.071   1.496   1.195 -0.0073 -0.2755 -0.1435
  122RES   O20234324   4.943   1.442   1.169  0.1419 -0.6389 -0.8907
  122RES   C20334325   4.921   1.377   1.046  0.0021  0.2128  0.3131
  122RES   H20434326   5.236   1.549   1.497  0.4523  0.1505  0.6758
  122RES   H20534327   5.245   1.409   1.389 -3.1091 -0.6571  1.7608
  122RES   H20634328   5.013   1.455   1.399 -1.0578 -1.0254 -1.6869
  122RES   H20734329   5.091   1.585   1.134 -2.2117 -0.5634 -1.3480
  122RES   H20834330   5.147   1.419   1.181 -1.3978 -1.6411 -0.3101
  122RES   H20934331   4.972   1.435   0.969 -0.7662  0.2367 -0.1883
  122RES   H21034332   4.815   1.358   1.029 -0.1401  0.4892  0.8603
  122RES   H21134333   4.973   1.281   1.048  0.1444  0.3047  1.8651
  122RES   O21234334   5.035   1.666   1.372  0.1077 -0.0328 -0.0801
  122RES   C21334335   4.906   1.697   1.355 -0.2692  0.3045  0.2106
  122RES   C21434336   4.810   1.621   1.443 -0.0301  0.2911 -0.3399
  122RES   C21534337   4.671   1.618   1.386 -0.2766  0.1094 -0.0867
  122RES   O21634338   4.594   1.522   1.459 -0.3200 -0.3864  0.7106
  122RES   C21734339   4.458   1.517   1.425 -0.8556 -0.3506  0.7731
  122RES   H21834340   4.866   1.691   1.254  2.1483  0.0308 -0.7513
  122RES   H21934341   4.898   1.803   1.380  1.0786  0.0566  1.7412
  122RES   H22034342   4.836   1.516   1.455 -1.0345  0.1640  0.8080
  122RES   H22134343   4.628   1.718   1.380  0.6547  0.4447 -1.6160
  122RES   H22234344   4.667   1.582   1.283  2.5815  0.1112 -0.2425
  122RES   H22334345   4.417   1.440   1.489  0.7538 -1.7561  0.1735
  122RES   H22434346   4.439   1.488   1.321  1.8272 -1.6376  0.5961
  122RES   H22534347   4.412   1.615   1.434 -0.8608 -0.0943 -1.5804
  122RES   O22634348   4.794   1.706   1.555  0.0662  0.0240 -0.2350
  122RES   C22734349   4.769   1.636   1.680 -0.1373  0.3438 -0.4208
  122RES   C22834350   4.727   1.730   1.795 -0.1886 -0.3566  0.1425
  122RES   C22934351   4.589   1.796   1.768  0.0017  0.1580  0.0461
  122RES   O23034352   4.563   1.902   1.861  0.0017  0.0969  0.1709
  122RES   C23134353   4.457   1.995   1.825  0.8073 -0.3222 -0.3750
  122RES   H23234354   4.860   1.585   1.711  1.3615  1.3057 -3.1168
  122RES   H23334355   4.698   1.556   1.659 -1.6174  1.1469  1.3464
  122RES   H23434356   4.796   1.815   1.804  0.2488 -0.8343  1.4736
  122RES   H23534357   4.505   1.726   1.772  1.2857 -1.3168  2.9612
  122RES   H23634358   4.584   1.836   1.667 -0.0170  0.3629  0.1279
  122RES   H23734359   4.389   1.959   1.747 -1.6057 -0.3701  1.7057
  122RES   H23834360   4.508   2.081   1.781 -0.4889  0.0488 -1.1777
  122RES   H23934361   4.404   2.033   1.912 -2.0727 -2.5572 -1.0665
  122RES   O24034362   4.719   1.660   1.920  0.2857  0.1292 -0.9107
  122RES   C24134363   4.775   1.723   2.031  0.5374 -0.9705  0.0739
  122RES   C24234364   4.926   1.681   2.047  0.2542 -0.6170 -0.6772
  122RES   C24334365   5.024   1.798   2.058  0.2713  0.2629 -0.1099
  122RES   O24434366   5.150   1.745   2.070  0.1258 -0.3566 -0.1072
  122RES   C24534367   5.244   1.848   2.084  0.3825 -0.4760  0.4291
  122RES   H24634368   4.718   1.686   2.116 -1.3586  0.5314 -0.5133
  122RES   H24734369   4.764   1.832   2.024  3.8069 -0.5826  0.1646
  122RES   H24834370   4.962   1.627   1.960  0.5190 -2.8095  0.7689
  122RES   H24934371   5.009   1.850   1.963  3.2147 -0.0256 -0.7629
  122RES   H25034372   5.000   1.871   2.136  0.2709  0.5008 -0.3305
  122RES   H25134373   5.342   1.806   2.101  0.7145  1.2855  3.2783
  122RES   H25234374   5.234   1.901   2.180  1.1543 -2.1558  1.4513
  122RES   H25334375   5.249   1.923   2.005  2.0143 -0.2402  0.7489
  122RES   O25434376   4.946   1.580   2.149  0.2696  0.2470  0.9563
  122RES   C25534377   4.953   1.636   2.280 -0.3578  0.4616 -0.2075
  122RES   C25634378   4.956   1.528   2.389  0.2537 -0.7931 -0.4049
  122RES   C25734379   5.020   1.578   2.526  0.3911  0.7811  0.5277
  122RES   O25834380   5.062   1.462   2.611 -0.2658  0.1843  1.0420
  122RES   C25934381   5.124   1.519   2.721 -0.2127  0.1426  0.2518
  122RES   H26034382   5.043   1.697   2.279 -0.4813  0.6416 -0.4684
  122RES   H26134383   4.873   1.706   2.303  1.6498  2.4007  1.0306
  122RES   H26234384   5.020   1.447   2.352  1.0895 -0.0970 -0.5054
  122RES   H26334385   5.108   1.641   2.511  1.5608 -0.8247  0.5026
  122RES   H26434386   4.941   1.631   2.578 -0.0774 -0.1229  0.7409
  122RES   H26534387   5.057   1.584   2.777 -0.0151  0.9360 -0.4231
  122RES   H26634388   5.217   1.573   2.701  0.0918  0.2910  2.0499
  122RES   H26734389   5.138   1.441   2.796 -3.8609  0.1460  1.0121
  122RES   O26834390   4.825   1.473   2.418 -0.0404  0.1845  0.5534
  122RES   C26934391   4.788   1.358   2.338  0.3423 -0.4213  0.1869
  122RES   C27034392   4.635   1.342   2.345  0.0772 -0.5645  0.3066
  122RES   C27134393   4.579   1.362   2.484  0.3154  0.1985 -0.3036
  122RES   O27234394   4.449   1.307   2.481  0.4123  0.0849 -0.1957
  122RES   C27334395   4.391   1.328   2.613  0.8071 -0.2929  0.1375
  122RES   H27434396   4.851   1.277   2.374  0.3759  0.1280  1.3711
  122RES   H27534397   4.804   1.381   2.233 -2.2811 -0.4647 -0.2637
  122RES   H27634398   4.582   1.413   2.282 -0.0840 -2.0349 -1.2440
  122RES   H27734399   4.580   1.468   2.510  0.8108  0.3301 -0.8475
  122RES   H27834400   4.638   1.312   2.561 -1.9510 -2.3821 -0.1634
  122RES   H27934401   4.398   1.432   2.643  0.2071  0.1620 -1.2394
  122RES   H28034402   4.444   1.268   2.687 -0.6686 -0.9087  0.6929
  122RES   H28134403   4.287   1.297   2.606  1.2675 -2.2009  1.4208
  122RES   H28234404   4.593   1.256   2.293 -0.4237 -1.5715  2.3163
  123RES     O134405   4.789   4.449   4.325 -0.1099 -0.4527 -0.5617
  123RES     C234406   4.858   4.544   4.401  0.6878  0.0268  0.3504
  123RES     C334407   4.952   4.491   4.495 -0.4773  0.1516 -0.0807
  123RES     C434408   5.049   4.594   4.562 -0.4759 -0.2716 -0.7587
  123RES     O534409   5.159   4.534   4.619 -0.9044 -0.1520 -0.2929
  123RES     C634410   5.247   4.620   4.688 -0.5895  0.1009  0.5036
  123RES     H734411   4.910   4.598   4.322  0.2518 -0.1607 -0.0701
  123RES     H834412   4.781   4.608   4.445 -1.3521 -1.2090 -1.2887
  123RES     H934413   5.005   4.408   4.448 -0.0441  1.0616 -1.2025
  123RES    H1034414   4.994   4.665   4.624  0.1301 -0.4788  0.0152
  123RES    H1134415   5.103   4.644   4.482  0.8324  1.2177  1.0035
  123RES    H1234416   5.255   4.722   4.650 -0.5584  0.3274  1.1092
  123RES    H1334417   5.218   4.651   4.789  0.0487  1.8424  0.1593
  123RES    H1434418   5.347   4.575   4.687 -1.6789 -2.4527  1.7740
  123RES    H1534419   4.775   4.384   4.393  0.5028  1.7169  1.6900
  123RES    O1634420   4.873   4.449   4.604  0.8750 -0.0207 -0.0406
  123RES    C1734421   4.935   4.354   4.685 -0.0280  0.2402 -0.2727
  123RES    C1834422   4.845   4.232   4.716 -0.1762  0.0992 -0.4080
  123RES    C1934423   4.720   4.270   4.792 -0.1603 -0.1517  0.7380
  123RES    O2034424   4.633   4.167   4.822  0.5083 -0.2715  0.2021
  123RES    C2134425   4.648   4.102   4.943  0.0879  0.5265  0.1360
  123RES    H2234426   4.962   4.407   4.776  0.1068 -1.6954  0.8374
  123RES    H2334427   5.034   4.324   4.649 -0.9970 -0.4982 -2.4342
  123RES    H2434428   4.904   4.164   4.778  1.8150  2.2485  0.1020
  123RES    H2534429   4.750   4.330   4.878 -1.9688  0.1876  1.1488
  123RES    H2634430   4.654   4.335   4.735  0.3157 -1.4783 -1.3892
  123RES    H2734431   4.579   4.019   4.928  0.8781 -0.1526  0.1763
  123RES    H2834432   4.608   4.169   5.019 -0.3910  0.4353 -0.0350
  123RES    H2934433   4.753   4.085   4.970 -0.3615  0.2460  1.7559
  123RES    O3034434   4.810   4.168   4.593 -0.2211  0.2724  0.4766
  123RES    C3134435   4.762   4.034   4.591 -0.1345  0.4428 -0.4488
  123RES    C3234436   4.764   3.976   4.443 -0.3543  0.1504  0.1837
  123RES    C3334437   4.727   3.827   4.436 -0.1062  0.5624  0.7833
  123RES    O3434438   4.586   3.808   4.461 -0.1954  0.2203  0.5974
  123RES    C3534439   4.538   3.673   4.429 -0.3362 -0.0339 -0.5000
  123RES    H3634440   4.822   3.972   4.658 -0.6306 -1.1915 -1.4816
  123RES    H3734441   4.660   4.020   4.627  0.9393 -2.9840  1.4948
  123RES    H3834442   4.709   4.046   4.380  0.8000  1.2933  0.4192
  123RES    H3934443   4.774   3.772   4.517  0.6592 -1.1745 -0.8109
  123RES    H4034444   4.755   3.785   4.340  0.9841  1.8926  0.5072
  123RES    H4134445   4.463   3.631   4.496  0.7054 -0.7071  0.2732
  123RES    H4234446   4.622   3.603   4.430 -0.6118 -0.3661  0.0264
  123RES    H4334447   4.500   3.673   4.327 -0.7318 -2.6373 -0.3901
  123RES    O4434448   4.904   3.972   4.397  0.0889  0.2599  0.6489
  123RES    C4534449   4.965   4.096   4.362 -0.9023 -1.1220  0.2353
  123RES    C4634450   5.090   4.066   4.276  0.2508 -0.0778 -0.7839
  123RES    C4734451   5.168   3.942   4.321 -0.4231  0.6667 -0.2788
  123RES    O4834452   5.305   3.949   4.275 -0.2750  0.0037 -0.4178
  123RES    C4934453   5.380   3.836   4.312 -0.6072 -0.1548 -0.4325
  123RES    H5034454   4.994   4.149   4.452 -0.3964 -0.5836 -0.2420
  123RES    H5134455   4.897   4.159   4.305  0.8877 -0.4861 -1.2637
  123RES    H5234456   5.154   4.154   4.282  1.2768 -0.9828  2.5163
  123RES    H5334457   5.176   3.940   4.429 -0.2463  2.4026 -0.2439
  123RES    H5434458   5.125   3.849   4.285 -0.0592  0.6846 -0.7624
  123RES    H5534459   5.479   3.880   4.324 -1.2830  0.5852  2.9899
  123RES    H5634460   5.368   3.748   4.248  1.2934 -0.5278 -0.2981
  123RES    H5734461   5.351   3.806   4.413 -0.9793  2.7493  0.3683
  123RES    O5834462   5.042   4.054   4.144 -0.1145 -0.0442 -0.2153
  123RES    C5934463   5.137   4.026   4.046 -0.4276  0.0283 -0.1262
  123RES    C6034464   5.058   4.043   3.913 -0.9552  0.4001  0.2849
  123RES    C6134465   5.129   3.973   3.804 -0.1470  0.0771 -0.0794
  123RES    O6234466   5.042   3.932   3.699 -0.2643  0.2988 -0.2846
  123RES    C6334467   5.090   3.819   3.626 -0.4983  0.3355  0.0432
  123RES    H6434468   5.172   3.923   4.054  0.0165  0.0713 -1.4190
  123RES    H6534469   5.227   4.087   4.051  0.2159 -0.6075 -2.9722
  123RES    H6634470   4.956   4.004   3.917 -0.6930 -0.4332 -0.7852
  123RES    H6734471   5.207   4.037   3.762 -0.5191  1.3460  1.1393
  123RES    H6834472   5.182   3.884   3.838 -0.9980 -0.0581  0.9185
  123RES    H6934473   5.030   3.794   3.539 -1.4297 -0.4327  0.8860
  123RES    H7034474   5.097   3.731   3.690  2.0959 -2.4207 -3.8024
  123RES    H7134475   5.193   3.842   3.596 -0.8452  0.2745 -1.2053
  123RES    O7234476   5.054   4.183   3.882  0.2204  0.1053  0.2489
  123RES    C7334477   4.992   4.268   3.980 -0.1795  0.7139  0.3040
  123RES    C7434478   4.962   4.403   3.912  0.0893 -0.1079  0.2185
  123RES    C7534479   4.949   4.512   4.015  0.2516 -0.0822  0.6414
  123RES    O7634480   4.937   4.643   3.941  0.0636  0.7918 -0.1086
  123RES    C7734481   4.921   4.747   4.028  0.4966  0.6161 -0.4539
  123RES    H7834482   4.900   4.229   4.022 -1.4985  2.3714 -0.9776
  123RES    H7934483   5.052   4.284   4.070  0.3107  1.5864 -0.1738
  123RES    H8034484   5.038   4.435   3.841 -0.0953  0.2826  0.1930
  123RES    H8134485   5.034   4.532   4.080  1.3855 -0.3058 -0.7454
  123RES    H8234486   4.861   4.486   4.073 -2.0283  0.7403 -2.3044
  123RES    H8334487   4.836   4.729   4.094 -1.6705  4.8907 -1.9024
  123RES    H8434488   4.906   4.841   3.974  2.1692  0.8276 -0.5922
  123RES    H8534489   5.012   4.754   4.088 -0.3152 -0.7938  0.9783
  123RES    O8634490   4.839   4.388   3.852  0.3335  0.3740  0.6816
  123RES    C8734491   4.833   4.314   3.727  0.2219 -0.0198  0.1625
  123RES    C8834492   4.685   4.311   3.680 -0.5528  0.4841 -0.1479
  123RES    C8934493   4.651   4.354   3.542 -0.5892 -0.0252 -0.4814
  123RES    O9034494   4.735   4.297   3.437 -0.6889 -0.3754  0.5517
  123RES    C9134495   4.684   4.168   3.400 -0.0611  0.4685 -0.3168
  123RES    H9234496   4.896   4.360   3.651  0.3487  0.3970  0.5152
  123RES    H9334497   4.878   4.216   3.737  2.4334  0.8599 -1.0415
  123RES    H9434498   4.634   4.390   3.735  0.4847  0.4263  0.9353
  123RES    H9534499   4.548   4.345   3.510 -0.9411 -1.0430  0.8799
  123RES    H9634500   4.668   4.461   3.535  0.9276 -0.1633  0.8688
  123RES    H9734501   4.740   4.142   3.311  0.4910  2.0193 -0.4296
  123RES    H9834502   4.709   4.092   3.475 -0.9141  0.5109  0.0132
  123RES    H9934503   4.578   4.169   3.377 -0.1662 -2.9281 -0.2375
  123RES   O10034504   4.630   4.184   3.712  0.1826  0.0640 -0.3269
  123RES   C10134505   4.588   4.181   3.845  0.3180  0.6641  0.0270
  123RES   C10234506   4.566   4.038   3.908  0.5725  0.4565 -0.4989
  123RES   C10334507   4.691   3.959   3.929 -1.2215 -0.0429  0.4242
  123RES   O10434508   4.667   3.842   4.001 -0.2472 -0.2750 -0.3849
  123RES   C10534509   4.784   3.769   4.019  0.2325  0.2449 -0.3695
  123RES   H10634510   4.488   4.225   3.850 -0.0747 -0.4248  2.3529
  123RES   H10734511   4.657   4.244   3.902 -0.4641  1.7771 -0.2290
  123RES   H10834512   4.519   4.060   4.003  3.0766  1.2416  0.6179
  123RES   H10934513   4.759   4.017   3.991 -1.3837  1.0547 -0.3981
  123RES   H11034514   4.743   3.942   3.835 -0.0515  1.1726  0.8303
  123RES   H11134515   4.827   3.798   4.115 -1.1744 -1.4578  0.8133
  123RES   H11234516   4.860   3.798   3.947  1.0531  1.0016  0.7937
  123RES   H11334517   4.774   3.660   4.019  0.2634  0.1976  2.2460
  123RES   O11434518   4.480   3.980   3.811 -0.1008 -0.4174 -0.1509
  123RES   C11534519   4.341   3.993   3.839 -0.6143  0.2529  0.2310
  123RES   C11634520   4.251   3.950   3.725 -0.4119  0.6784  0.1754
  123RES   C11734521   4.284   3.804   3.682 -1.1878  0.2232 -0.5005
  123RES   O11834522   4.247   3.782   3.545 -0.7089  0.5798 -0.4009
  123RES   C11934523   4.254   3.642   3.504  0.2905 -0.2997  0.4078
  123RES   H12034524   4.321   3.938   3.931  2.7913 -0.6662  0.4887
  123RES   H12134525   4.320   4.097   3.865 -2.3377 -0.4419  1.7702
  123RES   H12234526   4.285   4.020   3.649  3.9796 -1.2220  0.1901
  123RES   H12334527   4.389   3.775   3.695 -0.4834  2.0834 -1.7131
  123RES   H12434528   4.228   3.744   3.753 -0.1396  0.6295  0.6827
  123RES   H12534529   4.353   3.600   3.525  0.2090 -0.0411  1.3458
  123RES   H12634530   4.240   3.634   3.396 -2.3418 -0.2448  0.7193
  123RES   H12734531   4.180   3.575   3.546 -1.3088  1.9542  1.2756
  123RES   O12834532   4.115   3.962   3.758  0.2462  0.7012 -0.1796
  123RES   C12934533   4.056   4.089   3.725 -0.1144  0.2802  0.0068
  123RES   C13034534   3.903   4.079   3.754  0.2527  0.1675  0.4679
  123RES   C13134535   3.829   4.199   3.707  0.3972 -0.3699 -0.4772
  123RES   O13234536   3.692   4.186   3.691  0.2377 -0.4225  0.4534
  123RES   C13334537   3.625   4.309   3.654  0.1231  0.2956 -0.0170
  123RES   H13434538   4.108   4.169   3.777 -0.5427  0.3363  0.3543
  123RES   H13534539   4.071   4.098   3.617  2.1358 -0.4223  0.2376
  123RES   H13634540   3.861   3.993   3.702  0.6161  0.4309 -0.2627
  123RES   H13734541   3.868   4.227   3.609  0.8410  1.4377  0.1801
  123RES   H13834542   3.852   4.273   3.784  0.3201 -1.4487  0.5805
  123RES   H13934543   3.649   4.395   3.717 -0.0307  0.1710  0.2100
  123RES   H14034544   3.650   4.347   3.555 -2.2293  1.7970 -0.0726
  123RES   H14134545   3.517   4.296   3.645  0.1168  0.2483  0.1429
  123RES   O14234546   3.874   4.074   3.902  0.2996 -0.3610  0.5120
  123RES   C14334547   3.891   3.947   3.964  0.1884 -0.6890 -1.0207
  123RES   C14434548   3.803   3.925   4.093 -0.0353 -0.0883 -0.2439
  123RES   C14534549   3.861   3.814   4.186 -0.4940  0.0443  0.5148
  123RES   O14634550   3.786   3.786   4.302 -0.6651 -0.4878 -0.4734
  123RES   C14734551   3.850   3.681   4.375 -0.4308  0.8353 -0.0119
  123RES   H14834552   3.861   3.863   3.901 -1.0813 -1.0536  0.0448
  123RES   H14934553   3.995   3.934   3.993  0.9122  2.6258 -1.9616
  123RES   H15034554   3.791   4.017   4.151 -2.6989 -1.0632  0.8081
  123RES   H15134555   3.955   3.855   4.224 -0.2590  2.6586 -2.7384
  123RES   H15234556   3.880   3.721   4.132 -0.1687  1.2915 -1.5597
  123RES   H15334557   3.843   3.589   4.317 -0.9674  0.8067  0.0911
  123RES   H15434558   3.791   3.664   4.465  0.4765  1.2536  0.6653
  123RES   H15534559   3.953   3.696   4.405 -0.1475 -0.9692 -0.0583
  123RES   O15634560   3.678   3.886   4.063 -0.1640 -0.1156 -0.4316
  123RES   C15734561   3.588   3.981   4.008  0.1921 -0.0333  0.3644
  123RES   C15834562   3.451   3.913   3.983  0.1791 -0.1003 -0.3443
  123RES   C15934563   3.366   4.015   3.908  0.1415 -0.0832  0.8011
  123RES   O16034564   3.248   3.972   3.838  0.7196  0.0887 -0.6270
  123RES   C16134565   3.188   4.079   3.769  0.2242  0.1329 -0.0617
  123RES   H16234566   3.582   4.074   4.064  2.7008  1.0478 -1.0708
  123RES   H16334567   3.633   4.010   3.913  0.5302 -1.0200  0.2126
  123RES   H16434568   3.469   3.824   3.922  2.1097  0.1429 -0.1637
  123RES   H16534569   3.345   4.103   3.969 -0.1674  1.6036 -1.6713
  123RES   H16634570   3.434   4.054   3.833 -1.1665 -0.5429 -0.6622
  123RES   H16734571   3.156   4.146   3.849 -1.4997  1.8762 -2.1726
  123RES   H16834572   3.110   4.039   3.704 -0.7134  0.5860  0.7739
  123RES   H16934573   3.263   4.129   3.708  0.5800  1.7197  1.6208
  123RES   O17034574   3.392   3.894   4.107 -0.3112  0.0621  0.2838
  123RES   C17134575   3.275   3.814   4.112  0.5336  0.0581 -0.0575
  123RES   C17234576   3.219   3.827   4.258 -0.6532  0.0035 -0.6867
  123RES   C17334577   3.093   3.743   4.278 -0.0744  0.2531 -0.0157
  123RES   O17434578   3.004   3.760   4.170 -0.4473  0.1983  0.3924
  123RES   C17534579   2.867   3.739   4.198  0.2023 -0.3815 -0.6339
  123RES   H17634580   3.290   3.706   4.099  1.7725  0.1671  0.4065
  123RES   H17734581   3.195   3.850   4.048  0.8832  1.1209  0.0901
  123RES   H17834582   3.290   3.786   4.329 -0.4584  0.8879 -0.3605
  123RES   H17934583   3.126   3.639   4.279 -0.2232  0.1893 -1.1317
  123RES   H18034584   3.040   3.775   4.367 -1.0953  0.7333 -0.7929
  123RES   H18134585   2.821   3.677   4.121 -0.1159  0.9078 -1.5033
  123RES   H18234586   2.809   3.827   4.227 -1.3888 -2.3005  2.1534
  123RES   H18334587   2.851   3.682   4.289 -1.9545  1.1852  0.0115
  123RES   O18434588   3.191   3.968   4.287 -0.1070  0.5697  0.5434
  123RES   C18534589   3.089   4.035   4.221  0.1651 -0.0361 -0.0264
  123RES   C18634590   3.104   4.188   4.230 -0.1065  0.3239  0.1313
  123RES   C18734591   2.985   4.261   4.162  0.0779  0.4938 -0.1721
  123RES   O18834592   3.009   4.397   4.187  0.1676 -0.0701 -0.1431
  123RES   C18934593   2.900   4.479   4.183 -0.1440  0.8581 -0.1438
  123RES   H19034594   2.995   4.004   4.267  0.3818  1.3488  1.4104
  123RES   H19134595   3.098   4.003   4.117  1.0579 -0.3518  0.1440
  123RES   H19234596   3.088   4.223   4.332  3.0502 -0.3279  0.8905
  123RES   H19334597   2.893   4.232   4.212 -0.9263  2.2169 -0.9629
  123RES   H19434598   2.974   4.236   4.056 -2.4922  0.9520 -0.0503
  123RES   H19534599   2.856   4.474   4.083 -0.5705 -0.8855  0.1157
  123RES   H19634600   2.820   4.447   4.250  1.3277  1.2180  1.8278
  123RES   H19734601   2.930   4.583   4.199 -0.0047  0.7919  0.0230
  123RES   O19834602   3.216   4.237   4.167 -0.3470 -0.3094  0.6042
  123RES   C19934603   3.337   4.220   4.241  1.2054  0.1970 -0.5805
  123RES   C20034604   3.440   4.319   4.186  0.3251  0.2264  0.4081
  123RES   C20134605   3.579   4.332   4.263  0.2448  0.0755 -0.5951
  123RES   O20234606   3.680   4.322   4.167 -0.1835  0.1467  0.1806
  123RES   C20334607   3.815   4.316   4.222  0.0741 -0.0385  0.3510
  123RES   H20434608   3.377   4.119   4.243  0.5541 -0.0379  0.6394
  123RES   H20534609   3.318   4.238   4.346  1.4885 -0.3293 -0.4398
  123RES   H20634610   3.468   4.292   4.084 -0.0914 -1.8544  0.8203
  123RES   H20734611   3.581   4.424   4.321 -1.7055 -0.0949 -0.2194
  123RES   H20834612   3.585   4.246   4.331 -3.0485 -0.7099 -1.2356
  123RES   H20934613   3.886   4.296   4.141 -0.8490 -0.1378 -0.4492
  123RES   H21034614   3.820   4.227   4.285  2.3811 -0.1689  0.0568
  123RES   H21134615   3.843   4.399   4.286  0.8990 -0.5716  0.6903
  123RES   O21234616   3.376   4.446   4.182  0.2863 -0.4408  0.0822
  123RES   C21334617   3.452   4.546   4.115 -0.1404 -0.3899  0.3418
  123RES   C21434618   3.357   4.675   4.109 -0.4749  1.0229 -0.4251
  123RES   C21534619   3.259   4.691   4.232 -0.3546  0.1930 -0.6192
  123RES   O21634620   3.201   4.823   4.252  0.5968 -0.6898 -1.0121
  123RES   C21734621   3.144   4.831   4.375  0.4189 -0.3407 -0.0373
  123RES   H21834622   3.494   4.512   4.021  0.4920 -0.2073  0.5552
  123RES   H21934623   3.543   4.570   4.170 -1.0231 -0.2728  1.7681
  123RES   H22034624   3.427   4.758   4.116  1.5354 -0.7000  0.6634
  123RES   H22134625   3.176   4.621   4.238  2.1681 -2.7908  0.5918
  123RES   H22234626   3.328   4.669   4.314 -0.6478 -2.3611 -1.0080
  123RES   H22334627   3.066   4.905   4.389  1.2868  0.1437  2.5150
  123RES   H22434628   3.226   4.872   4.434  1.0827  0.9745 -1.8098
  123RES   H22534629   3.106   4.737   4.414 -0.0049 -0.2867 -0.3115
  123RES   O22634630   3.290   4.681   3.980  0.1340  0.1147 -0.2349
  123RES   C22734631   3.209   4.564   3.947  0.3510 -0.2130 -0.0076
  123RES   C22834632   3.098   4.597   3.835  0.5289 -0.5118  0.2491
  123RES   C22934633   3.059   4.475   3.752  0.0360  0.1355  0.6529
  123RES   O23034634   2.954   4.499   3.647  0.5497  0.0963  0.0457
  123RES   C23134635   2.943   4.400   3.553  0.5887  0.4486  0.5408
  123RES   H23234636   3.161   4.506   4.025 -1.8434  0.9953 -0.3918
  123RES   H23334637   3.283   4.492   3.914  1.1981  0.2378  0.8759
  123RES   H23434638   3.131   4.669   3.760  1.3383 -1.9062 -0.7618
  123RES   H23534639   3.025   4.394   3.816  0.2417 -0.8540 -0.4837
  123RES   H23634640   3.151   4.443   3.704 -0.7403  1.4987 -1.8632
  123RES   H23734641   2.903   4.304   3.585  1.2410  0.5232  1.5752
  123RES   H23834642   3.041   4.385   3.508  1.1301 -0.1345  1.9269
  123RES   H23934643   2.860   4.437   3.492  0.9491  2.2567  1.1243
  123RES   O24034644   2.979   4.632   3.902  0.1679  0.9586  0.2100
  123RES   C24134645   2.983   4.765   3.947  0.0494 -0.2579 -0.3065
  123RES   C24234646   2.837   4.785   3.985  0.6163 -0.1305  0.7507
  123RES   C24334647   2.832   4.924   4.048 -0.4097  0.1330  0.0800
  123RES   O24434648   2.711   4.939   4.120  0.1152  0.2000 -0.0496
  123RES   C24534649   2.678   5.067   4.166 -0.8903  0.2386  0.1480
  123RES   H24634650   3.028   4.831   3.872 -2.2351  0.5279 -1.0276
  123RES   H24734651   3.042   4.761   4.038 -1.5434 -1.2378  0.6906
  123RES   H24834652   2.792   4.705   4.045 -1.2490  0.7151  0.5012
  123RES   H24934653   2.920   4.933   4.113 -2.0330 -1.1786  2.5559
  123RES   H25034654   2.841   5.008   3.979  1.8630 -0.2914 -0.1784
  123RES   H25134655   2.717   5.139   4.094 -1.1690  1.0624  0.8251
  123RES   H25234656   2.715   5.096   4.264 -2.1660  2.7376 -0.0889
  123RES   H25334657   2.571   5.089   4.162 -1.5645 -2.8041 -0.2982
  123RES   O25434658   2.763   4.789   3.864 -0.3964 -0.2634 -0.1346
  123RES   C25534659   2.706   4.664   3.817 -0.2545 -0.8450 -0.1695
  123RES   C25634660   2.583   4.683   3.726  0.8485  0.1787 -0.5004
  123RES   C25734661   2.540   4.552   3.655 -0.3529  0.0341  0.6808
  123RES   O25834662   2.513   4.454   3.755 -0.0195  0.1903 -0.3066
  123RES   C25934663   2.470   4.326   3.701 -0.3291  0.1407  0.0532
  123RES   H26034664   2.774   4.614   3.749  0.5822  0.7071 -0.4942
  123RES   H26134665   2.682   4.598   3.900 -1.2916 -0.6813 -0.3251
  123RES   H26234666   2.612   4.746   3.641  1.4266 -0.0435 -0.4763
  123RES   H26334667   2.447   4.572   3.603 -1.9699 -1.4483  2.9544
  123RES   H26434668   2.620   4.520   3.588 -0.6051  0.0222  0.3883
  123RES   H26534669   2.533   4.277   3.627  0.7790  0.8291  0.5346
  123RES   H26634670   2.374   4.334   3.650  0.6612 -2.2844 -2.3326
  123RES   H26734671   2.455   4.251   3.779  2.0404 -1.8395 -1.3183
  123RES   O26834672   2.471   4.738   3.795  0.0300 -0.9364  0.0031
  123RES   C26934673   2.487   4.878   3.832  0.3415  0.9233  0.4136
  123RES   C27034674   2.345   4.947   3.838  1.1009  0.1264 -0.1081
  123RES   C27134675   2.360   5.099   3.860 -0.0974  0.1728 -0.5280
  123RES   O27234676   2.400   5.167   3.746 -0.0439 -0.1124 -0.3341
  123RES   C27334677   2.440   5.300   3.764 -0.3529 -0.2125  0.7261
  123RES   H27434678   2.554   4.930   3.763  0.6704  0.3410  0.2893
  123RES   H27534679   2.526   4.884   3.933  1.6419 -0.5709  0.0218
  123RES   H27634680   2.292   4.945   3.743  0.1436  3.0554  0.3385
  123RES   H27734681   2.427   5.105   3.946  0.3619  1.7449 -0.9903
  123RES   H27834682   2.259   5.131   3.887  0.5490  1.8270 -0.0522
  123RES   H27934683   2.532   5.306   3.822 -0.6277 -0.4827  1.1949
  123RES   H28034684   2.366   5.353   3.824 -2.2852 -0.1938 -1.5909
  123RES   H28134685   2.450   5.342   3.664 -1.4064 -1.6209 -0.0076
  123RES   H28234686   2.289   4.898   3.919  0.0402  1.3064 -0.1216
  124RES     O134687   5.519   1.632   6.278 -0.3116 -0.0377  0.6249
  124RES     C234688   5.421   1.729   6.300 -0.4630  0.4372 -0.1197
  124RES     C334689   5.461   1.855   6.218  0.2327 -0.6829  0.0995
  124RES     C434690   5.600   1.913   6.268 -0.8466  0.1067  0.0113
  124RES     O534691   5.597   2.051   6.263 -0.3899 -0.6051 -0.1591
  124RES     C634692   5.722   2.100   6.317  0.0792  0.3688  0.3423
  124RES     H734693   5.322   1.694   6.271 -1.6672  1.3815  2.7139
  124RES     H834694   5.408   1.747   6.406  1.6928  0.3360  0.1705
  124RES     H934695   5.388   1.933   6.236 -0.9886 -1.6652 -0.5065
  124RES    H1034696   5.690   1.870   6.224 -0.6521  0.1029  0.4090
  124RES    H1134697   5.602   1.882   6.373  0.2666 -0.1876 -0.0908
  124RES    H1234698   5.723   2.070   6.422 -0.2223 -0.5007  0.1056
  124RES    H1334699   5.808   2.058   6.265 -0.2600 -1.5666  1.2797
  124RES    H1434700   5.727   2.209   6.319  2.9765  0.2431  1.0944
  124RES    H1534701   5.525   1.620   6.184  0.5288  0.1871  0.6438
  124RES    O1634702   5.471   1.817   6.078  0.4314  0.0740  0.0327
  124RES    C1734703   5.499   1.917   5.978 -0.0057  0.2174  0.5889
  124RES    C1834704   5.544   1.837   5.854  0.0491  0.1551 -0.4982
  124RES    C1934705   5.578   1.941   5.745 -0.0529  0.8779 -0.0733
  124RES    O2034706   5.555   1.889   5.612 -1.0080  0.0316  0.1890
  124RES    C2134707   5.544   1.991   5.511  0.2101  0.3634 -0.4105
  124RES    H2234708   5.579   1.982   6.014 -0.1181 -0.9255  2.9661
  124RES    H2334709   5.416   1.983   5.953 -0.4792 -0.0605  1.4146
  124RES    H2434710   5.456   1.786   5.817  0.8000 -1.0658 -0.6333
  124RES    H2534711   5.512   2.027   5.758 -2.0591 -0.4381 -1.3110
  124RES    H2634712   5.680   1.980   5.748  0.5603 -0.7102 -0.1144
  124RES    H2734713   5.471   2.067   5.538 -1.4646 -1.9022  1.5868
  124RES    H2834714   5.521   1.952   5.412  0.0400  1.4055 -0.7879
  124RES    H2934715   5.640   2.040   5.497  0.4597 -0.3981 -1.4749
  124RES    O3034716   5.665   1.762   5.877  0.0226 -0.2030 -0.2665
  124RES    C3134717   5.723   1.685   5.771  0.3606 -0.1487 -0.6495
  124RES    C3234718   5.848   1.612   5.823 -0.2124 -0.2292  0.3711
  124RES    C3334719   5.945   1.564   5.711  0.4261 -0.5851  0.4689
  124RES    O3434720   6.031   1.672   5.667  0.0475  0.0834  0.1701
  124RES    C3534721   6.131   1.619   5.584 -0.4145  0.2149  0.4444
  124RES    H3634722   5.644   1.618   5.739 -1.0313  0.7343  0.8380
  124RES    H3734723   5.760   1.754   5.695 -0.2513  0.9023  0.0004
  124RES    H3834724   5.901   1.674   5.896  1.3716  0.0596 -1.0021
  124RES    H3934725   5.880   1.523   5.633 -1.3214  1.6987  0.6502
  124RES    H4034726   6.016   1.485   5.735  0.3228 -0.3431  1.5910
  124RES    H4134727   6.192   1.545   5.636  0.6998  0.1022 -1.0176
  124RES    H4234728   6.198   1.697   5.549 -1.0015  0.3086 -0.4776
  124RES    H4334729   6.089   1.577   5.492 -0.7097  2.7967 -0.6486
  124RES    O4434730   5.818   1.491   5.892 -0.0353 -0.2640 -0.2347
  124RES    C4534731   5.743   1.492   6.013  0.1812 -0.5394  0.1538
  124RES    C4634732   5.718   1.345   6.063  0.1509  0.3456  0.0175
  124RES    C4734733   5.660   1.250   5.952  0.4326  0.5052  1.0191
  124RES    O4834734   5.577   1.148   6.007  0.9995 -0.0866 -0.7854
  124RES    C4934735   5.596   1.021   5.942 -0.1823 -0.2675 -0.2376
  124RES    H5034736   5.652   1.550   5.999  1.6190  1.6194 -0.5897
  124RES    H5134737   5.799   1.544   6.092  0.2116  1.5866 -1.2414
  124RES    H5234738   5.643   1.352   6.142 -0.5809  2.5003 -0.8263
  124RES    H5334739   5.593   1.302   5.883  0.7082  0.8115  0.9833
  124RES    H5434740   5.744   1.213   5.893  0.3971 -3.9049  3.4905
  124RES    H5534741   5.700   0.994   5.956  0.0679  1.2181  0.9146
  124RES    H5634742   5.584   1.012   5.834 -0.6921  0.9739 -0.2856
  124RES    H5734743   5.525   0.950   5.987  0.0327 -0.7984 -0.7334
  124RES    O5834744   5.843   1.299   6.129 -0.1992  0.6052 -0.2758
  124RES    C5934745   5.812   1.182   6.202 -0.1430 -0.0002  0.1315
  124RES    C6034746   5.919   1.132   6.294 -0.7363  0.5914  0.1055
  124RES    C6134747   6.041   1.089   6.208 -0.1085 -0.4988 -0.7180
  124RES    O6234748   6.015   0.971   6.123 -0.7387 -0.5676 -0.2867
  124RES    C6334749   6.136   0.904   6.095  0.2722 -0.1485  0.1243
  124RES    H6434750   5.789   1.093   6.143 -1.7623 -0.6175  1.6426
  124RES    H6534751   5.722   1.189   6.263 -0.4922 -0.0484 -0.3704
  124RES    H6634752   5.919   1.216   6.364 -0.1314  0.5666  0.1347
  124RES    H6734753   6.073   1.182   6.160  2.5195  0.0521  1.9121
  124RES    H6834754   6.126   1.068   6.273 -0.6175 -3.2989 -0.9348
  124RES    H6934755   6.193   0.868   6.180 -0.8411  0.3003  1.0832
  124RES    H7034756   6.201   0.970   6.038  0.0595 -0.1029 -0.0644
  124RES    H7134757   6.112   0.822   6.028  1.4202  0.8595 -1.5596
  124RES    O7234758   5.872   1.017   6.357 -0.3279 -0.5817  0.6305
  124RES    C7334759   5.853   1.033   6.500  0.1904 -0.2670  0.6069
  124RES    C7434760   5.986   1.022   6.578  0.0053 -0.4106 -0.1825
  124RES    C7534761   5.960   1.017   6.730 -0.6499  0.1290  0.2351
  124RES    O7634762   6.081   0.983   6.808  0.2049 -0.1387  0.0626
  124RES    C7734763   6.061   0.959   6.947  0.2367 -0.6905  0.3717
  124RES    H7834764   5.815   1.132   6.526 -1.4475 -1.5516  3.4132
  124RES    H7934765   5.777   0.961   6.532 -0.4374  0.6618  1.2556
  124RES    H8034766   6.044   0.936   6.544  1.3943  0.8963 -1.1818
  124RES    H8134767   5.892   0.934   6.748 -1.0489  0.4661  0.2827
  124RES    H8234768   5.924   1.110   6.773 -2.4718  0.1009 -1.2035
  124RES    H8334769   6.041   1.049   7.005 -0.7191 -0.8289  0.2557
  124RES    H8434770   6.150   0.921   6.998 -1.6213 -1.3375  3.1996
  124RES    H8534771   5.982   0.898   6.991 -1.6483  0.7386 -0.9659
  124RES    O8634772   6.059   1.141   6.546  0.5397 -0.3391  0.1465
  124RES    C8734773   6.201   1.143   6.536  0.2956 -0.2975 -0.0802
  124RES    C8834774   6.244   1.289   6.503 -0.0560  0.3037 -0.2211
  124RES    C8934775   6.394   1.319   6.520 -0.6510  0.7374  0.3855
  124RES    O9034776   6.468   1.259   6.417  0.1410 -0.3124  0.3439
  124RES    C9134777   6.606   1.263   6.437 -0.4462  0.0974 -0.1253
  124RES    H9234778   6.229   1.106   6.634  0.6533 -1.8694 -0.7654
  124RES    H9334779   6.235   1.068   6.465  2.3866 -0.5566  1.1398
  124RES    H9434780   6.191   1.355   6.572 -1.7844  1.0764 -2.2268
  124RES    H9534781   6.411   1.426   6.515 -2.0088  0.9566  0.2561
  124RES    H9634782   6.434   1.291   6.618 -0.9988 -0.8842  0.0844
  124RES    H9734783   6.640   1.366   6.445  2.9886 -1.1322  2.7746
  124RES    H9834784   6.636   1.198   6.520 -2.4255  2.5511  2.6216
  124RES    H9934785   6.653   1.216   6.351 -0.1324 -0.8253  0.5346
  124RES   O10034786   6.206   1.318   6.365 -0.2191 -0.2093 -0.8695
  124RES   C10134787   6.234   1.452   6.320  0.4740 -0.4934  0.3190
  124RES   C10234788   6.126   1.500   6.220  0.0149 -0.1965 -0.0771
  124RES   C10334789   6.184   1.568   6.098 -0.3469 -0.7063  1.0834
  124RES   O10434790   6.254   1.685   6.124  0.0132  0.0424  0.6715
  124RES   C10534791   6.200   1.794   6.059 -0.0823 -0.4424  0.3249
  124RES   H10634792   6.335   1.463   6.279 -0.3416  1.8129 -1.1537
  124RES   H10734793   6.233   1.527   6.399  2.3812 -1.4411  1.2845
  124RES   H10834794   6.063   1.421   6.180 -2.0781  1.4982 -0.2454
  124RES   H10934795   6.108   1.585   6.022  0.6691  0.3566  0.2705
  124RES   H11034796   6.267   1.506   6.065 -1.0398 -1.4435  0.7159
  124RES   H11134797   6.265   1.880   6.075  0.2864 -0.5052 -0.7875
  124RES   H11234798   6.097   1.810   6.090 -0.5748 -0.0109 -1.5002
  124RES   H11334799   6.172   1.776   5.955 -0.1741 -0.9408  0.4344
  124RES   O11434800   6.042   1.587   6.289 -0.4407 -1.0194  0.0080
  124RES   C11534801   5.960   1.537   6.389  0.2773  0.5523 -0.8677
  124RES   C11634802   5.880   1.660   6.444 -0.3957  0.1238  0.4428
  124RES   C11734803   5.769   1.592   6.535 -0.4766 -0.3468  0.2600
  124RES   O11834804   5.678   1.693   6.582  0.3447  0.0718 -0.8809
  124RES   C11934805   5.557   1.633   6.633  0.0278 -0.0473  0.2398
  124RES   H12034806   5.888   1.465   6.350  0.8190 -1.3492  1.5405
  124RES   H12134807   6.022   1.484   6.461 -0.1572 -1.1395 -1.7057
  124RES   H12234808   5.820   1.699   6.362 -0.9949 -1.2864  0.1792
  124RES   H12334809   5.710   1.522   6.477  0.7374 -1.2446  0.0815
  124RES   H12434810   5.809   1.523   6.609 -0.8768 -1.3211 -0.4307
  124RES   H12534811   5.486   1.712   6.655  0.0581 -0.4162  1.7582
  124RES   H12634812   5.577   1.562   6.714 -0.7586 -0.3007  0.2162
  124RES   H12734813   5.507   1.582   6.551 -1.7395  1.5497  0.2909
  124RES   O12834814   5.964   1.743   6.523  0.3296 -0.3422 -0.1521
  124RES   C12934815   5.917   1.874   6.539 -0.0698  0.4436 -0.7755
  124RES   C13034816   6.026   1.947   6.622  0.1686 -0.7282  0.5243
  124RES   C13134817   5.976   2.083   6.681 -0.7308  0.1663  0.2700
  124RES   O13234818   6.085   2.158   6.739 -0.2463 -0.2908  0.3562
  124RES   C13334819   6.053   2.295   6.754  0.3612  0.1771 -0.4553
  124RES   H13434820   5.893   1.928   6.448 -1.3365  1.2951  0.0476
  124RES   H13534821   5.830   1.877   6.605  1.4062  0.7593  1.1932
  124RES   H13634822   6.041   1.883   6.710  0.3354 -2.6610 -0.8751
  124RES   H13734823   5.904   2.067   6.761  0.4086  2.1312  1.7231
  124RES   H13834824   5.929   2.137   6.599 -1.2618  0.4299  0.7474
  124RES   H13934825   6.032   2.342   6.658  0.8209  0.5417 -0.3770
  124RES   H14034826   5.961   2.302   6.812  0.1307  1.1806 -0.9207
  124RES   H14134827   6.139   2.346   6.795  0.4777  0.0754 -0.5747
  124RES   O14234828   6.133   1.966   6.534 -0.1131 -0.0165 -0.5704
  124RES   C14334829   6.248   1.882   6.565  0.2675 -0.3074 -0.3930
  124RES   C14434830   6.349   1.884   6.448 -0.2228 -0.3299  0.6401
  124RES   C14534831   6.465   1.780   6.468  0.2182 -0.7773 -0.5161
  124RES   O14634832   6.536   1.754   6.350 -0.0116 -0.2202 -0.2656
  124RES   C14734833   6.596   1.623   6.352  0.3572 -0.3325  0.0779
  124RES   H14834834   6.285   1.902   6.666  0.2770  0.0614 -0.4697
  124RES   H14934835   6.216   1.778   6.569 -0.5440 -0.0214  1.2534
  124RES   H15034836   6.286   1.866   6.361  1.1745 -2.4406  0.0297
  124RES   H15134837   6.403   1.701   6.509 -0.1343  0.8536  2.2274
  124RES   H15234838   6.527   1.819   6.549  0.6300 -0.4396 -0.9842
  124RES   H15334839   6.524   1.545   6.374  0.7237 -0.7996 -0.3785
  124RES   H15434840   6.679   1.624   6.423  0.2126  0.1221  0.2415
  124RES   H15534841   6.636   1.594   6.255  0.8482  1.0365 -0.1536
  124RES   O15634842   6.403   2.018   6.435  0.8281 -0.4705 -0.3529
  124RES   C15734843   6.454   2.052   6.313  0.1180 -0.4510  0.3733
  124RES   C15834844   6.478   2.207   6.304 -0.2436 -0.2249  0.7664
  124RES   C15934845   6.521   2.275   6.432  0.1331  0.3330 -0.4726
  124RES   O16034846   6.588   2.402   6.412  0.6296  0.2163  0.0987
  124RES   C16134847   6.572   2.488   6.524  0.5253 -0.0234  0.8378
  124RES   H16234848   6.550   2.000   6.311  2.2784  3.1522  2.7203
  124RES   H16334849   6.395   2.007   6.234  0.8513 -0.7532 -0.0058
  124RES   H16434850   6.562   2.218   6.235  1.1992 -0.1213  2.4847
  124RES   H16534851   6.433   2.286   6.495 -0.1694  0.5421 -0.9294
  124RES   H16634852   6.586   2.212   6.492 -0.7902 -0.5907 -0.4301
  124RES   H16734853   6.633   2.577   6.514 -0.0723  0.4436  1.2908
  124RES   H16834854   6.612   2.442   6.614  0.3569  2.4607  2.2234
  124RES   H16934855   6.468   2.505   6.552  0.7282  1.3548  0.7731
  124RES   O17034856   6.361   2.280   6.260  0.2456  0.3768  0.0057
  124RES   C17134857   6.234   2.224   6.295 -0.7441  0.2159 -0.8071
  124RES   C17234858   6.121   2.307   6.236 -0.4475  0.0680 -0.6938
  124RES   C17334859   6.044   2.373   6.348  0.0671  0.0304 -0.5694
  124RES   O17434860   5.950   2.466   6.285  0.2180 -0.1071 -0.0782
  124RES   C17534861   5.837   2.496   6.368 -0.0574 -0.0815 -0.1440
  124RES   H17634862   6.220   2.219   6.403 -2.3613  1.8205 -0.9072
  124RES   H17734863   6.222   2.120   6.268 -0.6997  0.2033 -0.7772
  124RES   H17834864   6.154   2.390   6.174  3.3018 -0.5607  0.2849
  124RES   H17934865   5.989   2.301   6.407 -1.4087  2.0500  0.5668
  124RES   H18034866   6.122   2.421   6.407  1.4831 -2.6267 -0.1743
  124RES   H18134867   5.853   2.504   6.476  0.4400  0.3898 -0.2516
  124RES   H18234868   5.764   2.415   6.366 -0.1263  0.0213 -2.0183
  124RES   H18334869   5.791   2.590   6.337  2.2993  0.1451 -3.0902
  124RES   O18434870   6.027   2.236   6.157  0.2333 -0.6810  0.5214
  124RES   C18534871   6.070   2.176   6.039 -0.8390  0.2933 -0.0965
  124RES   C18634872   5.950   2.150   5.952  0.4506 -0.0157  0.0780
  124RES   C18734873   6.001   2.053   5.842 -0.2681 -0.1486 -0.4845
  124RES   O18834874   6.125   2.097   5.794  0.1542  0.3354  0.0355
  124RES   C18934875   6.175   2.026   5.681  0.8295  0.1263  0.1211
  124RES   H19034876   6.123   2.083   6.059  0.1064  0.8660  0.0695
  124RES   H19134877   6.136   2.248   5.992  0.1573 -1.4518 -1.4314
  124RES   H19234878   5.874   2.107   6.017  1.8437 -2.6691  0.0157
  124RES   H19334879   5.926   2.050   5.763 -2.0911  1.1003  1.1532
  124RES   H19434880   6.020   1.958   5.891  0.7946  0.9344  1.2534
  124RES   H19534881   6.246   1.946   5.703  1.5515  0.6332 -0.3252
  124RES   H19634882   6.098   1.995   5.610  0.7992  1.2199 -0.3332
  124RES   H19734883   6.232   2.101   5.626 -2.3706  0.7347 -2.5302
  124RES   O19834884   5.898   2.263   5.874  0.0124 -0.2132 -0.1578
  124RES   C19934885   5.830   2.357   5.962 -0.2835  0.1271  0.3854
  124RES   C20034886   5.742   2.456   5.879 -0.9754  0.3297  0.2722
  124RES   C20134887   5.675   2.564   5.964  0.6126  0.3614 -0.1496
  124RES   O20234888   5.665   2.684   5.894 -0.0097 -0.1520 -0.1107
  124RES   C20334889   5.600   2.790   5.960 -0.5962  0.7699  0.1219
  124RES   H20434890   5.899   2.419   6.020 -1.9149  0.6379  1.7941
  124RES   H20534891   5.767   2.309   6.037 -0.4291  1.8996  1.4346
  124RES   H20634892   5.810   2.487   5.800  0.7278 -1.9448  0.8114
  124RES   H20734893   5.578   2.530   6.000 -0.0745  3.5641  1.1746
  124RES   H20834894   5.727   2.587   6.057  0.0805  2.7210 -0.4103
  124RES   H20934895   5.496   2.789   5.927 -0.7906 -0.6494  0.7258
  124RES   H21034896   5.654   2.882   5.938  0.5460  0.2361  0.6663
  124RES   H21134897   5.604   2.784   6.068 -0.1713 -0.7800  0.0361
  124RES   O21234898   5.635   2.373   5.822 -0.3452 -0.1621  0.4790
  124RES   C21334899   5.618   2.417   5.684  0.5534 -0.5395 -0.2558
  124RES   C21434900   5.473   2.364   5.642 -0.1336  0.1928  1.0236
  124RES   C21534901   5.471   2.349   5.492 -0.9268 -0.3852  0.1885
  124RES   O21634902   5.347   2.296   5.458  0.4334  0.6948 -0.0702
  124RES   C21734903   5.325   2.293   5.319  0.7657 -0.2328 -0.0204
  124RES   H21834904   5.703   2.378   5.629  0.8481  2.1434 -1.7643
  124RES   H21934905   5.616   2.522   5.656  0.2710 -1.2891 -3.2995
  124RES   H22034906   5.439   2.275   5.695 -1.1080 -0.5328 -0.7420
  124RES   H22134907   5.490   2.448   5.449 -0.6468  0.0656  1.3288
  124RES   H22234908   5.556   2.289   5.460 -0.6852 -0.8761  1.7115
  124RES   H22334909   5.374   2.207   5.274  0.6703 -0.0561 -0.4643
  124RES   H22434910   5.362   2.386   5.275  1.2885  0.0470  0.9721
  124RES   H22534911   5.217   2.285   5.308  0.4938  0.8811  1.6358
  124RES   O22634912   5.379   2.470   5.672  0.2512  0.5035  0.3391
  124RES   C22734913   5.308   2.460   5.800 -0.0241 -0.1412 -0.3630
  124RES   C22834914   5.172   2.390   5.777 -0.2931  0.6058  0.3001
  124RES   C22934915   5.121   2.341   5.916 -0.4421 -0.5338  0.0067
  124RES   O23034916   5.208   2.232   5.965 -0.7366 -0.6252  0.7068
  124RES   C23134917   5.177   2.159   6.081 -0.5465  0.1014  0.4183
  124RES   H23234918   5.292   2.561   5.838 -1.3079  0.7784 -3.2480
  124RES   H23334919   5.382   2.413   5.864  1.6467  0.5946 -1.7335
  124RES   H23434920   5.174   2.309   5.704 -1.0847  0.5337  0.3622
  124RES   H23534921   5.021   2.298   5.906 -0.6531 -0.1312  0.3505
  124RES   H23634922   5.125   2.423   5.988  0.7993  0.4524 -1.1513
  124RES   H23734923   5.257   2.084   6.085  0.0761  0.7956  0.9945
  124RES   H23834924   5.087   2.097   6.076  0.1191 -0.7987 -0.6479
  124RES   H23934925   5.180   2.229   6.163  0.5955  1.1449 -0.4890
  124RES   O24034926   5.074   2.487   5.741 -0.9125 -0.6043 -0.5306
  124RES   C24134927   5.089   2.525   5.601  0.7085  0.4395 -0.7466
  124RES   C24234928   4.946   2.562   5.544 -0.5668  0.0580 -0.3607
  124RES   C24334929   4.965   2.655   5.419 -0.1286  0.8426 -0.2660
  124RES   O24434930   4.852   2.722   5.365 -0.3380 -0.1556  0.2634
  124RES   C24534931   4.737   2.643   5.353 -0.2386 -0.0912 -0.3470
  124RES   H24634932   5.144   2.452   5.541  0.6113  0.2463 -0.6019
  124RES   H24734933   5.151   2.615   5.602 -1.4660  1.9958  2.7511
  124RES   H24834934   4.887   2.606   5.624 -2.9335 -0.4600 -1.7677
  124RES   H24934935   5.039   2.733   5.435  2.6635 -1.8082  0.3465
  124RES   H25034936   5.010   2.599   5.337  1.4352  0.0343  1.1028
  124RES   H25134937   4.691   2.617   5.448 -2.4163  0.6888 -1.1684
  124RES   H25234938   4.761   2.551   5.300 -0.2033  0.4094 -1.2135
  124RES   H25334939   4.665   2.689   5.285  1.2780  0.2090 -1.8070
  124RES   O25434940   4.884   2.442   5.499 -0.5046  0.2102  0.5026
  124RES   C25534941   4.856   2.347   5.600  0.0104  0.1783  0.0976
  124RES   C25634942   4.762   2.241   5.545  0.0788 -0.2204 -0.6136
  124RES   C25734943   4.786   2.099   5.606  0.2373  0.1259 -0.1087
  124RES   O25834944   4.714   2.002   5.533 -0.5795 -0.6006 -0.1736
  124RES   C25934945   4.753   1.867   5.560 -0.2542  0.0970 -0.3598
  124RES   H26034946   4.955   2.303   5.613  0.6833  0.9466 -2.1269
  124RES   H26134947   4.837   2.365   5.706  1.4055  1.9943  0.0683
  124RES   H26234948   4.790   2.222   5.441  0.7739  1.3718 -0.7368
  124RES   H26334949   4.893   2.077   5.598  0.2705  0.9375 -2.4414
  124RES   H26434950   4.758   2.102   5.711 -0.5770 -1.9735 -0.2441
  124RES   H26534951   4.748   1.851   5.668 -0.0652  0.3408 -0.3154
  124RES   H26634952   4.855   1.862   5.524 -0.5536 -0.8498 -1.1133
  124RES   H26734953   4.694   1.787   5.515  2.4465 -1.6360 -0.8875
  124RES   O26834954   4.628   2.271   5.586 -0.1286 -0.3490  0.2454
  124RES   C26934955   4.543   2.277   5.479 -0.0975  0.3010 -0.0353
  124RES   C27034956   4.413   2.336   5.524  0.0530  0.1861 -0.1077
  124RES   C27134957   4.434   2.470   5.588 -0.7914  0.4437 -0.1865
  124RES   O27234958   4.308   2.521   5.623  0.4033 -0.4858 -0.5061
  124RES   C27334959   4.315   2.641   5.693 -0.6654 -0.5417 -0.2790
  124RES   H27434960   4.529   2.178   5.437  2.1831 -0.2977  0.5695
  124RES   H27534961   4.584   2.333   5.395 -1.8200 -0.1449 -1.1933
  124RES   H27634962   4.340   2.345   5.443 -1.0370 -2.1553  0.5580
  124RES   H27734963   4.472   2.540   5.514 -0.7695 -0.5740 -1.1558
  124RES   H27834964   4.499   2.468   5.675  0.7236  0.8940 -1.2831
  124RES   H27934965   4.361   2.621   5.790  0.1772  2.0978 -0.0798
  124RES   H28034966   4.211   2.671   5.705  0.4148  3.4048  0.0193
  124RES   H28134967   4.368   2.719   5.639  1.5141 -0.6731  1.5906
  124RES   H28234968   4.356   2.282   5.600 -1.3442  1.7414 -0.0244
  125RES     O134969   4.799   1.429   0.690 -0.0751 -0.4766  0.0580
  125RES     C234970   4.895   1.531   0.675 -0.7587 -0.9292 -0.4382
  125RES     C334971   4.893   1.573   0.523  0.1755 -0.3758  0.3482
  125RES     C434972   4.936   1.722   0.519  0.0752 -0.5067  0.8671
  125RES     O534973   4.916   1.779   0.389 -0.6919  0.4127  0.1955
  125RES     C634974   4.965   1.911   0.376  0.4006  0.2012  0.0179
  125RES     H734975   4.882   1.610   0.749  2.3580 -0.1400 -0.6557
  125RES     H834976   4.996   1.499   0.700 -0.2314  0.8157 -0.2467
  125RES     H934977   4.793   1.560   0.483 -0.7308 -3.3235  3.3706
  125RES    H1034978   5.038   1.725   0.557 -0.9587  1.1263  3.6590
  125RES    H1134979   4.878   1.775   0.595 -0.0252  0.3388  0.2126
  125RES    H1234980   4.922   1.948   0.283 -1.8106  1.2228  1.4187
  125RES    H1334981   4.922   1.983   0.445 -0.7776  1.5137 -2.0165
  125RES    H1434982   5.074   1.916   0.380  0.3262  0.4315  2.0879
  125RES    H1534983   4.819   1.365   0.623  0.2886 -0.7693  0.4394
  125RES    O1634984   4.990   1.487   0.456  0.2586 -1.0665  0.2309
  125RES    C1734985   4.969   1.466   0.318  0.4860 -0.7296  0.4820
  125RES    C1834986   5.057   1.362   0.249  0.3664 -0.7728  0.2854
  125RES    C1934987   5.003   1.335   0.108 -0.7670 -0.6297 -0.0553
  125RES    O2034988   5.039   1.204   0.068 -0.0845 -0.5905 -0.2969
  125RES    C2134989   5.154   1.197   7.796  0.1332  0.2489 -0.1981
  125RES    H2234990   4.977   1.563   0.269 -0.4213 -0.4439  0.8852
  125RES    H2334991   4.866   1.431   0.318  0.6103 -1.1392  2.3157
  125RES    H2434992   5.060   1.265   0.300  1.1201 -0.2486  1.2473
  125RES    H2534993   4.894   1.337   0.107 -0.9082 -4.1633  0.0828
  125RES    H2634994   5.030   1.410   0.033  2.4760 -1.8505 -0.2057
  125RES    H2734995   5.241   1.240   0.028  0.2040 -0.4441  0.3000
  125RES    H2834996   5.150   1.224   7.691  0.5626 -0.4396 -0.3934
  125RES    H2934997   5.186   1.093   7.797 -0.7999 -0.0689  3.0301
  125RES    O3034998   5.184   1.418   0.236  0.5314  0.4046 -0.2949
  125RES    C3134999   5.262   1.457   0.348  0.1510  0.5593 -0.5127
  125RES    C3235000   5.270   1.352   0.465 -0.0460  0.1584  0.0691
  125RES    C3335001   5.294   1.429   0.600  0.3144  0.5111  0.2893
  125RES    O3435002   5.311   1.336   0.704 -0.3453  0.1804 -0.0456
  125RES    C3535003   5.312   1.390   0.832  0.4211 -0.2612  0.3758
  125RES    H3635004   5.365   1.473   0.315  1.1843 -2.6586  1.0157
  125RES    H3735005   5.251   1.559   0.387  0.3949  0.5059 -0.3026
  125RES    H3835006   5.177   1.296   0.479 -0.5116  1.4991  2.5698
  125RES    H3935007   5.198   1.472   0.629 -0.0250 -0.3314  0.4179
  125RES    H4035008   5.367   1.509   0.602  0.8780 -0.0053  0.3766
  125RES    H4135009   5.223   1.451   0.854  0.6545  0.5175 -0.7964
  125RES    H4235010   5.399   1.450   0.858 -0.2281 -0.0875  2.2632
  125RES    H4335011   5.310   1.307   0.903  0.9468 -0.8342 -0.2778
  125RES    O4435012   5.387   1.274   0.442  0.1108 -0.3172 -0.3755
  125RES    C4535013   5.366   1.160   0.358  0.4525  0.1186 -0.2508
  125RES    C4635014   5.492   1.078   0.344 -0.3935  0.3883  0.1769
  125RES    C4735015   5.470   0.957   0.258 -0.7305  0.4679  0.0186
  125RES    O4835016   5.410   0.992   0.135  0.1812  0.1062  0.0008
  125RES    C4935017   5.382   0.880   0.060 -0.5155  0.4609  0.6288
  125RES    H5035018   5.325   1.193   0.263 -1.6793 -0.6905  0.3460
  125RES    H5135019   5.294   1.095   0.408  0.6036  1.4504  1.7534
  125RES    H5235020   5.531   1.042   0.439 -0.3678 -0.3219 -0.0958
  125RES    H5335021   5.569   0.914   0.242 -0.6737  0.5508  0.1433
  125RES    H5435022   5.419   0.875   0.309 -0.5219 -0.2851 -0.9787
  125RES    H5535023   5.478   0.841   0.028 -0.1961 -0.0355  2.1714
  125RES    H5635024   5.333   0.906   7.783  1.4393  1.7027 -0.0662
  125RES    H5735025   5.325   0.805   0.115  0.9759  0.3146  2.0054
  125RES    O5835026   5.596   1.142   0.280  0.2110  0.1629 -0.0293
  125RES    C5935027   5.686   1.210   0.368 -0.0069  0.0767 -0.3395
  125RES    C6035028   5.806   1.272   0.295 -0.5144  0.2934  0.3362
  125RES    C6135029   5.934   1.273   0.377 -0.3015  0.0575  0.3395
  125RES    O6235030   6.051   1.321   0.309  0.1062 -0.7499 -0.1551
  125RES    C6335031   6.062   1.297   0.171  0.5912  0.5557  0.3939
  125RES    H6435032   5.719   1.138   0.443  0.4115  1.5797  0.9401
  125RES    H6535033   5.640   1.290   0.425  0.4083  0.0191  0.0782
  125RES    H6635034   5.820   1.218   0.202 -1.3110  1.6455 -0.5801
  125RES    H6735035   5.936   1.316   0.477 -3.4027 -0.3776  0.6262
  125RES    H6835036   5.955   1.169   0.403  0.6727 -0.3479 -1.9100
  125RES    H6935037   6.148   1.357   0.142  0.3006  0.7343 -0.1090
  125RES    H7035038   5.983   1.338   0.108  0.5040 -1.3082 -0.7656
  125RES    H7135039   6.082   1.191   0.157 -3.0875 -0.3744  1.6090
  125RES    O7235040   5.764   1.408   0.271 -0.4679 -0.2103 -0.5360
  125RES    C7335041   5.687   1.418   0.151  0.0080  0.4404 -0.0682
  125RES    C7435042   5.655   1.566   0.140  0.0543  0.2112  0.7910
  125RES    C7535043   5.532   1.597   0.049  0.1412 -0.0259 -0.1493
  125RES    O7635044   5.492   1.731   0.072  0.0308 -0.1340 -0.1245
  125RES    C7735045   5.376   1.759   7.817  0.4540  0.2651  0.0526
  125RES    H7835046   5.742   1.380   0.065 -0.5469  0.9781 -0.6583
  125RES    H7935047   5.596   1.360   0.151 -1.1416  2.2027 -0.4091
  125RES    H8035048   5.638   1.600   0.242  0.6611  1.8863  0.3520
  125RES    H8135049   5.446   1.534   0.072 -1.2648  2.8627  2.7625
  125RES    H8235050   5.561   1.580   7.762  2.0180  1.8715  0.0258
  125RES    H8335051   5.360   1.866   0.009  1.3167  0.5607 -1.6796
  125RES    H8435052   5.299   1.697   0.047 -0.4123  0.2559 -1.3377
  125RES    H8535053   5.377   1.749   7.708 -0.6948  1.4487 -0.0904
  125RES    O8635054   5.765   1.633   0.078  0.5210  0.8284  0.2532
  125RES    C8735055   5.831   1.721   0.161  1.1024 -0.1472 -0.5985
  125RES    C8835056   5.899   1.826   0.069 -0.3927 -0.2631  0.1931
  125RES    C8935057   5.949   1.955   0.133  0.3672  0.2153 -1.0082
  125RES    O9035058   5.991   2.050   0.036 -0.2387 -0.3420 -0.1734
  125RES    C9135059   6.104   2.125   0.079  0.1636  0.4725  0.7642
  125RES    H9235060   5.760   1.776   0.223  0.3588 -0.1598 -1.4222
  125RES    H9335061   5.901   1.672   0.228  1.2669  1.5526  0.4907
  125RES    H9435062   5.823   1.855   7.814  0.7380  0.9546 -0.5362
  125RES    H9535063   5.877   1.994   0.205  0.2101  0.2049 -1.1594
  125RES    H9635064   6.027   1.924   0.203 -2.5404  0.1031  2.3471
  125RES    H9735065   6.138   2.197   0.005 -1.7590  0.5749 -0.0498
  125RES    H9835066   6.081   2.165   0.178 -3.4875 -0.4792  0.3972
  125RES    H9935067   6.187   2.054   0.086  0.2364  0.5563  0.7341
  125RES   O10035068   6.019   1.786   0.004  0.3172  0.1147 -0.2308
  125RES   C10135069   6.002   1.685   7.719 -0.1665 -0.8371  0.0048
  125RES   C10235070   6.129   1.697   7.641 -0.0270  0.5663  0.5920
  125RES   C10335071   6.131   1.826   7.563  0.0621  0.3693 -0.2314
  125RES   O10435072   6.266   1.852   7.508  0.4271 -0.3011  0.5803
  125RES   C10535073   6.259   1.950   7.406  0.3410 -0.6703 -0.5071
  125RES   H10635074   5.917   1.706   7.655  0.7992 -0.1317 -1.0905
  125RES   H10735075   5.988   1.591   7.771  1.0617 -0.0980  1.7399
  125RES   H10835076   6.223   1.689   7.696 -0.0767 -0.0122  0.5985
  125RES   H10935077   6.102   1.915   7.620  0.4582 -0.6583  1.5825
  125RES   H11035078   6.062   1.819   7.478 -1.0421 -0.4929  0.7164
  125RES   H11135079   6.352   1.992   7.368  1.0711 -0.6787  1.1980
  125RES   H11235080   6.208   2.042   7.434  0.7454 -0.9010  1.0174
  125RES   H11335081   6.206   1.907   7.321  2.9867  0.7234 -2.9634
  125RES   O11435082   6.128   1.582   7.552  0.1069 -0.2467  0.0981
  125RES   C11535083   6.251   1.546   7.502 -0.0951 -1.0027  0.1167
  125RES   C11635084   6.236   1.488   7.356 -0.1230 -0.3309  0.2665
  125RES   C11735085   6.171   1.348   7.360  0.3457  0.1310  0.2651
  125RES   O11835086   6.232   1.270   7.256  0.2289 -0.6373 -0.1619
  125RES   C11935087   6.203   1.134   7.277  0.1050 -0.0687  0.3588
  125RES   H12035088   6.317   1.633   7.502  2.1180 -2.6180  0.1760
  125RES   H12135089   6.300   1.459   7.545  0.1063 -2.4513 -2.8832
  125RES   H12235090   6.341   1.479   7.328  0.1579  2.0647  0.4982
  125RES   H12335091   6.196   1.300   7.455 -0.1479  0.7942  0.7378
  125RES   H12435092   6.064   1.351   7.342  0.6310 -0.5567 -1.5820
  125RES   H12535093   6.217   1.103   7.380  0.3301  0.0480  0.3633
  125RES   H12635094   6.259   1.068   7.210  0.7644 -0.3983  1.2217
  125RES   H12735095   6.097   1.131   7.253  0.6060 -0.3447 -1.9451
  125RES   O12835096   6.157   1.582   7.275  0.8195  1.3120  0.7245
  125RES   C12935097   6.185   1.580   7.139  0.2568 -0.0435 -0.1084
  125RES   C13035098   6.140   1.721   7.080 -0.4682  0.6543 -0.2860
  125RES   C13135099   6.037   1.692   6.964 -0.0794  0.2756  0.2220
  125RES   O13235100   5.965   1.809   6.930  0.0778  0.1606  0.0039
  125RES   C13335101   5.841   1.778   6.875 -0.1767  0.2348 -0.0727
  125RES   H13435102   6.291   1.558   7.124  0.6932  1.4726  0.6753
  125RES   H13535103   6.123   1.496   7.106  0.7272  0.2718 -1.8550
  125RES   H13635104   6.084   1.777   7.155  1.8032  1.4216  0.8671
  125RES   H13735105   5.964   1.620   7.002 -0.8924 -0.0025 -1.7668
  125RES   H13835106   6.079   1.645   6.874 -0.9399  0.4388 -0.2688
  125RES   H13935107   5.776   1.752   6.958 -0.4450 -0.0258 -0.3634
  125RES   H14035108   5.814   1.872   6.826 -1.0275  1.1485  2.1092
  125RES   H14135109   5.828   1.693   6.808 -1.2579 -0.0738  0.5336
  125RES   O14235110   6.259   1.783   7.034  0.3268  0.3892  0.0256
  125RES   C14335111   6.241   1.916   6.993  0.4875  0.4716 -0.4827
  125RES   C14435112   6.382   1.976   6.968  0.0841 -0.5679 -0.4083
  125RES   C14535113   6.365   2.127   6.940 -0.2810 -0.8808  0.0213
  125RES   O14635114   6.493   2.185   6.913 -0.2480 -0.7370  0.4725
  125RES   C14735115   6.521   2.189   6.774 -0.1571  0.1782 -0.7007
  125RES   H14835116   6.196   1.924   6.895  0.4107 -1.0639 -0.5737
  125RES   H14935117   6.176   1.974   7.059 -0.8305 -1.8989  0.3452
  125RES   H15035118   6.455   1.965   7.049  1.7942 -0.4181 -1.8995
  125RES   H15135119   6.322   2.175   7.029  1.2646  0.1387  0.2477
  125RES   H15235120   6.305   2.157   6.855  0.1154  0.4799  0.1985
  125RES   H15335121   6.463   2.264   6.721 -0.6552  0.5617  0.3714
  125RES   H15435122   6.508   2.094   6.723  1.2729 -0.7192  0.5564
  125RES   H15535123   6.620   2.234   6.769 -0.9312  2.0250  0.1145
  125RES   O15635124   6.442   1.908   6.856  0.1699  0.1345  0.0169
  125RES   C15735125   6.496   1.778   6.881  0.3166  0.3215 -0.0793
  125RES   C15835126   6.646   1.775   6.839  0.1674  0.2241  0.5577
  125RES   C15935127   6.685   1.620   6.826 -0.8612  0.1507  0.1700
  125RES   O16035128   6.816   1.603   6.785 -0.5724  0.2490  0.1575
  125RES   C16135129   6.844   1.461   6.787 -0.4582 -0.5261  0.0889
  125RES   H16235130   6.490   1.746   6.985  3.1408  0.2895  0.1247
  125RES   H16335131   6.451   1.705   6.814  0.0518 -0.8248  1.3294
  125RES   H16435132   6.660   1.824   6.743 -1.0501  0.4930  0.5032
  125RES   H16535133   6.681   1.577   6.926  0.4896 -0.1846  0.0857
  125RES   H16635134   6.623   1.560   6.758  0.9797 -1.4891 -0.1054
  125RES   H16735135   6.943   1.439   6.747  0.8270  0.6822  2.5222
  125RES   H16835136   6.784   1.399   6.720  0.3509 -0.0599 -1.1005
  125RES   H16935137   6.846   1.420   6.888  2.5185  1.2922  0.8302
  125RES   O17035138   6.721   1.823   6.953  0.2604  0.0206  0.8509
  125RES   C17135139   6.750   1.958   6.942 -0.6429  0.0201 -0.1629
  125RES   C17235140   6.873   1.980   6.859  0.2520  0.0465  0.1019
  125RES   C17335141   6.943   2.115   6.893 -0.5100 -0.1785  0.0752
  125RES   O17435142   6.995   2.099   7.022 -0.3727  0.0619 -0.5135
  125RES   C17535143   7.038   2.227   7.076  0.3027 -0.0717  0.4849
  125RES   H17635144   6.776   1.992   7.042 -0.9024 -0.3219  0.0229
  125RES   H17735145   6.664   2.016   6.910  0.8024  0.8226 -2.6778
  125RES   H17835146   6.943   1.899   6.882 -3.4034 -2.9027  1.3461
  125RES   H17935147   7.032   2.124   6.831 -0.5127 -0.0611  0.0895
  125RES   H18035148   6.885   2.207   6.889 -0.3395  0.0278  1.9578
  125RES   H18135149   7.122   2.266   7.019 -1.9395  0.3955 -2.6168
  125RES   H18235150   7.054   2.216   7.184  1.0036 -1.8676  0.2233
  125RES   H18335151   6.951   2.291   7.061  1.5387  1.3956 -0.5429
  125RES   O18435152   6.833   1.984   6.723 -0.2205  0.3533  0.2311
  125RES   C18535153   6.938   1.920   6.641  0.3772  0.2532 -0.2293
  125RES   C18635154   6.900   1.912   6.488 -0.4672  0.4748  0.3557
  125RES   C18735155   6.950   1.784   6.420 -0.6517  0.0095 -0.1817
  125RES   O18835156   6.862   1.732   6.316  1.1282  0.0614 -0.3860
  125RES   C18935157   6.847   1.834   6.209  0.0659  0.3920  0.5264
  125RES   H19035158   6.951   1.819   6.679 -0.0189  0.4548  0.4494
  125RES   H19135159   7.035   1.971   6.642  1.3336 -1.4680 -2.2727
  125RES   H19235160   6.791   1.911   6.488 -0.5389  0.6781 -3.2867
  125RES   H19335161   6.964   1.707   6.497 -0.2743  1.0589  0.8098
  125RES   H19435162   7.054   1.801   6.392 -0.6684  3.0314  1.4033
  125RES   H19535163   6.771   1.814   6.133  1.5830  1.4317 -1.3160
  125RES   H19635164   6.801   1.927   6.240  2.1449  2.1390 -1.4427
  125RES   H19735165   6.943   1.851   6.160  0.7256 -1.6980  1.0544
  125RES   O19835166   6.962   2.022   6.415  0.0433 -0.2146 -0.2033
  125RES   C19935167   6.888   2.145   6.417 -0.0845  0.2935 -0.1471
  125RES   C20035168   6.948   2.243   6.314  0.0628  0.0357 -0.5523
  125RES   C20135169   6.887   2.382   6.330  0.1483  0.3004 -0.5684
  125RES   O20235170   6.983   2.475   6.299  0.4083 -0.7060  0.1471
  125RES   C20335171   6.934   2.604   6.330 -0.1613  0.1556  0.1954
  125RES   H20435172   6.881   2.193   6.515 -0.0686  0.9118 -0.4418
  125RES   H20535173   6.789   2.119   6.380  1.2400 -0.7538 -3.1708
  125RES   H20635174   7.056   2.251   6.322 -0.0084 -1.1729  2.1583
  125RES   H20735175   6.810   2.393   6.253 -0.6336  1.1850  0.3314
  125RES   H20835176   6.861   2.402   6.434 -1.1937  0.3125 -0.8975
  125RES   H20935177   6.994   2.677   6.277  1.4076 -1.2980 -0.0642
  125RES   H21035178   6.937   2.634   6.435 -3.5790 -1.1493  0.7119
  125RES   H21135179   6.831   2.628   6.306 -0.3558 -2.2864 -1.5515
  125RES   O21235180   6.929   2.183   6.177 -0.3662 -0.3567  0.4909
  125RES   C21335181   7.024   2.222   6.076  0.3232  0.0775  0.2987
  125RES   C21435182   6.986   2.143   5.946 -0.2813 -0.3744 -0.0285
  125RES   C21535183   7.099   2.145   5.836 -0.2824 -0.1573  0.1753
  125RES   O21635184   7.075   2.041   5.742  0.3524  0.0961 -0.3597
  125RES   C21735185   7.190   2.023   5.659 -0.1044  0.1543  0.1054
  125RES   H21835186   7.126   2.198   6.107  0.8089  2.2509  0.4856
  125RES   H21935187   7.017   2.328   6.054 -1.0455  0.3619  2.0640
  125RES   H22035188   6.968   2.039   5.974  0.2099 -0.0685  1.4488
  125RES   H22135189   7.093   2.242   5.788 -2.2045  1.0065  2.6780
  125RES   H22235190   7.197   2.135   5.881 -0.8952  0.4614  1.6708
  125RES   H22335191   7.225   2.118   5.619 -0.6475 -0.1026 -1.0040
  125RES   H22435192   7.156   1.965   5.573  2.7054  1.6299 -2.0693
  125RES   H22535193   7.271   1.963   5.700 -1.2996 -1.5792  0.0165
  125RES   O22635194   6.867   2.206   5.889 -0.0466  0.2636 -0.0629
  125RES   C22735195   6.751   2.127   5.911  0.1742 -0.2117 -0.5539
  125RES   C22835196   6.739   2.007   5.826  0.0511  0.5713  0.3720
  125RES   C22935197   6.627   1.916   5.873 -0.0152 -0.0086  0.3878
  125RES   O23035198   6.630   1.785   5.822  0.2344 -0.1328 -0.3765
  125RES   C23135199   6.540   1.700   5.890 -0.2716 -0.3939 -0.5696
  125RES   H23235200   6.660   2.187   5.919  0.3467 -0.3292  3.4981
  125RES   H23335201   6.755   2.094   6.015 -3.0114 -2.7134 -1.1372
  125RES   H23435202   6.832   1.950   5.830 -1.6831 -2.3280  1.4498
  125RES   H23535203   6.529   1.959   5.852 -0.7727 -1.6599  0.4469
  125RES   H23635204   6.641   1.912   5.981 -1.0477  1.7872  0.6047
  125RES   H23735205   6.539   1.600   5.848 -0.3532  0.5133 -2.8309
  125RES   H23835206   6.444   1.751   5.885  0.5385  1.2280 -0.2325
  125RES   H23935207   6.551   1.687   5.997 -2.6058  0.0248 -0.2669
  125RES   O24035208   6.700   2.040   5.696  0.4871  0.2473  0.2808
  125RES   C24135209   6.793   2.026   5.592 -0.0689 -0.2371  0.1317
  125RES   C24235210   6.724   2.046   5.455  0.1430 -0.0418 -0.0091
  125RES   C24335211   6.825   2.078   5.340  0.3619  0.0241  0.2873
  125RES   O24435212   6.760   2.128   5.217 -0.6385  0.4397  0.0817
  125RES   C24535213   6.734   2.259   5.229  0.4240  0.2128  0.2089
  125RES   H24635214   6.845   1.930   5.598 -0.5575 -0.5434 -0.4768
  125RES   H24735215   6.878   2.093   5.602 -0.3138  0.0841  0.0487
  125RES   H24835216   6.653   2.127   5.475 -0.3645 -0.5971  0.4913
  125RES   H24935217   6.907   2.145   5.367 -1.4077  1.8761  1.1988
  125RES   H25035218   6.871   1.986   5.304 -2.3256 -0.3479 -2.3992
  125RES   H25135219   6.683   2.289   5.137 -0.8693 -3.4187 -0.3480
  125RES   H25235220   6.815   2.329   5.247  0.3811  0.5453 -0.8793
  125RES   H25335221   6.654   2.274   5.302 -1.6224  0.7390 -2.0563
  125RES   O25435222   6.657   1.934   5.406  0.1102 -0.5852 -0.0397
  125RES   C25535223   6.580   1.862   5.491  0.3469 -0.5273 -0.5270
  125RES   C25635224   6.508   1.753   5.414  0.0063  0.5034 -0.0194
  125RES   C25735225   6.497   1.624   5.501  0.1546  0.3003 -0.0168
  125RES   O25835226   6.425   1.521   5.438 -0.0115 -0.0524 -0.2495
  125RES   C25935227   6.412   1.411   5.527 -0.2503  0.2189 -0.5756
  125RES   H26035228   6.647   1.828   5.570  1.0418 -0.5673 -1.1285
  125RES   H26135229   6.516   1.932   5.546 -1.0307 -1.6342 -0.6891
  125RES   H26235230   6.564   1.728   5.324  1.0261  2.8201 -0.0405
  125RES   H26335231   6.599   1.596   5.526 -0.4123 -0.8025  1.0488
  125RES   H26435232   6.450   1.650   5.595  1.5913  1.2601  0.4617
  125RES   H26535233   6.504   1.352   5.524 -1.8404 -2.2825 -2.5768
  125RES   H26635234   6.336   1.344   5.485  1.0555 -1.5236 -0.2403
  125RES   H26735235   6.408   1.436   5.632 -0.3416 -0.4611 -0.4130
  125RES   O26835236   6.377   1.784   5.375 -0.5430 -0.0984 -0.3464
  125RES   C26935237   6.366   1.871   5.270  0.7427  0.3502  0.1576
  125RES   C27035238   6.227   1.943   5.273 -0.0290 -0.3671 -0.0491
  125RES   C27135239   6.108   1.857   5.253  0.5192 -0.0491 -0.1342
  125RES   O27235240   5.988   1.927   5.233  0.1216  0.0515 -0.5070
  125RES   C27335241   5.878   1.855   5.282  0.3896 -0.8148 -0.1301
  125RES   H27435242   6.395   1.825   5.175 -0.3244  0.0848 -0.0451
  125RES   H27535243   6.441   1.949   5.285  1.6926 -0.2240 -1.4417
  125RES   H27635244   6.206   2.004   5.361  0.4905 -0.2631  0.0020
  125RES   H27735245   6.100   1.784   5.334 -0.5965  1.6734  1.3279
  125RES   H27835246   6.122   1.795   5.164  2.0259 -1.1411  0.8294
  125RES   H27935247   5.874   1.767   5.218  1.8353 -0.0370 -1.3180
  125RES   H28035248   5.787   1.916   5.275  0.4614 -0.9381 -2.3819
  125RES   H28135249   5.895   1.836   5.388  1.6580 -0.3508 -0.2417
  125RES   H28235250   6.228   2.003   5.182 -1.1422 -0.3508 -0.0613
  126RES     O135251   0.982   1.079   2.479 -0.2284  0.2691 -0.1493
  126RES     C235252   1.068   1.035   2.577 -0.4169 -0.4335 -0.3192
  126RES     C335253   0.985   0.957   2.677  0.3471  0.0657  0.0922
  126RES     C435254   0.945   0.810   2.632 -0.1537  0.6659 -0.1241
  126RES     O535255   0.858   0.758   2.731  0.0754 -0.3377  0.6086
  126RES     C635256   0.817   0.624   2.706 -0.3186 -0.7874 -0.1012
  126RES     H735257   1.142   0.962   2.543  1.7444  2.3244 -1.7186
  126RES     H835258   1.114   1.120   2.628 -1.4016 -0.7811  1.1705
  126RES     H935259   0.892   1.008   2.700  0.1353 -0.0172 -0.5804
  126RES    H1035260   1.039   0.755   2.632  0.0748  1.0413  0.9528
  126RES    H1135261   0.912   0.808   2.529  2.3475  2.8835 -1.0209
  126RES    H1235262   0.897   0.567   2.752  2.2775  3.4710  0.8915
  126RES    H1335263   0.728   0.592   2.761 -1.0810  0.8354 -0.3596
  126RES    H1435264   0.799   0.600   2.601  1.9496  1.2238 -0.9961
  126RES    H1535265   0.933   1.152   2.514  0.2924 -0.0851  1.3616
  126RES    O1635266   1.074   0.952   2.789 -0.1553  0.2433  0.5748
  126RES    C1735267   1.019   0.900   2.909  0.0649  0.4035  0.2191
  126RES    C1835268   1.123   0.932   3.025  0.2801  0.0209 -0.1658
  126RES    C1935269   1.076   0.916   3.171  0.2024 -0.2138  0.0312
  126RES    O2035270   1.167   0.950   3.269 -0.6276 -0.1168 -0.0764
  126RES    C2135271   1.244   0.835   3.320 -0.0772 -0.0367  0.3960
  126RES    H2235272   1.002   0.792   2.910 -0.3260  0.4726  0.8415
  126RES    H2335273   0.926   0.951   2.934  0.3000 -0.0002  1.9782
  126RES    H2435274   1.158   1.035   3.019  1.2775 -0.3658 -1.1703
  126RES    H2535275   0.986   0.976   3.181  1.0013  1.1284 -0.6406
  126RES    H2635276   1.043   0.812   3.182 -1.3086  0.1186 -1.2598
  126RES    H2735277   1.306   0.790   3.243 -1.5618  1.0565 -1.4803
  126RES    H2835278   1.190   0.761   3.379  1.6367 -2.2003 -0.6963
  126RES    H2935279   1.323   0.875   3.384  1.0918 -0.6616 -0.6593
  126RES    O3035280   1.235   0.845   3.001 -0.1591  0.4568 -0.3640
  126RES    C3135281   1.364   0.897   3.027  0.1426  0.6035  1.1624
  126RES    C3235282   1.427   0.947   2.898 -0.4132 -0.2982  0.5101
  126RES    C3335283   1.468   0.834   2.801  0.7047  0.5033  0.4094
  126RES    O3435284   1.506   0.894   2.678 -0.3213 -0.2463 -0.8509
  126RES    C3535285   1.612   0.814   2.626 -0.0227  0.5567 -0.6144
  126RES    H3635286   1.361   0.976   3.102  1.5275  1.6834  0.1045
  126RES    H3735287   1.424   0.818   3.072 -2.2050 -2.3274 -0.6893
  126RES    H3835288   1.350   1.009   2.852  1.6093  3.4575  1.9647
  126RES    H3935289   1.382   0.774   2.774 -1.2978  2.6200  1.8874
  126RES    H4035290   1.549   0.773   2.841  0.0814  1.2283  2.8324
  126RES    H4135291   1.658   0.848   2.533  1.1538 -1.5779 -0.8339
  126RES    H4235292   1.578   0.713   2.604 -0.3457  0.2043  1.3898
  126RES    H4335293   1.693   0.811   2.699  1.5871 -2.4599 -2.4539
  126RES    O4435294   1.549   1.018   2.921  0.2535 -0.1817  0.0808
  126RES    C4535295   1.518   1.155   2.932  0.0042 -0.1408  0.6032
  126RES    C4635296   1.525   1.221   2.793 -0.0778  0.0663  0.1548
  126RES    C4735297   1.465   1.362   2.798  0.0261  0.9357 -0.0359
  126RES    O4835298   1.438   1.410   2.672  0.0946  0.5865  0.4572
  126RES    C4935299   1.399   1.543   2.669 -0.5631  0.0637  0.1837
  126RES    H5035300   1.600   1.207   2.981 -0.6885 -0.0635  1.6938
  126RES    H5135301   1.424   1.178   2.981 -0.5267  0.0162 -0.4754
  126RES    H5235302   1.465   1.171   2.718  2.3003 -1.5578 -0.7326
  126RES    H5335303   1.372   1.357   2.853  0.5389 -2.4905  0.6209
  126RES    H5435304   1.529   1.437   2.844  0.6280  0.6074 -0.3312
  126RES    H5535305   1.484   1.611   2.675 -2.4760  2.3465  2.6062
  126RES    H5635306   1.329   1.575   2.747 -0.8669 -0.3430  0.0836
  126RES    H5735307   1.355   1.566   2.572 -0.4728 -0.7636 -0.0571
  126RES    O5835308   1.662   1.245   2.750  0.8997  0.2207  0.0789
  126RES    C5935309   1.691   1.182   2.625  0.0711 -0.4460  0.0591
  126RES    C6035310   1.835   1.201   2.583 -0.8220 -0.1838 -0.7271
  126RES    C6135311   1.852   1.192   2.433  0.0289  0.0826  0.6286
  126RES    O6235312   1.983   1.228   2.391  0.4681  0.0382 -0.6985
  126RES    C6335313   1.996   1.245   2.254 -0.0503 -0.1491  0.4755
  126RES    H6435314   1.632   1.241   2.555 -2.2718 -0.6344  1.8181
  126RES    H6535315   1.640   1.086   2.624 -5.1684  2.1694  0.5724
  126RES    H6635316   1.877   1.295   2.619  0.0510 -1.0181  0.4660
  126RES    H6735317   1.813   1.093   2.407 -1.4814  0.6279  0.7954
  126RES    H6835318   1.785   1.256   2.375 -1.6171 -0.8842  1.4120
  126RES    H6935319   1.985   1.154   2.196 -1.8508  0.8861 -0.8549
  126RES    H7035320   2.098   1.283   2.241  0.5170 -1.1840  1.7226
  126RES    H7135321   1.925   1.317   2.213 -1.2535 -0.8440  1.3175
  126RES    O7235322   1.889   1.088   2.648 -0.4240 -0.5401  0.7351
  126RES    C7335323   1.942   1.113   2.784  0.2091 -0.2400 -0.4393
  126RES    C7435324   2.019   0.986   2.822 -1.4499  0.1320  1.2844
  126RES    C7535325   2.017   0.959   2.976 -0.4032  0.0744  0.0222
  126RES    O7635326   1.958   0.840   3.015  0.3825 -0.1070 -0.1459
  126RES    C7735327   1.815   0.852   3.008 -0.0002 -0.3625 -0.6338
  126RES    H7835328   2.009   1.198   2.795  2.3640 -1.9669  0.3820
  126RES    H7935329   1.853   1.117   2.847  0.9216 -1.3596  0.6681
  126RES    H8035330   1.965   0.905   2.774  0.5064 -0.5421  0.1654
  126RES    H8135331   1.977   1.042   3.034  0.8813  2.0161 -1.8220
  126RES    H8235332   2.116   0.968   3.021 -0.3953 -2.3121  0.5418
  126RES    H8335333   1.759   0.765   3.042 -0.8492  0.3248 -0.2733
  126RES    H8435334   1.777   0.865   2.907  1.5806  1.4422 -1.0127
  126RES    H8535335   1.780   0.936   3.067 -0.9016 -1.1835  0.0257
  126RES    O8635336   2.155   0.998   2.774  0.3388 -0.2285 -0.4037
  126RES    C8735337   2.217   0.869   2.777  1.3238  0.1771  0.4895
  126RES    C8835338   2.294   0.841   2.642 -0.0394 -0.4510 -0.1267
  126RES    C8935339   2.393   0.723   2.660 -0.4530 -0.0229  0.3769
  126RES    O9035340   2.466   0.691   2.542  0.2950 -0.9935  0.0277
  126RES    C9135341   2.519   0.568   2.561  0.2203 -0.3301 -0.1262
  126RES    H9235342   2.291   0.881   2.856  2.5074  2.1935 -0.8717
  126RES    H9335343   2.144   0.790   2.790  0.3110  1.2098  1.2022
  126RES    H9435344   2.352   0.926   2.605 -0.8588  0.2773  0.2552
  126RES    H9535345   2.458   0.762   2.739  0.2792 -0.4646 -0.0012
  126RES    H9635346   2.339   0.640   2.705  0.0394 -0.5291  0.0413
  126RES    H9735347   2.567   0.548   2.465 -0.1816  0.7201 -0.5596
  126RES    H9835348   2.595   0.575   2.639  0.5458  0.9509 -0.5410
  126RES    H9935349   2.443   0.493   2.583 -1.3004  0.5681 -2.1588
  126RES   O10035350   2.208   0.801   2.538  0.1892 -0.5081  0.3005
  126RES   C10135351   2.134   0.898   2.481  0.4501  0.2982  0.6251
  126RES   C10235352   2.066   0.850   2.350 -0.2974 -0.7788 -0.6346
  126RES   C10335353   1.974   0.735   2.382  0.0717 -0.7461  0.2668
  126RES   O10435354   1.881   0.721   2.276  0.3784  0.9134  0.1571
  126RES   C10535355   1.772   0.642   2.313 -0.4282 -0.1275  0.1502
  126RES   H10635356   2.188   0.991   2.462  2.2630 -1.4741 -3.4410
  126RES   H10735357   2.053   0.934   2.544  0.9241  1.2412  0.7108
  126RES   H10835358   2.004   0.935   2.322  0.2406  0.0714  0.6765
  126RES   H10935359   1.910   0.770   2.463 -1.2370 -1.3773 -0.4867
  126RES   H11035360   2.023   0.641   2.407 -0.6825 -0.5197  2.7712
  126RES   H11135361   1.816   0.545   2.339  0.1290  0.0487 -0.1394
  126RES   H11235362   1.696   0.626   2.236  1.1527 -1.2830 -1.2189
  126RES   H11335363   1.706   0.678   2.392 -0.1353 -2.0949  1.3327
  126RES   O11435364   2.161   0.818   2.249  0.1973  0.1082  0.3749
  126RES   C11535365   2.180   0.918   2.152  0.2687  0.6455  0.3731
  126RES   C11635366   2.324   0.883   2.083  0.6121 -0.5494 -0.2370
  126RES   C11735367   2.323   0.926   1.939 -0.0573  0.2426  0.3527
  126RES   O11835368   2.424   0.867   1.862 -0.3759  0.4002  0.3027
  126RES   C11935369   2.434   0.918   1.730 -0.2542 -0.3793 -0.4083
  126RES   H12035370   2.091   0.918   2.089  2.0718 -0.5569 -2.2760
  126RES   H12135371   2.183   1.015   2.201 -1.2369  0.3706  1.0538
  126RES   H12235372   2.356   0.780   2.101  2.0735 -0.1920 -0.6865
  126RES   H12335373   2.236   0.877   1.896  0.3127 -0.5280  0.4657
  126RES   H12435374   2.317   1.034   1.925  0.5753  0.2666  0.2496
  126RES   H12535375   2.511   0.866   1.672 -0.6282 -1.2991 -0.0941
  126RES   H12635376   2.473   1.020   1.730 -0.7133 -0.2013 -1.1391
  126RES   H12735377   2.336   0.917   1.683 -0.2219  3.0692 -0.6914
  126RES   O12835378   2.410   0.963   2.152  0.0111 -0.2406 -0.2628
  126RES   C12935379   2.473   0.897   2.254  0.2501  0.3196  0.1787
  126RES   C13035380   2.614   0.841   2.196 -0.4358  0.0517  0.2346
  126RES   C13135381   2.665   0.733   2.286 -0.0634 -0.7352 -0.1559
  126RES   O13235382   2.786   0.674   2.252 -0.6849 -0.1605  0.0017
  126RES   C13335383   2.854   0.611   2.368  0.1760 -0.5945  0.2847
  126RES   H13435384   2.488   0.970   2.334  1.3171 -0.3388  0.6058
  126RES   H13535385   2.401   0.824   2.291  1.5822 -1.7182 -1.1427
  126RES   H13635386   2.611   0.805   2.094 -0.0237  1.7279 -0.3805
  126RES   H13735387   2.588   0.656   2.294 -0.2789 -0.3482  1.8558
  126RES   H13835388   2.668   0.772   2.388  0.7150  1.8754 -1.1526
  126RES   H13935389   2.892   0.685   2.439 -0.8094  0.0864  0.1087
  126RES   H14035390   2.798   0.540   2.428  1.2676 -1.9862 -0.3202
  126RES   H14135391   2.938   0.552   2.331  0.0651 -1.3093  1.1691
  126RES   O14235392   2.714   0.934   2.196 -0.6331  0.1009 -0.3982
  126RES   C14335393   2.716   1.020   2.086 -0.2208  0.3613 -0.0838
  126RES   C14435394   2.837   1.105   2.081 -0.9241 -0.7396 -0.3862
  126RES   C14535395   2.802   1.219   1.987  0.2479 -0.6401  0.3630
  126RES   O14635396   2.906   1.315   1.976  0.1757 -0.5249  0.0225
  126RES   C14735397   2.856   1.436   1.917 -0.5308  0.5429 -0.4466
  126RES   H14835398   2.715   0.961   1.994 -3.6399  2.1924 -1.3071
  126RES   H14935399   2.622   1.075   2.078 -0.5753 -0.1717  0.4045
  126RES   H15035400   2.866   1.147   2.177 -2.3952  0.4943 -0.4721
  126RES   H15135401   2.718   1.275   2.029 -0.5812 -0.7163 -1.1728
  126RES   H15235402   2.777   1.171   1.892 -0.5962  1.3131 -0.4315
  126RES   H15335403   2.763   1.465   1.965 -0.9029  0.2923 -1.0046
  126RES   H15435404   2.836   1.412   1.813 -0.1524  2.1888 -0.9034
  126RES   H15535405   2.929   1.514   1.937  1.0454 -0.6599 -1.4426
  126RES   O15635406   2.957   1.043   2.033 -0.4004  0.1863  0.0748
  126RES   C15735407   2.998   0.930   2.115 -0.7109 -0.1078  0.7979
  126RES   C15835408   3.149   0.911   2.115  0.9630  0.6032  0.1308
  126RES   C15935409   3.205   0.770   2.153 -0.4362 -0.1288  0.2645
  126RES   O16035410   3.331   0.735   2.092 -0.3316 -0.6844  0.4801
  126RES   C16135411   3.447   0.802   2.128  0.6039  0.1293 -0.6849
  126RES   H16235412   2.963   0.940   2.218 -1.3524 -2.1918  0.8018
  126RES   H16335413   2.950   0.844   2.067 -1.4191  0.4533  0.4861
  126RES   H16435414   3.181   0.921   2.011 -0.1497 -1.2576 -0.4208
  126RES   H16535415   3.211   0.753   2.260  1.9642  0.0651  0.1721
  126RES   H16635416   3.137   0.694   2.115  0.1150 -0.7555  0.5211
  126RES   H16735417   3.445   0.803   2.237 -0.3371  0.7882 -0.7063
  126RES   H16835418   3.458   0.904   2.093 -2.7706  0.9929  0.6170
  126RES   H16935419   3.531   0.744   2.089 -1.2098 -1.8758 -1.7180
  126RES   O17035420   3.210   1.002   2.203 -0.0047 -0.5299 -0.5782
  126RES   C17135421   3.217   1.135   2.144 -0.2414 -0.2214 -0.6554
  126RES   C17235422   3.332   1.223   2.200  0.0983  0.1487  0.6920
  126RES   C17335423   3.350   1.352   2.113  0.1731 -0.1197  0.6384
  126RES   O17435424   3.401   1.455   2.186 -0.0127 -0.0046  0.2125
  126RES   C17535425   3.429   1.562   2.090 -0.2637  0.6733 -0.4489
  126RES   H17635426   3.122   1.186   2.161  0.0588 -0.0563  0.5806
  126RES   H17735427   3.223   1.117   2.037 -1.4191  0.0902 -0.7774
  126RES   H17835428   3.299   1.261   2.296  2.5960 -0.1698  1.7198
  126RES   H17935429   3.414   1.321   2.031 -2.4952 -0.4849 -1.3660
  126RES   H18035430   3.256   1.379   2.065  1.7808  0.8892 -2.0315
  126RES   H18135431   3.516   1.541   2.028 -0.1701  0.7739 -0.3532
  126RES   H18235432   3.416   1.658   2.141  1.7283  0.9227 -0.3408
  126RES   H18335433   3.347   1.566   2.019  0.3150 -2.7005 -1.3919
  126RES   O18435434   3.453   1.147   2.205  0.6653  0.1490  0.2395
  126RES   C18535435   3.510   1.134   2.331 -0.1357  0.1425  0.1399
  126RES   C18635436   3.645   1.059   2.315 -0.1419  0.2811 -0.5319
  126RES   C18735437   3.687   0.968   2.429 -0.4565 -0.7886 -0.0362
  126RES   O18835438   3.817   0.895   2.429  0.2415  0.7357  0.5714
  126RES   C18935439   3.853   0.848   2.557 -0.4134  0.2324 -0.5532
  126RES   H19035440   3.445   1.081   2.400 -0.0581  1.4329  1.2481
  126RES   H19135441   3.538   1.229   2.378  0.3835 -0.6871  1.5415
  126RES   H19235442   3.651   0.990   2.231  2.1370  1.6016 -1.4908
  126RES   H19335443   3.614   0.888   2.438 -1.3776 -0.2821 -2.4090
  126RES   H19435444   3.675   1.032   2.516 -0.6816  0.3688 -0.9014
  126RES   H19535445   3.959   0.824   2.559 -0.1915  1.1000 -1.7538
  126RES   H19635446   3.837   0.930   2.627  1.4298  0.0443  0.1057
  126RES   H19735447   3.791   0.761   2.578 -0.3321  0.0060 -1.2520
  126RES   O19835448   3.755   1.156   2.296  0.4170  0.4973  0.0169
  126RES   C19935449   3.764   1.202   2.166  1.0974  0.0161  0.3490
  126RES   C20035450   3.825   1.342   2.163  0.9908 -0.3795  0.4699
  126RES   C20135451   3.802   1.415   2.025 -0.3642 -0.3476 -1.2568
  126RES   O20235452   3.795   1.558   2.037  0.8657 -0.0996 -0.6668
  126RES   C20335453   3.804   1.626   1.913 -0.1086 -0.1685  0.0604
  126RES   H20435454   3.663   1.212   2.126  0.8899  1.7082  1.2278
  126RES   H20535455   3.826   1.128   2.117 -0.5676 -0.9797 -0.2940
  126RES   H20635456   3.793   1.402   2.248 -1.0515  0.3155 -0.7364
  126RES   H20735457   3.875   1.376   1.954  1.8737  0.4988  0.5064
  126RES   H20835458   3.704   1.382   1.991 -1.3766  3.2989 -2.1066
  126RES   H20935459   3.778   1.561   1.829  0.3347 -0.5334  0.2009
  126RES   H21035460   3.906   1.663   1.900  0.5438 -1.6879  0.7102
  126RES   H21135461   3.735   1.710   1.899  1.3118  1.2850  1.5862
  126RES   O21235462   3.964   1.335   2.187  0.0015  0.4581 -0.5936
  126RES   C21335463   4.035   1.452   2.230 -0.6064  0.0814  0.7038
  126RES   C21435464   4.188   1.417   2.238  0.1636 -0.1339 -0.2000
  126RES   C21535465   4.272   1.519   2.318 -0.3168 -0.0347  0.1372
  126RES   O21635466   4.225   1.545   2.447  0.3575  0.0368 -0.2153
  126RES   C21735467   4.292   1.656   2.509  0.6178  0.8686  0.0135
  126RES   H21835468   3.989   1.472   2.327 -1.3437  0.1102  0.3497
  126RES   H21935469   4.007   1.539   2.170 -2.3267  0.5126  2.0909
  126RES   H22035470   4.209   1.319   2.281  0.8674  0.3778  0.6434
  126RES   H22135471   4.373   1.477   2.317 -0.8512 -1.3834  0.6717
  126RES   H22235472   4.274   1.614   2.266  2.5177 -0.2987 -0.3073
  126RES   H22335473   4.248   1.672   2.607  0.6789 -1.4167  0.4513
  126RES   H22435474   4.293   1.749   2.453 -0.6374  0.9212  0.0723
  126RES   H22535475   4.397   1.635   2.527  0.4516 -0.5818 -0.6134
  126RES   O22635476   4.249   1.414   2.112  0.0322 -0.5654  0.0365
  126RES   C22735477   4.267   1.280   2.059 -0.3979  0.2395 -0.5259
  126RES   C22835478   4.303   1.267   1.910  0.0089 -0.2330  0.6161
  126RES   C22935479   4.270   1.124   1.858  0.0324  0.1777  0.4072
  126RES   O23035480   4.332   1.080   1.738 -0.4431 -0.0557 -0.0024
  126RES   C23135481   4.250   1.107   1.621  0.0634 -0.6572  0.4233
  126RES   H23235482   4.183   1.212   2.069 -3.6854  4.1694  0.0497
  126RES   H23335483   4.347   1.232   2.116  0.3051  2.5676  0.5326
  126RES   H23435484   4.407   1.288   1.883  0.3772 -1.4710  1.0677
  126RES   H23535485   4.164   1.103   1.869  0.7972 -3.7264  1.1863
  126RES   H23635486   4.313   1.056   1.932 -0.9856  1.4836  2.2333
  126RES   H23735487   4.217   1.208   1.600 -2.7722 -1.8745 -1.4356
  126RES   H23835488   4.164   1.039   1.619  0.9972 -1.8572 -0.0351
  126RES   H23935489   4.319   1.097   1.537  0.5004  2.7202  0.3197
  126RES   O24035490   4.218   1.348   1.833  0.1111  0.1397  0.1933
  126RES   C24135491   4.273   1.479   1.805  0.0797 -0.0739  0.3476
  126RES   C24235492   4.156   1.528   1.710 -0.3183 -0.4714  0.7146
  126RES   C24335493   4.160   1.684   1.687 -0.2566 -0.2052  0.2308
  126RES   O24435494   4.025   1.731   1.686 -0.1400  0.4203  0.0245
  126RES   C24535495   4.013   1.863   1.644 -0.6230 -0.2535 -0.1541
  126RES   H24635496   4.372   1.477   1.761  0.3594 -0.7295  0.9951
  126RES   H24735497   4.301   1.541   1.890  3.5581 -3.0623  1.5523
  126RES   H24835498   4.060   1.505   1.756 -2.5841  1.0956 -2.9811
  126RES   H24935499   4.193   1.717   1.786 -0.5010 -0.5093  0.4163
  126RES   H25035500   4.228   1.726   1.614 -2.0050  2.1092 -0.1073
  126RES   H25135501   4.087   1.933   1.682 -0.6189  1.1160 -2.6038
  126RES   H25235502   3.911   1.890   1.673  0.2310  0.7831  1.9320
  126RES   H25335503   4.027   1.872   1.536  1.1845  0.7807  0.1563
  126RES   O25435504   4.167   1.463   1.582  0.2169  0.6519  0.8338
  126RES   C25535505   4.064   1.489   1.486  1.0384 -0.2241 -0.2754
  126RES   C25635506   4.108   1.408   1.364 -0.2986 -0.5118 -0.0786
  126RES   C25735507   4.036   1.276   1.355 -0.2021  0.6159  0.1368
  126RES   O25835508   4.105   1.191   1.268  0.0083  0.2241  0.3680
  126RES   C25935509   4.033   1.075   1.243 -0.2367  0.4068 -0.2037
  126RES   H26035510   3.969   1.447   1.520 -0.1186 -0.0118 -3.1521
  126RES   H26135511   4.047   1.594   1.460  1.5364  0.0011  0.2951
  126RES   H26235512   4.212   1.383   1.385  0.4951  1.9350 -0.9105
  126RES   H26335513   4.029   1.231   1.454 -1.5900 -2.4288 -1.2791
  126RES   H26435514   3.929   1.288   1.335 -0.0510  2.5322  0.3854
  126RES   H26535515   4.089   1.012   1.175  1.2738  0.5346  0.8900
  126RES   H26635516   3.939   1.105   1.197 -0.3460 -1.6557 -1.3572
  126RES   H26735517   4.023   1.008   1.329 -0.7647  2.1227  1.1156
  126RES   O26835518   4.101   1.498   1.251 -1.2975  0.2089 -0.0711
  126RES   C26935519   4.140   1.441   1.127  0.0393 -0.2771  0.3818
  126RES   C27035520   4.169   1.561   1.026 -0.1940 -0.2992  0.1141
  126RES   C27135521   4.278   1.657   1.073 -0.0785  0.5426  0.6187
  126RES   O27235522   4.293   1.768   0.982  0.7474  0.5775 -0.3097
  126RES   C27335523   4.400   1.853   1.012  0.1973 -0.0327 -0.3193
  126RES   H27435524   4.058   1.382   1.085  0.9388  0.7038 -2.9504
  126RES   H27535525   4.228   1.380   1.143  0.0365 -0.4596 -0.2756
  126RES   H27635526   4.177   1.534   0.921  1.6305 -0.5062  0.2784
  126RES   H27735527   4.376   1.611   1.084 -0.7446 -1.1219 -0.3212
  126RES   H27835528   4.259   1.691   1.175 -0.0922 -0.5609  0.9931
  126RES   H27935529   4.495   1.806   0.988  1.0748  1.0977  0.9114
  126RES   H28035530   4.387   1.889   1.114 -2.0423 -3.1091  0.5686
  126RES   H28135531   4.398   1.941   0.948  1.5739  0.4949  0.3498
  126RES   H28235532   4.086   1.631   1.032 -1.1487 -1.3741 -0.5253
  127RES     O135533   6.501   1.104   4.704  0.1033  0.0924 -0.0070
  127RES     C235534   6.392   1.080   4.793 -0.0602  0.3696  0.4169
  127RES     C335535   6.265   1.134   4.736  0.1164 -0.4192  0.7415
  127RES     C435536   6.150   1.130   4.840 -0.1906  0.4822 -0.3367
  127RES     O535537   6.026   1.163   4.780 -0.5245  0.3523  0.2541
  127RES     C635538   5.919   1.199   4.865 -0.4097  0.3885 -0.7814
  127RES     H735539   6.383   0.981   4.838  1.3014  1.0976  2.3911
  127RES     H835540   6.423   1.123   4.889 -1.1669 -0.4208  1.1458
  127RES     H935541   6.256   1.056   4.661  0.0813  1.0182 -0.7900
  127RES    H1035542   6.169   1.214   4.908 -0.6066  1.6897 -1.6984
  127RES    H1135543   6.151   1.044   4.906 -0.0456  0.1244 -0.8070
  127RES    H1235544   5.908   1.132   4.950 -1.5021  0.1088 -1.1435
  127RES    H1335545   5.938   1.300   4.904 -1.4460  0.7086 -1.1097
  127RES    H1435546   5.827   1.192   4.808 -2.1802 -1.8758  2.2414
  127RES    H1535547   6.506   1.196   4.687 -0.3205  0.1776  0.2894
  127RES    O1635548   6.300   1.268   4.688 -0.1154  0.4426 -0.0780
  127RES    C1735549   6.218   1.318   4.585  0.1237  0.3029  0.8551
  127RES    C1835550   6.275   1.257   4.455 -0.0965 -0.0834  0.5287
  127RES    C1935551   6.204   1.327   4.330 -0.0439  0.4221 -0.0869
  127RES    O2035552   6.287   1.307   4.212 -0.2297 -0.0881 -0.3241
  127RES    C2135553   6.241   1.392   4.114 -0.5064  0.2379  0.1855
  127RES    H2235554   6.211   1.427   4.587 -2.2436  0.2670 -2.4335
  127RES    H2335555   6.118   1.288   4.616  1.3363 -0.9419  3.7489
  127RES    H2435556   6.253   1.150   4.450  1.7707 -0.5319  1.6490
  127RES    H2535557   6.114   1.266   4.321 -0.3807  0.7395  1.0013
  127RES    H2635558   6.174   1.429   4.354 -0.6425  0.7352 -2.1164
  127RES    H2735559   6.268   1.498   4.123 -0.8410  0.4634 -1.3048
  127RES    H2835560   6.134   1.397   4.097 -0.3013  0.1575 -1.2505
  127RES    H2935561   6.296   1.352   4.028 -1.3568  2.7501 -1.5895
  127RES    O3035562   6.411   1.292   4.437 -0.2705 -0.0527  0.4984
  127RES    C3135563   6.488   1.187   4.379  0.5012 -1.1388  0.0708
  127RES    C3235564   6.637   1.231   4.400  0.2550 -0.1696  0.6261
  127RES    C3335565   6.736   1.116   4.359 -0.1847 -0.7436  0.0481
  127RES    O3435566   6.861   1.158   4.303 -0.6222 -0.0710 -0.0072
  127RES    C3535567   6.949   1.056   4.261 -0.0929 -0.0249 -0.1311
  127RES    H3635568   6.469   1.109   4.453 -1.2225  0.7673  1.7188
  127RES    H3735569   6.453   1.157   4.281 -0.3275  3.5656 -1.1852
  127RES    H3835570   6.662   1.314   4.335 -2.2001  0.2197  0.1334
  127RES    H3935571   6.691   1.044   4.291 -0.7833 -0.0407 -0.3161
  127RES    H4035572   6.756   1.055   4.446 -1.0679  1.0269  1.5304
  127RES    H4135573   6.941   1.026   4.157  1.8681  1.4360 -0.7119
  127RES    H4235574   6.958   0.974   4.333  0.7473 -1.2053 -1.5584
  127RES    H4335575   7.051   1.092   4.268 -0.0802 -0.4784  2.9873
  127RES    O4435576   6.656   1.269   4.536 -0.0024  0.1704 -0.1673
  127RES    C4535577   6.793   1.305   4.574 -0.4049 -1.3271 -0.4344
  127RES    C4635578   6.804   1.316   4.728  0.0805  0.2413  0.3039
  127RES    C4735579   6.940   1.312   4.796 -0.3370  0.3896  1.0562
  127RES    O4835580   7.021   1.198   4.793 -0.1982  0.1232 -0.3967
  127RES    C4935581   6.951   1.078   4.817  0.3988  0.0229 -0.1851
  127RES    H5035582   6.827   1.392   4.517  2.6790 -1.6883  0.7574
  127RES    H5135583   6.857   1.219   4.551  0.6209 -1.3088  2.2665
  127RES    H5235584   6.739   1.239   4.768  0.0363 -0.0418 -0.3129
  127RES    H5335585   6.997   1.392   4.748 -0.4783  0.7442  1.4689
  127RES    H5435586   6.920   1.336   4.901  0.6099  0.9787  1.1119
  127RES    H5535587   6.904   1.042   4.725  0.8397  1.0433 -0.8238
  127RES    H5635588   6.879   1.094   4.898  0.4537 -1.0254  0.0696
  127RES    H5735589   7.015   1.005   4.865  0.2200 -1.8858 -2.7358
  127RES    O5835590   6.761   1.453   4.757 -0.0609  0.3349  0.4097
  127RES    C5935591   6.619   1.469   4.765  0.8722  0.2347  0.9594
  127RES    C6035592   6.585   1.613   4.796 -0.1043 -0.3831 -0.3364
  127RES    C6135593   6.615   1.653   4.946  0.1705 -0.2608  0.2272
  127RES    O6235594   6.664   1.790   4.948  0.2425 -0.1054 -0.0914
  127RES    C6335595   6.749   1.810   5.062  0.7180 -0.3498 -0.4248
  127RES    H6435596   6.571   1.389   4.822 -2.0533 -0.0184 -1.7221
  127RES    H6535597   6.587   1.439   4.665  1.7785 -0.5636  0.9101
  127RES    H6635598   6.634   1.674   4.720  2.7999 -2.8381 -0.4970
  127RES    H6735599   6.530   1.637   5.012 -0.1816 -1.4678 -0.5093
  127RES    H6835600   6.697   1.588   4.977  0.5982  1.1792  2.2551
  127RES    H6935601   6.691   1.792   5.152 -3.8865  1.3047 -2.9017
  127RES    H7035602   6.783   1.914   5.066  1.4041 -0.5469 -1.0792
  127RES    H7135603   6.841   1.752   5.068  0.1462 -1.2267  0.0097
  127RES    O7235604   6.447   1.627   4.772 -0.2106 -0.0055 -0.4604
  127RES    C7335605   6.374   1.748   4.798  0.0610  0.4086 -0.1084
  127RES    C7435606   6.220   1.716   4.797  0.0794  0.1057 -0.3882
  127RES    C7535607   6.140   1.848   4.798 -0.5597  0.0352 -0.0395
  127RES    O7635608   6.187   1.935   4.904 -0.2035  0.4280  0.1192
  127RES    C7735609   6.091   2.036   4.928  0.4343 -0.0418  0.5924
  127RES    H7835610   6.398   1.786   4.897  0.2908  1.0865 -0.4239
  127RES    H7935611   6.400   1.820   4.721  2.0199 -0.6887 -0.5006
  127RES    H8035612   6.193   1.654   4.712  1.3687  3.7889 -3.6239
  127RES    H8135613   6.034   1.823   4.811 -0.2377 -0.8212  1.0027
  127RES    H8235614   6.146   1.903   4.704  0.1005  3.4733  1.9416
  127RES    H8335615   6.134   2.106   4.998  1.0107  0.4721 -0.2652
  127RES    H8435616   6.000   1.997   4.974 -0.5079 -0.9682 -1.9674
  127RES    H8535617   6.083   2.099   4.839 -2.5392 -2.2857 -0.8098
  127RES    O8635618   6.199   1.649   4.920  0.7951 -0.4634 -0.0180
  127RES    C8735619   6.215   1.513   4.914 -0.8827  0.6501 -0.1791
  127RES    C8835620   6.269   1.483   5.052  0.7340  0.5260 -0.2011
  127RES    C8935621   6.153   1.449   5.153 -0.5553 -0.5234 -0.6204
  127RES    O9035622   6.117   1.314   5.153 -0.1865 -0.7996  0.5410
  127RES    C9135623   6.052   1.273   5.272  1.0613 -0.2352  0.3563
  127RES    H9235624   6.122   1.460   4.893 -1.2820  0.6241  1.5417
  127RES    H9335625   6.281   1.464   4.843 -2.2583 -0.4348 -0.7291
  127RES    H9435626   6.332   1.560   5.095  1.8971  0.1822 -1.2769
  127RES    H9535627   6.182   1.472   5.256  3.1650 -1.1452 -1.4708
  127RES    H9635628   6.070   1.511   5.117 -0.4896 -1.1204 -1.8272
  127RES    H9735629   6.032   1.344   5.352  0.2746 -0.1011  0.0455
  127RES    H9835630   5.957   1.226   5.248  1.5736 -0.3456 -1.5258
  127RES    H9935631   6.114   1.201   5.327  1.4043 -0.1837  0.0422
  127RES   O10035632   6.350   1.360   5.052  0.4948 -0.3096 -0.2525
  127RES   C10135633   6.441   1.348   5.160 -1.0942  1.0256  0.3409
  127RES   C10235634   6.520   1.218   5.149  0.2340 -1.0222 -0.0411
  127RES   C10335635   6.429   1.099   5.166  0.7193  0.6059  0.3128
  127RES   O10435636   6.509   0.985   5.134 -0.5118 -0.2248 -0.0335
  127RES   C10535637   6.430   0.868   5.135  0.0781  0.0282 -0.2568
  127RES   H10635638   6.378   1.344   5.249 -0.4143  0.2408  0.7860
  127RES   H10735639   6.508   1.434   5.157  0.8612 -0.4552  0.7526
  127RES   H10835640   6.561   1.214   5.048 -0.7210 -1.5752 -0.4115
  127RES   H10935641   6.348   1.111   5.094  0.9725 -0.0175 -0.0824
  127RES   H11035642   6.385   1.092   5.265  1.4603 -0.0624  0.5966
  127RES   H11135643   6.390   0.838   5.232  2.1198 -0.5495  0.4302
  127RES   H11235644   6.493   0.781   5.117 -0.1772 -0.8134  2.5652
  127RES   H11335645   6.354   0.883   5.059  0.3255  0.3965 -0.4301
  127RES   O11435646   6.618   1.225   5.252  0.0622 -0.1509 -0.0885
  127RES   C11535647   6.752   1.183   5.223 -0.0498  0.0757  0.0009
  127RES   C11635648   6.849   1.262   5.309 -0.0478 -0.1752 -0.0944
  127RES   C11735649   6.989   1.200   5.307  0.0594 -0.3767  0.2130
  127RES   O11835650   6.995   1.106   5.409  0.6195 -0.0004  0.2242
  127RES   C11935651   7.121   1.039   5.408  0.0906 -0.4303 -0.6862
  127RES   H12035652   6.750   1.077   5.245  0.2890 -0.0039 -0.3337
  127RES   H12135653   6.784   1.195   5.119  3.4250 -0.8120  0.9328
  127RES   H12235654   6.818   1.259   5.414 -0.6266  0.2865 -0.2503
  127RES   H12335655   7.018   1.169   5.207  0.1453  1.0426 -0.2167
  127RES   H12435656   7.061   1.276   5.337 -0.9463 -0.0353  1.8150
  127RES   H12535657   7.128   0.985   5.503  1.0535  0.0677 -0.4688
  127RES   H12635658   7.200   1.113   5.419 -0.3009 -0.1205  0.1355
  127RES   H12735659   7.146   0.977   5.323  2.0263 -3.0221  1.6756
  127RES   O12835660   6.872   1.393   5.262 -0.6386 -0.0947 -0.4851
  127RES   C12935661   6.806   1.498   5.336 -0.0656 -0.5530  1.0816
  127RES   C13035662   6.887   1.546   5.456  0.0701 -0.2816 -0.5725
  127RES   C13135663   7.020   1.595   5.410  0.8352  0.1142 -0.4071
  127RES   O13235664   7.083   1.672   5.511  0.0697  0.3770  0.1942
  127RES   C13335665   7.226   1.684   5.492 -0.1568  0.5693 -0.7642
  127RES   H13435666   6.785   1.575   5.262  1.4299 -1.1819 -0.0336
  127RES   H13535667   6.707   1.461   5.363 -0.2320 -0.6060  0.3888
  127RES   H13635668   6.829   1.634   5.485  0.4683 -0.6182  1.2784
  127RES   H13735669   7.011   1.664   5.325  0.8793 -0.1894 -0.6571
  127RES   H13835670   7.082   1.508   5.387  0.0749 -0.1035 -1.7147
  127RES   H13935671   7.271   1.587   5.514 -0.3105  1.0319  1.7866
  127RES   H14035672   7.244   1.723   5.392 -0.6025  1.9656 -0.3143
  127RES   H14135673   7.253   1.761   5.564 -0.8087  0.3361 -0.2694
  127RES   O14235674   6.892   1.447   5.554 -0.0599  0.1482 -0.0830
  127RES   C14335675   6.905   1.494   5.686  0.7995 -0.2545 -0.3337
  127RES   C14435676   6.811   1.407   5.778  0.3183 -0.2181 -0.1046
  127RES   C14535677   6.813   1.478   5.920  0.1563  0.6463  0.9138
  127RES   O14635678   6.702   1.421   5.995  0.0359  0.5348  0.6907
  127RES   C14735679   6.749   1.334   6.100  0.6798  0.3213  0.6793
  127RES   H14835680   7.006   1.508   5.724  0.8411 -0.3462 -0.4093
  127RES   H14935681   6.860   1.593   5.689  0.7708 -0.3276  2.1050
  127RES   H15035682   6.707   1.412   5.747 -0.2657  2.2517  1.9849
  127RES   H15135683   6.787   1.583   5.906 -2.3789 -0.1285 -0.4907
  127RES   H15235684   6.904   1.474   5.978  0.9994  0.7928 -0.3717
  127RES   H15335685   6.818   1.261   6.056 -0.5259  0.1112 -0.9125
  127RES   H15435686   6.665   1.275   6.135  2.0110 -0.2649  2.9350
  127RES   H15535687   6.785   1.386   6.189  2.2461 -2.0680  1.4876
  127RES   O15635688   6.885   1.284   5.805 -0.3363  0.8542  0.8433
  127RES   C15735689   6.825   1.169   5.749  0.0410 -0.3442 -0.0776
  127RES   C15835690   6.907   1.047   5.783  0.2793  0.4507 -0.1574
  127RES   C15935691   6.865   0.918   5.714  0.1922  0.5212  0.1418
  127RES   O16035692   6.983   0.840   5.678  0.3167  0.2513 -0.4546
  127RES   C16135693   6.958   0.714   5.619  0.5939  0.4191  0.1999
  127RES   H16235694   6.725   1.162   5.791 -1.4937  1.7293 -3.1999
  127RES   H16335695   6.824   1.178   5.640 -0.6815  1.8843  0.0940
  127RES   H16435696   7.010   1.059   5.749  0.0306  1.1060 -0.6876
  127RES   H16535697   6.798   0.862   5.779  1.4282 -0.9296  0.2197
  127RES   H16635698   6.822   0.935   5.616  2.9904  3.1351 -0.7205
  127RES   H16735699   6.861   0.668   5.640  0.7109 -0.9183 -2.0062
  127RES   H16835700   7.041   0.647   5.641 -1.7617 -2.5888  0.3151
  127RES   H16935701   6.965   0.736   5.513  0.0763 -0.3479  0.0036
  127RES   O17035702   6.905   1.020   5.923 -0.0241 -0.6093  0.3040
  127RES   C17135703   7.030   0.978   5.972  0.1005 -0.2598  0.0799
  127RES   C17235704   7.010   0.901   6.105 -0.0307 -0.6270  0.2227
  127RES   C17335705   7.145   0.896   6.178  0.9344 -0.0332 -0.0375
  127RES   O17435706   7.255   0.877   6.086 -0.3192  0.0602 -0.6589
  127RES   C17535707   7.376   0.838   6.155  0.4485  0.3039  0.1640
  127RES   H17635708   7.093   1.066   5.984  0.8721 -0.7666 -0.2102
  127RES   H17735709   7.074   0.901   5.909 -0.1393  0.6462 -1.1957
  127RES   H17835710   6.932   0.949   6.164 -1.2918 -1.3153 -0.8399
  127RES   H17935711   7.161   0.994   6.223 -1.3674  0.4516 -0.2019
  127RES   H18035712   7.142   0.821   6.258 -0.3969  1.2003  1.0994
  127RES   H18135713   7.371   0.736   6.193  1.0791  0.2955  0.2422
  127RES   H18235714   7.388   0.906   6.240  0.0966  0.0928  0.3824
  127RES   H18335715   7.462   0.832   6.088 -0.1067  0.0178 -0.5200
  127RES   O18435716   6.974   0.766   6.081  0.4203  0.2518 -0.8434
  127RES   C18535717   6.838   0.734   6.071 -0.2399  0.4943  0.0231
  127RES   C18635718   6.829   0.581   6.058 -0.3373 -0.3101 -0.1456
  127RES   C18735719   6.686   0.544   6.007 -0.0980 -0.7060 -0.2578
  127RES   O18835720   6.680   0.415   5.954  0.7138  0.2536  0.5482
  127RES   C18935721   6.728   0.418   5.817  0.2682  0.8117 -0.0781
  127RES   H19035722   6.790   0.791   5.992 -1.8102 -0.8556 -0.0134
  127RES   H19135723   6.780   0.768   6.157 -0.1303 -0.5828  0.5254
  127RES   H19235724   6.906   0.539   5.994 -1.6840 -0.0585 -1.9745
  127RES   H19335725   6.665   0.621   5.932 -0.0462 -0.6135 -0.1757
  127RES   H19435726   6.619   0.556   6.092 -1.0613 -2.2316 -0.7756
  127RES   H19535727   6.663   0.487   5.763  1.7712  4.4110  2.4909
  127RES   H19635728   6.827   0.462   5.800 -0.5996  2.5381 -0.7632
  127RES   H19735729   6.710   0.321   5.771 -1.8232  0.5872  1.1639
  127RES   O19835730   6.834   0.516   6.186 -0.3644  0.7613  0.1792
  127RES   C19935731   6.920   0.401   6.189  0.5574 -0.1267 -0.3201
  127RES   C20035732   6.936   0.334   6.327  0.0553 -0.3039  0.6596
  127RES   C20135733   7.059   0.244   6.341 -0.1128 -0.4481 -0.0686
  127RES   O20235734   7.046   0.193   6.472  0.0304 -0.4402 -0.1452
  127RES   C20335735   7.158   0.112   6.507  0.3585 -0.1836 -0.3830
  127RES   H20435736   7.015   0.444   6.158  0.3171  1.9110  1.5687
  127RES   H20535737   6.880   0.335   6.112 -0.9843  0.7852 -0.3401
  127RES   H20635738   6.939   0.413   6.402  0.3279  0.9564 -0.6373
  127RES   H20735739   7.061   0.163   6.269 -0.2475 -0.3966 -0.1298
  127RES   H20835740   7.154   0.296   6.328  1.9736 -3.5488  1.9727
  127RES   H20935741   7.139   0.062   6.603 -0.3158  1.4177  0.3276
  127RES   H21035742   7.248   0.173   6.512  0.0833  0.0400  3.4700
  127RES   H21135743   7.178   0.039   6.428  1.0663 -1.2173  0.7275
  127RES   O21235744   6.826   0.248   6.346 -0.4831 -0.8742  0.0714
  127RES   C21335745   6.689   0.301   6.337  0.4458  0.1029 -0.6230
  127RES   C21435746   6.600   0.233   6.445  0.5742  0.1119  0.2065
  127RES   C21535747   6.452   0.236   6.397 -0.5063 -0.1964  0.1279
  127RES   O21635748   6.385   0.362   6.365 -0.1399  0.3618 -0.3159
  127RES   C21735749   6.393   0.463   6.462 -0.0752 -0.0148 -0.7198
  127RES   H21835750   6.658   0.292   6.233  1.9081 -0.0787 -1.0500
  127RES   H21935751   6.687   0.408   6.361  0.9644  0.6809 -3.0453
  127RES   H22035752   6.618   0.126   6.450  1.5970  0.2385 -0.5497
  127RES   H22135753   6.437   0.186   6.301 -1.1347  1.4155 -0.6351
  127RES   H22235754   6.383   0.190   6.468  0.7836 -0.1901  1.3992
  127RES   H22335755   6.364   0.425   6.560 -0.0090  0.6146 -0.4565
  127RES   H22435756   6.325   0.540   6.424  0.7287  0.6057 -0.9130
  127RES   H22535757   6.487   0.517   6.465 -0.2255  0.1759  0.8912
  127RES   O22635758   6.613   0.292   6.574 -0.0538  0.0737 -0.0479
  127RES   C22735759   6.719   0.237   6.649  0.3476 -0.5543  0.5017
  127RES   C22835760   6.695   0.273   6.794 -0.0490 -0.6796  0.1771
  127RES   C22935761   6.788   0.192   6.876 -0.1637  0.6461  0.1310
  127RES   O23035762   6.783   0.230   7.011  0.0381 -0.2866  0.5303
  127RES   C23135763   6.893   0.179   7.086  0.8458 -0.3120  0.3695
  127RES   H23235764   6.811   0.273   6.604  0.2120 -2.7233 -1.6267
  127RES   H23335765   6.714   0.129   6.632  0.1819 -0.6768  1.3132
  127RES   H23435766   6.596   0.258   6.837 -0.6312  0.2704 -0.7930
  127RES   H23535767   6.889   0.208   6.839 -0.6277  2.0511 -0.5739
  127RES   H23635768   6.768   0.086   6.866  0.9268  0.1475  2.9437
  127RES   H23735769   6.895   0.070   7.087  5.0394 -0.3203  1.4621
  127RES   H23835770   6.879   0.215   7.188 -1.3878 -1.1024  0.3853
  127RES   H23935771   6.986   0.222   7.050  1.4279 -0.4007  1.7391
  127RES   O24035772   6.730   0.404   6.812 -0.2052 -0.2818  0.1261
  127RES   C24135773   6.633   0.503   6.786 -0.0957 -0.0548 -0.3134
  127RES   C24235774   6.586   0.566   6.915  0.1242  1.3586 -0.0088
  127RES   C24335775   6.539   0.711   6.905 -0.3826 -0.7411  0.1985
  127RES   O24435776   6.457   0.749   6.801  0.5649  0.6166  0.5091
  127RES   C24535777   6.326   0.694   6.807 -0.8219  0.3064 -0.7025
  127RES   H24635778   6.542   0.465   6.739  0.0452 -0.8007  0.0220
  127RES   H24735779   6.671   0.578   6.716 -0.5217 -0.8206 -1.3857
  127RES   H24835780   6.666   0.569   6.989  0.2528  1.4839 -0.1552
  127RES   H24935781   6.486   0.743   6.995  0.4004 -0.6151  0.6131
  127RES   H25035782   6.631   0.768   6.891 -1.1136 -0.0474 -1.9864
  127RES   H25135783   6.277   0.719   6.713  1.4309 -2.7111 -2.7968
  127RES   H25235784   6.268   0.743   6.885  0.4562 -0.9710  1.0974
  127RES   H25335785   6.323   0.585   6.817  1.6492  0.1554 -1.2779
  127RES   O25435786   6.493   0.474   6.979  0.6952 -0.3280 -0.0650
  127RES   C25535787   6.457   0.507   7.110 -0.2698 -0.5343  0.6435
  127RES   C25635788   6.368   0.386   7.155  0.1625  0.1078  0.3004
  127RES   C25735789   6.460   0.265   7.182  0.6907  0.7056 -0.0103
  127RES   O25835790   6.404   0.136   7.194  0.5048  0.1753  0.0251
  127RES   C25935791   6.505   0.040   7.175  0.0463 -0.9176 -0.6281
  127RES   H26035792   6.535   0.504   7.187  0.1743  1.4333  0.2948
  127RES   H26135793   6.415   0.607   7.118  1.8011  0.3183  1.4077
  127RES   H26235794   6.287   0.357   7.088  1.1280  0.8195 -1.2013
  127RES   H26335795   6.535   0.269   7.102  0.9285  1.7476  0.2588
  127RES   H26435796   6.517   0.304   7.266  1.6450  0.5216 -0.5649
  127RES   H26535797   6.559   0.049   7.269  1.1166  1.2496 -1.4027
  127RES   H26635798   6.571   0.052   7.089 -0.4539  1.9531 -0.6502
  127RES   H26735799   6.455   7.760   7.171 -3.2752  0.4941  3.0957
  127RES   O26835800   6.313   0.436   7.276  0.1850  0.2320  0.7364
  127RES   C26935801   6.252   0.330   7.351  0.0272 -0.0445 -0.5342
  127RES   C27035802   6.140   0.400   7.439 -0.1948 -0.3516 -0.3452
  127RES   C27135803   6.052   0.298   7.513  0.4254  0.1749 -0.5593
  127RES   O27235804   5.920   0.341   7.521  0.5127 -0.4008  0.0967
  127RES   C27335805   5.838   0.266   7.608 -0.2405  0.2605 -0.3517
  127RES   H27435806   6.330   0.273   7.401 -0.2221 -0.1621 -0.2784
  127RES   H27535807   6.193   0.258   7.295 -0.9278 -0.4752  1.0060
  127RES   H27635808   6.198   0.461   7.509  0.5437  0.7546 -1.8898
  127RES   H27735809   6.085   0.262   7.610  0.1813  0.3034 -0.4272
  127RES   H27835810   6.034   0.208   7.455 -2.9571  0.9052 -0.7123
  127RES   H27935811   5.738   0.304   7.586 -0.6411  0.5080  1.7724
  127RES   H28035812   5.844   0.294   7.713 -1.2318 -0.2965 -0.1354
  127RES   H28135813   5.850   0.162   7.579  0.3425  0.5101 -1.0184
  127RES   H28235814   6.082   0.466   7.375  0.0618  2.0665  1.8321
  128RES     O135815   2.763   2.746   1.670  0.7948  0.6353  0.4210
  128RES     C235816   2.657   2.718   1.581  0.5050 -0.2638  0.0722
  128RES     C335817   2.695   2.766   1.437 -0.9915 -0.3440  0.1433
  128RES     C435818   2.575   2.753   1.355  0.3560  0.2711  0.5429
  128RES     O535819   2.620   2.748   1.219  0.4745 -0.4483 -0.2764
  128RES     C635820   2.508   2.740   1.135 -0.3948  0.2260  0.7488
  128RES     H735821   2.642   2.612   1.601 -3.7710  0.2673  0.1948
  128RES     H835822   2.566   2.763   1.622 -0.1037  0.0998 -1.6561
  128RES     H935823   2.769   2.695   1.398 -0.0459  0.4362  0.5072
  128RES    H1035824   2.501   2.833   1.366  0.2151  0.0814  0.9755
  128RES    H1135825   2.519   2.661   1.373  0.1203  0.6184  1.6033
  128RES    H1235826   2.431   2.814   1.153 -0.0803  0.7418 -0.0125
  128RES    H1335827   2.550   2.761   1.037  0.9140 -2.1126  0.7508
  128RES    H1435828   2.461   2.642   1.132 -0.2076  0.1566 -0.0114
  128RES    H1535829   2.769   2.840   1.679 -0.7482  0.4716  3.7137
  128RES    O1635830   2.731   2.899   1.463 -0.3448  0.5431 -0.5277
  128RES    C1735831   2.841   2.941   1.376 -0.4298  0.1796 -0.6462
  128RES    C1835832   2.855   3.099   1.383  0.2260 -0.5539  0.3198
  128RES    C1935833   2.711   3.154   1.361 -0.2236  0.0920 -0.2097
  128RES    O2035834   2.706   3.283   1.315 -0.0541 -0.2209 -0.2525
  128RES    C2135835   2.683   3.377   1.414  0.0863  0.4932 -0.5670
  128RES    H2235836   2.811   2.909   1.277  1.4108  0.3981 -1.3026
  128RES    H2335837   2.937   2.897   1.405 -1.3611 -1.4157  0.0970
  128RES    H2435838   2.920   3.143   1.307  0.0587 -1.9261 -0.6289
  128RES    H2535839   2.659   3.102   1.281 -0.0333  1.5326 -1.2858
  128RES    H2635840   2.650   3.135   1.449  1.1841  0.0892  0.7828
  128RES    H2735841   2.750   3.369   1.499  1.1387  0.6768 -1.3789
  128RES    H2835842   2.578   3.365   1.442  0.8974 -1.3260  1.7987
  128RES    H2935843   2.697   3.474   1.366  1.5198 -0.0745 -1.3157
  128RES    O3035844   2.892   3.142   1.514  0.2625  0.2592  0.4017
  128RES    C3135845   3.030   3.136   1.529  0.1591  0.5357  0.0812
  128RES    C3235846   3.058   3.160   1.684 -0.0437 -0.5662 -0.4514
  128RES    C3335847   3.012   3.040   1.769 -0.0132  0.4396  0.1832
  128RES    O3435848   3.122   2.970   1.833  0.0904  0.2162  0.2787
  128RES    C3535849   3.083   2.854   1.905  0.0491 -0.7764 -0.3613
  128RES    H3635850   3.072   3.037   1.511 -1.6642 -0.1321 -0.6105
  128RES    H3735851   3.071   3.210   1.460  0.1972 -2.4719 -3.2613
  128RES    H3835852   3.165   3.151   1.701 -0.4331 -1.0299  2.0043
  128RES    H3935853   2.973   2.965   1.700  2.5814 -2.3318  1.5884
  128RES    H4035854   2.930   3.070   1.834  1.6675  2.4718  1.4303
  128RES    H4135855   2.999   2.862   1.973 -0.3018 -1.6744 -0.6919
  128RES    H4235856   3.173   2.807   1.946 -0.8547 -2.4682 -0.2953
  128RES    H4335857   3.063   2.784   1.824  1.1116 -0.9624 -0.4728
  128RES    O4435858   2.998   3.285   1.727 -0.3530  0.2279 -0.8355
  128RES    C4535859   3.088   3.392   1.730  0.0267  0.3912 -0.9227
  128RES    C4635860   3.198   3.375   1.840  0.2808  0.4700  0.0262
  128RES    C4735861   3.334   3.443   1.797  0.6263  0.0357  0.3480
  128RES    O4835862   3.429   3.417   1.896  0.0385 -0.2647 -0.1483
  128RES    C4935863   3.555   3.449   1.853 -0.4119  0.6354  0.0126
  128RES    H5035864   3.040   3.483   1.766  1.7968  0.3797  1.6145
  128RES    H5135865   3.119   3.423   1.630  0.3389  1.9294 -0.3641
  128RES    H5235866   3.226   3.273   1.866 -2.7505 -0.0330  1.4777
  128RES    H5335867   3.376   3.411   1.701  0.4407  2.4616 -0.5732
  128RES    H5435868   3.324   3.550   1.780 -0.9112 -0.2548 -0.6962
  128RES    H5535869   3.578   3.554   1.839 -1.5253  0.8281 -0.4335
  128RES    H5635870   3.592   3.386   1.771  2.1501  1.5670  0.3980
  128RES    H5735871   3.615   3.415   1.938  0.2882  3.5761  0.7243
  128RES    O5835872   3.159   3.453   1.954  0.1787 -0.8065 -0.0655
  128RES    C5935873   3.046   3.402   2.031 -0.6653  0.9588  0.2945
  128RES    C6035874   3.059   3.263   2.099  0.1388 -0.6960  0.2334
  128RES    C6135875   2.915   3.240   2.143 -0.3578  0.8527 -0.2486
  128RES    O6235876   2.904   3.105   2.185  0.0803 -0.7815  0.1572
  128RES    C6335877   2.822   3.089   2.299 -0.2165  0.4263 -0.4537
  128RES    H6435878   2.955   3.404   1.972  1.1664  0.2966 -2.6727
  128RES    H6535879   3.033   3.473   2.113 -1.0334 -0.4011  1.4415
  128RES    H6635880   3.092   3.179   2.038  0.7791  0.4365 -0.9966
  128RES    H6735881   2.888   3.310   2.222  1.4289  0.8131  0.4154
  128RES    H6835882   2.846   3.239   2.058 -0.0987  1.1176 -0.4632
  128RES    H6935883   2.842   2.999   2.357  0.1280  0.7305 -0.0905
  128RES    H7035884   2.719   3.100   2.266  0.2634  0.4825 -1.9628
  128RES    H7135885   2.837   3.156   2.385  0.7617 -0.4792  0.0945
  128RES    O7235886   3.131   3.293   2.213 -0.0590  0.0389  0.2217
  128RES    C7335887   3.274   3.291   2.198  0.0055 -0.9497 -0.0029
  128RES    C7435888   3.351   3.310   2.330 -0.4319  0.7059  0.2255
  128RES    C7535889   3.338   3.446   2.394 -0.1173 -0.1375 -0.4482
  128RES    O7635890   3.349   3.436   2.534 -0.2062 -0.0795 -0.3901
  128RES    C7735891   3.363   3.569   2.591  0.6827 -0.5304 -0.4459
  128RES    H7835892   3.304   3.196   2.153  1.6515  1.3297 -3.9480
  128RES    H7935893   3.310   3.362   2.124  0.3763 -0.3502  0.7508
  128RES    H8035894   3.310   3.237   2.399  0.5677 -0.1312 -0.0439
  128RES    H8135895   3.236   3.481   2.381 -1.0199 -1.1806  3.3477
  128RES    H8235896   3.408   3.513   2.344  0.6876 -0.2789  0.4698
  128RES    H8335897   3.289   3.582   2.670  1.4257 -0.9893  0.3329
  128RES    H8435898   3.363   3.647   2.515  0.6350  0.1447  0.2364
  128RES    H8535899   3.463   3.576   2.635  0.2980  0.9291  0.2269
  128RES    O8635900   3.482   3.287   2.297  0.3894  0.3525  0.7176
  128RES    C8735901   3.554   3.222   2.405 -0.7019 -0.9278 -0.2192
  128RES    C8835902   3.692   3.189   2.352 -0.1930  0.1684  0.0432
  128RES    C8935903   3.793   3.218   2.457  0.0392 -0.6591  0.2553
  128RES    O9035904   3.909   3.147   2.416  0.1531 -0.6766 -0.1582
  128RES    C9135905   4.011   3.153   2.516  0.4596 -0.2453  0.8561
  128RES    H9235906   3.553   3.289   2.491 -4.3661 -1.2856  0.0795
  128RES    H9335907   3.511   3.129   2.444  0.8062 -1.5502 -0.0079
  128RES    H9435908   3.719   3.248   2.264 -2.1736  0.0655 -0.6668
  128RES    H9535909   3.815   3.325   2.466 -0.8722 -0.5835  1.7985
  128RES    H9635910   3.757   3.186   2.554 -0.6356  1.5750  0.7723
  128RES    H9735911   4.039   3.253   2.549 -0.7051  0.2495  0.3676
  128RES    H9835912   3.981   3.092   2.601  3.2324  3.4948  4.6627
  128RES    H9935913   4.095   3.103   2.467  0.4927  0.6886 -0.0587
  128RES   O10035914   3.703   3.048   2.312 -0.5121  0.4779  0.4445
  128RES   C10135915   3.631   3.017   2.197  0.1272  0.3194 -0.2229
  128RES   C10235916   3.715   3.031   2.067  0.4004 -0.2567 -0.2331
  128RES   C10335917   3.623   3.027   1.941 -0.3175  0.4391 -0.2782
  128RES   O10435918   3.687   3.084   1.823  0.8012 -0.2409 -0.5405
  128RES   C10535919   3.767   2.995   1.754 -0.0340 -0.1107 -0.6171
  128RES   H10635920   3.543   3.082   2.201  0.4348  0.6634  1.5139
  128RES   H10735921   3.588   2.917   2.201  0.5204  0.0175 -2.8125
  128RES   H10835922   3.776   3.121   2.065  0.8073 -0.4961  1.0767
  128RES   H10935923   3.527   3.073   1.964  0.2524  0.3941  2.2456
  128RES   H11035924   3.596   2.924   1.921  2.2892 -0.6677  1.7003
  128RES   H11135925   3.854   2.969   1.815 -0.3714  3.1120  1.3994
  128RES   H11235926   3.801   3.056   1.670  1.5068  2.4566  1.7475
  128RES   H11335927   3.714   2.907   1.719 -0.2860 -0.9415  1.7907
  128RES   O11435928   3.798   2.921   2.050 -0.3589  0.2442  0.1608
  128RES   C11535929   3.942   2.924   2.082 -0.1031  0.0893  0.3956
  128RES   C11635930   3.989   2.782   2.034 -0.2153 -0.8294  0.3881
  128RES   C11735931   4.141   2.786   2.012 -0.0231 -0.4465 -0.5002
  128RES   O11835932   4.189   2.666   1.946  1.1271 -0.2108 -0.3103
  128RES   C11935933   4.330   2.681   1.916 -0.1553 -0.4984  0.1071
  128RES   H12035934   3.995   3.006   2.033 -0.6279  0.7803  0.9870
  128RES   H12135935   3.948   2.940   2.189  0.6475  1.6730  0.1350
  128RES   H12235936   3.936   2.771   1.940 -0.3760  0.3939  0.3333
  128RES   H12335937   4.162   2.870   1.945  3.0579  0.8216  1.8960
  128RES   H12435938   4.192   2.808   2.106  1.1378  0.1864 -1.2609
  128RES   H12535939   4.356   2.774   1.866 -0.4933 -0.2815  0.3335
  128RES   H12635940   4.365   2.603   1.849 -0.0046 -0.0732 -0.3077
  128RES   H12735941   4.388   2.683   2.008 -0.8530  0.5111  0.5329
  128RES   O12835942   3.938   2.700   2.128 -0.6052 -0.3371 -0.3302
  128RES   C12935943   3.913   2.569   2.079 -0.9805  0.1404 -0.2101
  128RES   C13035944   3.775   2.538   2.010 -0.4894 -0.7057 -0.0144
  128RES   C13135945   3.655   2.545   2.109  0.1019  0.5334  0.4401
  128RES   O13235946   3.534   2.573   2.032 -0.5095 -0.0295 -0.2529
  128RES   C13335947   3.424   2.574   2.117  0.1218  0.0506 -0.6370
  128RES   H13435948   3.995   2.541   2.014 -2.0513  1.5496 -2.2115
  128RES   H13535949   3.930   2.513   2.171 -1.0444 -0.6594 -0.6845
  128RES   H13635950   3.775   2.612   1.930 -0.0319 -1.5550 -0.8177
  128RES   H13735951   3.654   2.634   2.171  0.9328 -0.2075  1.5513
  128RES   H13835952   3.645   2.458   2.175  0.0769  1.2157  1.3486
  128RES   H13935953   3.436   2.655   2.190 -0.5156 -1.9772  1.7768
  128RES   H14035954   3.329   2.574   2.064 -0.6154 -2.1549  0.6256
  128RES   H14135955   3.410   2.477   2.164 -0.9290  0.6042  0.2219
  128RES   O14235956   3.795   2.406   1.964 -0.1907 -0.7073  0.0044
  128RES   C14335957   3.714   2.372   1.852  0.3286  0.7511  0.0161
  128RES   C14435958   3.723   2.216   1.831 -0.3280 -0.2624 -0.8008
  128RES   C14535959   3.636   2.176   1.711 -0.4482 -0.9190  0.4392
  128RES   O14635960   3.644   2.039   1.692 -0.3171  0.0758  0.2588
  128RES   C14735961   3.545   1.998   1.597  0.2647  0.0839 -0.2267
  128RES   H14835962   3.609   2.399   1.852  0.2136  0.3191 -0.7580
  128RES   H14935963   3.746   2.431   1.766  0.1601  0.1153 -0.4841
  128RES   H15035964   3.824   2.198   1.796  0.2038  1.5903 -0.2816
  128RES   H15135965   3.667   2.234   1.624  0.7548 -1.2558  0.6450
  128RES   H15235966   3.538   2.218   1.735 -1.6691 -2.0544 -2.3245
  128RES   H15335967   3.446   2.042   1.598  0.5242  0.7301 -2.1407
  128RES   H15435968   3.544   1.889   1.593  1.3790  0.0287  0.4682
  128RES   H15535969   3.578   2.029   1.498 -2.2577 -2.0871 -1.8051
  128RES   O15635970   3.675   2.155   1.954  0.4012  0.2450 -0.1852
  128RES   C15735971   3.737   2.030   1.986 -0.3177 -0.1549 -0.1027
  128RES   C15835972   3.866   2.042   2.070  0.6309 -0.0933  0.4434
  128RES   C15935973   3.952   1.915   2.058 -0.0852 -0.2474 -0.2543
  128RES   O16035974   4.081   1.957   2.108 -0.5947 -0.3336  0.0490
  128RES   C16135975   4.145   1.857   2.184 -0.0049  0.3194  0.0469
  128RES   H16235976   3.663   1.973   2.041 -3.3300  2.1553 -1.6023
  128RES   H16335977   3.766   1.972   1.899  2.9184 -1.0144  1.4760
  128RES   H16435978   3.915   2.128   2.026 -1.1120  0.1037 -1.1461
  128RES   H16535979   3.903   1.831   2.107 -0.3725 -0.0651 -0.2286
  128RES   H16635980   3.962   1.884   1.954  0.3868 -0.4063 -0.1628
  128RES   H16735981   4.179   1.782   2.111 -0.7491 -1.1900  1.2378
  128RES   H16835982   4.075   1.803   2.247  1.0258 -1.1054  0.0209
  128RES   H16935983   4.231   1.904   2.233 -0.6807  2.7511 -1.0301
  128RES   O17035984   3.836   2.055   2.213 -0.4774 -0.1401 -0.0716
  128RES   C17135985   3.837   2.193   2.250 -1.0895  0.6730  1.4746
  128RES   C17235986   3.847   2.222   2.405  0.1258  0.0370  0.5898
  128RES   C17335987   3.848   2.376   2.436 -0.9273  0.2072 -0.3334
  128RES   O17435988   3.820   2.393   2.575  0.0182 -0.4125 -0.1317
  128RES   C17535989   3.831   2.528   2.628  0.2220 -0.3829 -0.7432
  128RES   H17635990   3.744   2.233   2.209 -1.2644 -0.5090  0.7024
  128RES   H17735991   3.915   2.254   2.205 -0.1709 -1.5156  0.0336
  128RES   H17835992   3.769   2.165   2.454 -0.8996  0.6479 -0.2983
  128RES   H17935993   3.936   2.430   2.400 -0.5368 -0.6222 -0.6340
  128RES   H18035994   3.765   2.416   2.377 -0.6645 -0.7601 -1.3772
  128RES   H18135995   3.933   2.566   2.622 -0.1794  0.8044 -0.2026
  128RES   H18235996   3.801   2.540   2.732 -0.5540 -1.6719 -0.8089
  128RES   H18335997   3.756   2.579   2.567  1.1355  0.2632 -1.3404
  128RES   O18435998   3.971   2.162   2.438 -0.3007 -0.4038  1.2918
  128RES   C18535999   3.983   2.120   2.574 -0.5603 -0.1905 -0.2404
  128RES   C18636000   4.139   2.089   2.598 -0.5687 -0.1258  0.3009
  128RES   C18736001   4.158   2.026   2.741  0.4289  0.0857 -0.1853
  128RES   O18836002   4.288   1.970   2.747 -0.0410 -0.3164  0.3713
  128RES   C18936003   4.330   1.928   2.877 -0.6021  0.0934  0.0117
  128RES   H19036004   3.921   2.032   2.592 -1.3421  0.6313  1.1246
  128RES   H19136005   3.962   2.189   2.655  1.2725 -1.1615  1.1098
  128RES   H19236006   4.175   2.016   2.526 -0.7915  1.5206 -1.5016
  128RES   H19336007   4.092   1.940   2.750 -0.2051  0.6741  0.8545
  128RES   H19436008   4.127   2.090   2.823 -0.1905  0.3755 -0.6454
  128RES   H19536009   4.332   2.014   2.944 -1.5749 -1.1278  1.6522
  128RES   H19636010   4.251   1.867   2.921 -1.8030  0.8099 -1.1231
  128RES   H19736011   4.422   1.868   2.880 -0.5208 -0.0190 -3.3420
  128RES   O19836012   4.219   2.200   2.601  0.1179 -0.4192  0.1469
  128RES   C19936013   4.211   2.284   2.486  0.2505 -0.3152 -0.4337
  128RES   C20036014   4.355   2.337   2.458  0.0047 -0.6970 -0.4327
  128RES   C20136015   4.352   2.480   2.395  0.0886 -0.0386 -0.0705
  128RES   O20236016   4.482   2.527   2.360  0.4424  0.2453 -0.4630
  128RES   C20336017   4.485   2.658   2.310 -0.1790  0.3754 -0.6166
  128RES   H20436018   4.145   2.368   2.505  1.8626  1.3837 -2.1794
  128RES   H20536019   4.167   2.247   2.394 -0.1015  3.3915 -1.8171
  128RES   H20636020   4.423   2.345   2.543 -0.7183 -2.7097  0.3685
  128RES   H20736021   4.278   2.480   2.315 -0.4953  3.2492  0.4016
  128RES   H20836022   4.316   2.551   2.469 -2.9587  1.7353 -3.0633
  128RES   H20936023   4.425   2.663   2.219  2.0176 -0.1590 -2.1309
  128RES   H21036024   4.588   2.687   2.289  0.3453 -1.0617 -0.1488
  128RES   H21136025   4.430   2.724   2.377 -0.0839  0.8481 -1.0063
  128RES   O21236026   4.416   2.248   2.366 -0.7083  0.4267 -0.3516
  128RES   C21336027   4.425   2.110   2.397 -0.5537  0.4401  0.6213
  128RES   C21436028   4.519   2.046   2.296 -0.5258  0.7651 -0.1333
  128RES   C21536029   4.525   1.898   2.299  0.1181 -0.8026 -0.2468
  128RES   O21636030   4.551   1.863   2.435  0.3580  0.0510  0.2726
  128RES   C21736031   4.686   1.840   2.463  0.2522 -0.3030 -1.0411
  128RES   H21836032   4.325   2.070   2.377 -0.6767  1.1659 -0.2158
  128RES   H21936033   4.450   2.091   2.501 -0.7241  0.6995  0.7089
  128RES   H22036034   4.480   2.079   2.200  0.8250  1.3053 -0.5155
  128RES   H22136035   4.423   1.866   2.280 -0.0785 -0.5763  0.4322
  128RES   H22236036   4.600   1.864   2.228  1.2774  1.0142  0.0734
  128RES   H22336037   4.720   1.737   2.468  0.6436 -0.0937  0.8164
  128RES   H22436038   4.703   1.872   2.565  2.0601 -0.1612 -1.3766
  128RES   H22536039   4.759   1.897   2.405 -1.0644  2.5268  0.0218
  128RES   O22636040   4.655   2.094   2.314 -0.4011  0.9872  0.2199
  128RES   C22736041   4.688   2.200   2.227 -0.1053 -0.2894  1.4231
  128RES   C22836042   4.799   2.283   2.292 -0.5114  0.8265  0.2498
  128RES   C22936043   4.758   2.331   2.434  0.2347  0.3017  0.2727
  128RES   O23036044   4.809   2.458   2.464  0.1512  0.3113  0.7140
  128RES   C23136045   4.773   2.498   2.591  0.5163  0.4189 -0.1729
  128RES   H23236046   4.608   2.270   2.199  0.4552 -0.3530 -0.3865
  128RES   H23336047   4.716   2.153   2.133  2.0439 -1.6201  2.6914
  128RES   H23436048   4.818   2.368   2.226  0.1129 -0.4852 -1.3206
  128RES   H23536049   4.783   2.247   2.499 -3.4431 -0.1623  1.2052
  128RES   H23636050   4.649   2.322   2.428  0.2344 -0.5576  1.4161
  128RES   H23736051   4.667   2.474   2.608  1.2821 -1.2399  2.6383
  128RES   H23836052   4.782   2.606   2.587  1.9169  0.3739  1.1829
  128RES   H23936053   4.829   2.446   2.668  0.9329  2.2288  0.7584
  128RES   O24036054   4.916   2.197   2.301  0.4821  0.0280  0.2406
  128RES   C24136055   5.042   2.261   2.303 -0.1050 -0.1285  0.1347
  128RES   C24236056   5.149   2.160   2.253  0.5019 -0.0419 -0.2068
  128RES   C24336057   5.255   2.220   2.159 -0.0332  0.0856  0.1111
  128RES   O24436058   5.212   2.225   2.024 -0.1310  0.6265 -0.0797
  128RES   C24536059   5.307   2.282   1.939  0.4317  0.0607 -0.1225
  128RES   H24636060   5.073   2.284   2.405 -0.0465 -1.1252  0.3491
  128RES   H24736061   5.045   2.358   2.254  0.2729 -0.3159 -0.2144
  128RES   H24836062   5.083   2.089   2.201  1.2354  0.9042 -2.4815
  128RES   H24936063   5.286   2.319   2.190 -2.2986  0.7359  0.3786
  128RES   H25036064   5.337   2.149   2.142 -0.5820 -0.5756  0.2082
  128RES   H25136065   5.400   2.225   1.934  1.2454  1.2784  0.8136
  128RES   H25236066   5.321   2.379   1.988  0.6918  0.7303 -1.4759
  128RES   H25336067   5.265   2.302   1.840 -1.1343 -1.9666  0.1109
  128RES   O25436068   5.219   2.095   2.352 -0.0816 -0.7077 -0.0996
  128RES   C25536069   5.152   2.015   2.446 -0.2063  0.0638  1.6527
  128RES   C25636070   5.263   1.946   2.533  0.1864 -0.2231  0.2413
  128RES   C25736071   5.217   1.914   2.674  0.2256  0.1606 -0.3415
  128RES   O25836072   5.329   1.894   2.764 -0.1442  0.5612  0.2453
  128RES   C25936073   5.291   1.848   2.885 -0.1508  0.0207 -0.1921
  128RES   H26036074   5.087   2.082   2.504  2.0308  1.5512  2.5247
  128RES   H26136075   5.079   1.954   2.393  1.1512  2.2427 -2.9396
  128RES   H26236076   5.351   2.011   2.540 -0.3166  0.4426  0.3895
  128RES   H26336077   5.154   1.991   2.719 -1.0491  0.4378 -2.5307
  128RES   H26436078   5.155   1.825   2.675 -0.8542  0.9067  0.5155
  128RES   H26536079   5.245   1.920   2.953 -2.1363  0.9341 -2.4300
  128RES   H26636080   5.386   1.829   2.935  0.0035  1.6123  0.1311
  128RES   H26736081   5.230   1.758   2.875 -0.8513  0.3551  0.9510
  128RES   O26836082   5.293   1.820   2.457  0.3157  0.2757 -0.0172
  128RES   C26936083   5.424   1.777   2.479 -0.4885 -0.4366 -0.1641
  128RES   C27036084   5.515   1.822   2.361 -0.3656 -0.1423  0.7626
  128RES   C27136085   5.651   1.771   2.398 -0.0080 -0.6407  0.3526
  128RES   O27236086   5.746   1.819   2.302 -0.4599 -0.0562  0.1063
  128RES   C27336087   5.880   1.806   2.349 -0.7430 -0.9253  0.0930
  128RES   H27436088   5.424   1.669   2.495  1.4147 -0.0657  2.6785
  128RES   H27536089   5.450   1.806   2.581 -0.0234 -0.7441 -0.1909
  128RES   H27636090   5.494   1.776   2.264  0.3927  2.7675 -0.8328
  128RES   H27736091   5.657   1.662   2.389  1.9762 -0.5132 -0.1221
  128RES   H27836092   5.675   1.814   2.495  2.1123  1.3844 -1.0089
  128RES   H27936093   5.904   1.703   2.376 -2.5772 -1.4791 -0.3441
  128RES   H28036094   5.904   1.866   2.437 -2.0275 -0.9124  0.4386
  128RES   H28136095   5.941   1.828   2.261  0.7707  0.4648  1.4511
  128RES   H28236096   5.502   1.928   2.338  3.0555 -0.4204 -2.9669
  129RES     O136097   6.980   4.786   7.691 -0.4763  0.6720 -0.1853
  129RES     C236098   6.884   4.892   7.681  0.0434  0.1420 -0.4035
  129RES     C336099   6.737   4.836   7.666  0.8128  0.9638  0.2401
  129RES     C436100   6.629   4.906   7.747  0.0934 -0.1443  0.6158
  129RES     O536101   6.627   5.044   7.743  0.5760  0.0829  0.1282
  129RES     C636102   6.511   5.095   7.790  0.3390  0.3275 -0.0484
  129RES     H736103   6.885   4.942   7.778 -1.0972 -1.0717  0.2459
  129RES     H836104   6.913   4.960   7.601 -0.3099 -0.3345 -0.9364
  129RES     H936105   6.739   4.731   7.694 -2.8797  0.1952 -2.0556
  129RES    H1036106   6.628   4.871   0.033 -1.6207  0.4273  0.8030
  129RES    H1136107   6.535   4.875   7.702  0.4518 -0.7189  0.2556
  129RES    H1236108   6.439   5.119   7.711 -0.1238  1.7423  0.7847
  129RES    H1336109   6.461   5.028   0.043  1.2211 -1.7188 -1.3429
  129RES    H1436110   6.538   5.193   0.013 -0.2449  0.7949 -0.7614
  129RES    H1536111   6.980   4.728   7.616 -2.9816  0.0629  0.2578
  129RES    O1636112   6.727   4.848   7.530  0.2363  0.3002  1.2783
  129RES    C1736113   6.653   4.751   7.454 -0.4422  0.1600 -0.0701
  129RES    C1836114   6.655   4.792   7.308  0.3970 -0.5764  0.2194
  129RES    C1936115   6.614   4.676   7.219 -0.4423 -0.3544  0.1284
  129RES    O2036116   6.720   4.580   7.216  0.3438  0.0409 -1.0892
  129RES    C2136117   6.697   4.478   7.120 -0.3257  0.4942  1.0519
  129RES    H2236118   6.549   4.754   7.484  0.1129 -0.0197  1.9152
  129RES    H2336119   6.700   4.654   7.470 -0.4780  0.1358 -0.1142
  129RES    H2436120   6.749   4.839   7.279 -0.8496  1.5283 -0.5187
  129RES    H2536121   6.516   4.639   7.249 -0.7214  1.2443  1.2620
  129RES    H2636122   6.602   4.714   7.118 -0.4753 -0.7980 -0.0356
  129RES    H2736123   6.657   4.509   7.024 -0.0237  0.8968  1.0606
  129RES    H2836124   6.626   4.404   7.159 -1.7993 -0.3525 -2.9270
  129RES    H2936125   6.795   4.437   7.097 -1.9183 -2.6082 -0.5591
  129RES    O3036126   6.552   4.886   7.283  0.3101 -0.4593  0.3212
  129RES    C3136127   6.584   4.979   7.171 -0.2535 -0.3899  0.0191
  129RES    C3236128   6.586   5.116   7.242  0.4343  0.8325  0.4907
  129RES    C3336129   6.688   5.118   7.361 -0.4660  0.2582  0.6401
  129RES    O3436130   6.722   5.247   7.397 -0.7172 -0.7927  0.1989
  129RES    C3536131   6.835   5.246   7.489  0.6988  0.3725 -0.5013
  129RES    H3636132   6.674   4.962   7.113 -1.0108 -2.3605 -0.6349
  129RES    H3736133   6.501   4.970   7.100  0.4093  1.4512 -1.0162
  129RES    H3836134   6.620   5.187   7.167 -0.6901 -0.0757 -0.8930
  129RES    H3936135   6.777   5.066   7.328 -0.2073  0.9577  0.2167
  129RES    H4036136   6.653   5.067   7.451  1.5086 -1.3734  0.5049
  129RES    H4136137   6.904   5.329   7.480  1.4588 -0.5582 -3.7659
  129RES    H4236138   6.896   5.157   7.478 -0.5657 -0.7933  1.4755
  129RES    H4336139   6.797   5.252   7.591  0.8304  0.7688 -0.4747
  129RES    O4436140   6.452   5.145   7.268  0.3634 -0.3687  0.1692
  129RES    C4536141   6.435   5.283   7.307  0.5898 -0.2682 -0.1732
  129RES    C4636142   6.298   5.306   7.365 -0.4165 -0.4175 -0.2995
  129RES    C4736143   6.286   5.435   7.442 -0.2075 -0.2520  0.0130
  129RES    O4836144   6.160   5.432   7.513 -0.2780  0.3247  0.5852
  129RES    C4936145   6.120   5.565   7.545  0.5322 -0.6045 -0.0698
  129RES    H5036146   6.446   5.351   7.224 -1.7487 -0.8979 -1.0468
  129RES    H5136147   6.511   5.313   7.379 -0.4177  3.3196 -0.5016
  129RES    H5236148   6.285   5.219   7.429  0.6422 -0.1926  0.2220
  129RES    H5336149   6.362   5.464   7.515  0.4450  2.8601 -1.7889
  129RES    H5436150   6.290   5.522   7.375  0.1947  0.0855  0.4683
  129RES    H5536151   6.029   5.554   7.604  0.3268  0.5879 -0.1499
  129RES    H5636152   6.090   5.627   7.461 -1.3379  0.6318  1.4783
  129RES    H5736153   6.197   5.614   7.605 -1.3032 -0.8500  2.5790
  129RES    O5836154   6.216   5.316   7.244  0.4902  0.4223  0.4766
  129RES    C5936155   6.110   5.224   7.246  0.3346  0.1096  0.4118
  129RES    C6036156   5.985   5.300   7.194  1.1600 -0.4036  0.5874
  129RES    C6136157   5.859   5.204   7.189 -0.1847  0.2269  0.3340
  129RES    O6236158   5.740   5.271   7.160 -0.2397 -0.2679  0.2837
  129RES    C6336159   5.627   5.178   7.143 -0.0164 -0.3789  0.0475
  129RES    H6436160   6.085   5.177   7.342  2.3236  0.7183  1.2566
  129RES    H6536161   6.139   5.139   7.184  0.2968 -2.3708  3.6124
  129RES    H6636162   5.957   5.380   7.263 -0.8518 -0.5473 -0.0144
  129RES    H6736163   5.879   5.136   7.106 -0.3533  2.2997 -1.4508
  129RES    H6836164   5.853   5.133   7.271  2.6973 -1.3033 -0.6790
  129RES    H6936165   5.642   5.100   7.068 -2.4513 -0.6765 -0.1759
  129RES    H7036166   5.533   5.232   7.127 -0.3981 -1.0951 -0.1556
  129RES    H7136167   5.621   5.131   7.241 -0.6714 -0.1667  0.1171
  129RES    O7236168   6.010   5.338   7.059  0.3181  0.1855  0.1131
  129RES    C7336169   5.957   5.470   7.023 -0.2538  0.1900 -0.5654
  129RES    C7436170   6.059   5.582   7.084 -0.6397  0.1776 -0.7863
  129RES    C7536171   5.991   5.714   7.119  0.2300  0.2718  0.0519
  129RES    O7636172   6.074   5.789   7.195  0.2862  0.1821 -0.0194
  129RES    C7736173   6.030   5.922   7.213 -0.0744 -0.4568 -0.1764
  129RES    H7836174   5.958   5.474   6.914  2.0373 -0.8978 -0.6265
  129RES    H7936175   5.852   5.473   7.051 -0.5302  0.0464 -1.5638
  129RES    H8036176   6.100   5.543   7.177 -0.1601 -0.0947 -1.1097
  129RES    H8136177   5.890   5.706   7.159  1.2814  0.1347  2.7404
  129RES    H8236178   5.972   5.769   7.026  1.3930  0.6128  0.0077
  129RES    H8336179   6.047   5.993   7.131  2.1755 -0.9255 -0.1397
  129RES    H8436180   6.089   5.959   7.296  0.3853 -1.0175 -0.2569
  129RES    H8536181   5.928   5.925   7.252  0.2681 -1.9543  0.8434
  129RES    O8636182   6.160   5.615   6.988 -0.3315 -0.1181  0.1033
  129RES    C8736183   6.260   5.514   6.982 -0.6073 -0.0653  0.1217
  129RES    C8836184   6.344   5.523   6.848 -0.2370 -0.1917  0.3147
  129RES    C8936185   6.464   5.433   6.870  1.1245 -0.1003  0.2933
  129RES    O9036186   6.562   5.476   6.776 -0.4562 -0.4702 -0.2358
  129RES    C9136187   6.679   5.397   6.790  0.2031  0.1633 -0.8981
  129RES    H9236188   6.330   5.534   7.064 -2.6173  0.7780  1.6748
  129RES    H9336189   6.220   5.413   6.991 -0.7096 -0.0929 -0.6522
  129RES    H9436190   6.376   5.626   6.834 -0.7174 -0.1957 -0.8478
  129RES    H9536191   6.503   5.447   6.971 -0.6008 -2.5296  1.3663
  129RES    H9636192   6.440   5.328   6.853  2.0386 -0.0653 -1.2572
  129RES    H9736193   6.741   5.406   6.701 -1.0040  0.0019 -1.7685
  129RES    H9836194   6.739   5.418   6.878 -1.5279 -0.1093  0.3703
  129RES    H9936195   6.652   5.292   6.807  2.2519 -0.0418  1.3950
  129RES   O10036196   6.266   5.475   6.743  0.5049  0.3284  0.8821
  129RES   C10136197   6.308   5.522   6.617  0.2137  0.0583  0.8626
  129RES   C10236198   6.197   5.503   6.512 -0.4629 -0.3719 -0.0876
  129RES   C10336199   6.254   5.517   6.365  0.1839 -1.2205  0.3646
  129RES   O10436200   6.172   5.461   6.259  0.1348  0.1702  0.2507
  129RES   C10536201   6.041   5.524   6.250  0.6011  0.3262 -0.2330
  129RES   H10636202   6.393   5.464   6.580 -1.2290 -0.9967 -0.8497
  129RES   H10736203   6.348   5.624   6.618 -0.0107  0.1899 -0.8900
  129RES   H10836204   6.145   5.408   6.510 -0.3512 -0.4249 -3.6040
  129RES   H10936205   6.349   5.465   6.352  0.0043 -0.9834 -1.9861
  129RES   H11036206   6.278   5.620   6.342 -1.9030 -1.0258 -1.1063
  129RES   H11136207   6.043   5.632   6.268  4.1499  0.6261 -1.9971
  129RES   H11236208   5.975   5.472   6.319  0.6174  1.1918  0.4520
  129RES   H11336209   6.002   5.511   6.150 -0.8489 -0.1700  0.3858
  129RES   O11436210   6.100   5.601   6.525  0.4500  0.0808 -0.3255
  129RES   C11536211   6.033   5.594   6.657 -0.0269 -0.1005 -0.2086
  129RES   C11636212   5.897   5.664   6.642 -0.2753  0.2385  0.0041
  129RES   C11736213   5.775   5.576   6.656 -0.7941 -0.1798 -0.4516
  129RES   O11836214   5.658   5.639   6.678  0.1574 -0.1502  0.2058
  129RES   C11936215   5.584   5.677   6.561  0.7347  0.0852 -0.4631
  129RES   H12036216   6.016   5.487   6.673 -0.2358  0.1849  1.5377
  129RES   H12136217   6.095   5.631   6.738  0.1905  0.9691 -0.8500
  129RES   H12236218   5.901   5.718   6.547 -0.6088  0.6518  0.2229
  129RES   H12336219   5.754   5.508   6.573 -0.9293  0.0094 -0.5727
  129RES   H12436220   5.796   5.507   6.738 -2.4081  1.4636  1.3525
  129RES   H12536221   5.540   5.593   6.508  0.5264 -1.0553  1.4850
  129RES   H12636222   5.650   5.721   6.485  0.7431 -1.0702 -1.1457
  129RES   H12736223   5.497   5.739   6.579 -0.2404 -1.9127  1.9262
  129RES   O12836224   5.898   5.756   6.753  0.6885  0.2060 -0.2064
  129RES   C12936225   5.842   5.880   6.711  0.2615  1.2551 -0.0755
  129RES   C13036226   5.893   5.996   6.802 -0.5552  0.6231 -0.8517
  129RES   C13136227   5.837   6.128   6.770  0.1170 -0.1984  0.4084
  129RES   O13236228   5.854   6.235   6.864 -0.5771 -0.4517  0.3198
  129RES   C13336229   5.983   6.300   6.854 -0.1395  0.1695  0.4919
  129RES   H13436230   5.878   5.912   6.613 -1.4408  0.7419 -0.8890
  129RES   H13536231   5.737   5.862   6.689  0.8211 -2.1739 -0.3367
  129RES   H13636232   5.877   5.980   6.909 -0.6726  0.9596 -0.8201
  129RES   H13736233   5.728   6.121   6.771  0.0374  0.2792 -2.5297
  129RES   H13836234   5.865   6.159   6.670  0.7152 -0.9838  0.3243
  129RES   H13936235   5.996   6.384   6.922  0.9121 -0.2414  0.8114
  129RES   H14036236   6.063   6.230   6.880  0.2654  0.4959  0.1306
  129RES   H14136237   5.998   6.353   6.760 -0.9481  1.1487  0.9150
  129RES   O14236238   6.029   6.005   6.764 -0.0679 -0.3138  0.4772
  129RES   C14336239   6.127   5.965   6.857 -0.4987 -0.4251 -0.1005
  129RES   C14436240   6.269   5.974   6.795 -0.5621 -0.0096  0.6157
  129RES   C14536241   6.373   5.915   6.895 -0.1075  0.4185 -0.1188
  129RES   O14636242   6.491   5.880   6.832  0.3440 -0.3925 -0.1532
  129RES   C14736243   6.597   5.875   6.917  0.2841 -0.3123  0.6092
  129RES   H14836244   6.128   6.032   6.943  1.4775 -0.3335 -0.1869
  129RES   H14936245   6.108   5.862   6.887 -1.4120  0.1855  1.4947
  129RES   H15036246   6.278   5.904   6.711 -0.7746 -0.2431  0.7890
  129RES   H15136247   6.328   5.826   6.939  0.6416 -0.0252 -0.2435
  129RES   H15236248   6.385   5.990   6.973  0.4659  1.0887 -0.8447
  129RES   H15336249   6.690   5.869   6.861 -0.6419  2.0467 -1.2516
  129RES   H15436250   6.589   5.796   6.992 -1.4059 -0.0589  0.7159
  129RES   H15536251   6.600   5.965   6.979 -0.6650 -0.0360  0.2619
  129RES   O15636252   6.304   6.110   6.760  0.1120 -0.0608 -0.5476
  129RES   C15736253   6.249   6.153   6.639 -0.9694  0.8470 -0.2343
  129RES   C15836254   6.327   6.261   6.556 -0.7803  0.6844 -0.6278
  129RES   C15936255   6.229   6.329   6.451 -0.5431  0.0032  0.1485
  129RES   O16036256   6.304   6.446   6.393 -0.3796  0.5810  0.4702
  129RES   C16136257   6.216   6.518   6.307  0.2933  0.8029  0.1103
  129RES   H16236258   6.219   6.073   6.571  0.3413  0.0507  0.1090
  129RES   H16336259   6.155   6.194   6.676 -1.0537  0.8181 -0.4142
  129RES   H16436260   6.357   6.337   6.627 -0.7410  0.5885 -0.5422
  129RES   H16536261   6.187   6.263   6.375 -0.0177  0.2692 -0.3735
  129RES   H16636262   6.139   6.361   6.504 -1.8851 -0.1861 -1.9290
  129RES   H16736263   6.113   6.539   6.338  0.5925  1.5939  0.5875
  129RES   H16836264   6.211   6.464   6.213  1.6166  0.5392  0.1876
  129RES   H16936265   6.263   6.615   6.287  0.5232  0.8489  0.8616
  129RES   O17036266   6.443   6.202   6.496  0.0646  0.6203  0.2708
  129RES   C17136267   6.551   6.207   6.588 -0.3423 -0.3796 -0.2864
  129RES   C17236268   6.675   6.131   6.547 -0.0202 -0.3805 -0.3645
  129RES   C17336269   6.761   6.106   6.674  0.2531  0.3213 -0.0694
  129RES   O17436270   6.874   6.021   6.647  0.1006  0.4694  0.1965
  129RES   C17536271   6.957   6.017   6.760  0.4717 -0.3896 -0.1331
  129RES   H17636272   6.520   6.159   6.680  0.8444 -2.0944 -0.7576
  129RES   H17736273   6.569   6.311   6.614 -3.3864 -0.3698  2.0012
  129RES   H17836274   6.647   6.034   6.505 -1.8720 -0.6565  1.3778
  129RES   H17936275   6.809   6.201   6.701 -1.1671  1.6277 -2.0244
  129RES   H18036276   6.702   6.076   6.760 -1.9550  2.6301 -0.7113
  129RES   H18136277   7.060   5.990   6.737  0.0701 -0.0296 -2.5452
  129RES   H18236278   6.913   5.951   6.835 -0.5196  1.5026  0.9787
  129RES   H18336279   6.960   6.113   6.810  1.9331 -0.0068 -0.9307
  129RES   O18436280   6.759   6.198   6.461 -0.3924  0.1592  0.0258
  129RES   C18536281   6.739   6.162   6.324  0.4135 -0.9773 -0.6165
  129RES   C18636282   6.856   6.194   6.222  0.0305  0.0793  0.5933
  129RES   C18736283   6.802   6.197   6.074  1.0154 -0.5248 -0.0510
  129RES   O18836284   6.756   6.077   6.017  0.3742 -0.1242  0.1661
  129RES   C18936285   6.867   6.000   5.959 -0.2768  0.0221  0.6886
  129RES   H19036286   6.654   6.220   6.290  0.7136 -0.8010 -1.0756
  129RES   H19136287   6.713   6.058   6.308 -3.6156  0.2954 -3.0202
  129RES   H19236288   6.877   6.301   6.219  1.2444 -0.1879 -2.5067
  129RES   H19336289   6.865   6.248   6.001  1.0386 -0.4628  0.0114
  129RES   H19436290   6.716   6.262   6.089  2.0131  1.0775 -1.0378
  129RES   H19536291   6.916   6.053   5.877  2.3033 -0.5304  1.8201
  129RES   H19636292   6.941   5.982   6.037 -1.2961 -2.1375  1.2049
  129RES   H19736293   6.830   5.903   5.927  0.7411 -0.0918 -0.1569
  129RES   O19836294   6.975   6.120   6.232 -0.2101  0.0413 -0.1598
  129RES   C19936295   7.046   6.129   6.355 -0.6288  0.7130  0.0648
  129RES   C20036296   7.124   6.255   6.354  0.6746 -0.5481  1.0636
  129RES   C20136297   7.233   6.267   6.240  0.4109 -0.4240 -0.1926
  129RES   O20236298   7.319   6.379   6.262  0.0365  0.0035  0.2688
  129RES   C20336299   7.419   6.394   6.167  1.2054 -0.0672 -0.1126
  129RES   H20436300   7.108   6.040   6.350  0.1271  1.1209  1.7600
  129RES   H20536301   6.988   6.126   6.448  2.9125 -0.0409  2.3669
  129RES   H20636302   7.061   6.343   6.344 -0.1510 -1.5049 -2.8993
  129RES   H20736303   7.300   6.182   6.226 -1.7531 -1.9074 -1.9164
  129RES   H20836304   7.189   6.265   6.140  0.2831  2.0395 -0.2104
  129RES   H20936305   7.483   6.306   6.160  0.7124 -0.4005 -0.4747
  129RES   H21036306   7.485   6.476   6.194  2.4790 -1.5915  1.5010
  129RES   H21136307   7.386   6.411   6.064  0.2061  0.1667  0.2374
  129RES   O21236308   7.184   6.238   6.484 -0.2188 -0.9062  0.0551
  129RES   C21336309   7.180   6.353   6.563 -0.4592  0.0072  0.1191
  129RES   C21436310   7.295   6.343   6.664 -0.1662 -0.8426 -0.2412
  129RES   C21536311   7.429   6.318   6.596  0.4053 -0.5739 -0.1446
  129RES   O21636312   7.540   6.380   6.662  0.3169  0.0656 -0.2286
  129RES   C21736313   7.648   6.390   6.578  0.6768 -0.5445  0.1168
  129RES   H21836314   7.086   6.357   6.618 -0.6198  1.5015 -0.2517
  129RES   H21936315   7.193   6.445   6.507  1.9064  0.1011  0.7812
  129RES   H22036316   7.300   6.440   6.714  2.9604 -0.5666 -1.0083
  129RES   H22136317   7.442   6.214   6.567 -0.1275 -0.5447 -0.5034
  129RES   H22236318   7.421   6.365   6.498 -2.6645 -1.7891 -0.5470
  129RES   H22336319   7.619   6.447   6.490 -0.5881 -0.4012  0.6102
  129RES   H22436320   7.683   6.294   6.540 -0.3122 -1.0970  0.5710
  129RES   H22536321   7.731   6.441   6.628  0.1897  0.2270  0.1413
  129RES   O22636322   7.264   6.236   6.756 -0.5009 -0.1743 -0.3585
  129RES   C22736323   7.351   6.224   6.869 -0.4107 -0.1727  0.2217
  129RES   C22836324   7.295   6.120   6.965  0.6056  0.0357 -0.7591
  129RES   C22936325   7.396   6.084   7.076 -0.1510  0.1989 -0.5082
  129RES   O23036326   7.422   5.940   7.082  0.1389  0.4387  0.1503
  129RES   C23136327   7.514   5.898   7.183 -0.4354  0.1876  0.4157
  129RES   H23236328   7.364   6.320   6.919 -1.1361 -0.4911  1.0274
  129RES   H23336329   7.449   6.196   6.831  0.6869  3.1698  0.4379
  129RES   H23436330   7.270   6.026   6.915 -2.9430  0.2914  0.4338
  129RES   H23536331   7.370   6.134   7.169 -3.8905 -0.0344 -1.3487
  129RES   H23636332   7.493   6.122   7.043  0.9135 -1.5515  0.5728
  129RES   H23736333   7.468   5.888   7.282  0.8847 -1.1269  0.9140
  129RES   H23836334   7.604   5.957   7.202  0.2856  0.0032 -2.2500
  129RES   H23936335   7.541   5.794   7.169  1.5330  0.7884 -0.3821
  129RES   O24036336   7.173   6.180   7.009  0.4424 -0.6876  0.2357
  129RES   C24136337   7.080   6.109   7.085 -0.6217  0.0049  0.4470
  129RES   C24236338   6.973   6.208   7.127  1.2651  0.2776  0.3763
  129RES   C24336339   6.837   6.138   7.162 -0.1358  0.1448  0.2086
  129RES   O24436340   6.745   6.244   7.180 -0.0029 -0.1557 -0.0978
  129RES   C24536341   6.639   6.202   7.265  0.0842 -0.3135 -0.6449
  129RES   H24636342   7.127   6.071   7.176  1.9600 -0.0435 -0.8600
  129RES   H24736343   7.037   6.026   7.028  2.0368 -2.4548  1.8654
  129RES   H24836344   6.947   6.286   7.054  1.9337  0.0747 -0.0830
  129RES   H24936345   6.804   6.072   7.082 -0.8134  1.3325 -0.5257
  129RES   H25036346   6.845   6.076   7.251  1.5508  1.3357  0.9146
  129RES   H25136347   6.611   6.099   7.246  2.6657 -1.0198 -0.7907
  129RES   H25236348   6.547   6.262   7.257 -0.7254 -1.5174 -0.4982
  129RES   H25336349   6.670   6.204   7.370 -1.2031 -1.4341 -0.2215
  129RES   O25436350   7.015   6.258   7.248  0.2226  0.6344  0.6835
  129RES   C25536351   7.091   6.372   7.234  0.4946 -0.0971  0.7484
  129RES   C25636352   7.085   6.463   7.362 -0.4954  0.7604  0.1156
  129RES   C25736353   7.199   6.569   7.367 -0.3168 -0.0172  0.3907
  129RES   O25836354   7.285   6.547   7.481 -0.2936  0.2433  0.1438
  129RES   C25936355   7.222   6.605   7.597  0.1077  0.2508 -0.1544
  129RES   H26036356   7.191   6.332   7.217  0.3897  0.4964 -1.4486
  129RES   H26136357   7.078   6.437   7.147 -2.5556 -1.2627  0.2958
  129RES   H26236358   7.103   6.393   7.443 -1.2888  0.1666 -0.2063
  129RES   H26336359   7.247   6.582   7.270 -0.1362  0.0698  0.4914
  129RES   H26436360   7.160   6.670   7.374 -1.3275 -0.4534  1.2841
  129RES   H26536361   7.121   6.565   7.607 -0.0630  0.8655  0.5614
  129RES   H26636362   7.217   6.713   7.596 -0.7738  0.2051 -0.9189
  129RES   H26736363   7.277   6.586   7.689 -1.3584  2.1596  1.1564
  129RES   O26836364   6.964   6.532   7.394  0.4389 -0.0945 -0.2216
  129RES   C26936365   6.862   6.448   7.452 -0.4197  0.7132 -0.5397
  129RES   C27036366   6.750   6.537   7.496  0.1217 -0.3584  0.3673
  129RES   C27136367   6.648   6.466   7.591 -0.4763 -0.3080 -0.1599
  129RES   O27236368   6.709   6.413   7.706  0.3290 -0.1853  0.0677
  129RES   C27336369   6.621   6.332   7.793  0.0772  0.0527  1.1092
  129RES   H27436370   6.912   6.405   7.540  0.6128  0.4842 -1.2252
  129RES   H27536371   6.829   6.365   7.389  1.1446 -0.4851  0.1456
  129RES   H27636372   6.778   6.628   7.549  0.3750 -0.7883  0.9684
  129RES   H27736373   6.589   6.390   7.539  0.7523 -1.0542 -0.5004
  129RES   H27836374   6.580   6.544   7.626  1.3480  1.5483 -0.6873
  129RES   H27936375   6.582   6.399   0.052 -0.8121  0.9204 -0.0796
  129RES   H28036376   6.681   6.254   0.021 -1.8044 -0.9595  1.9055
  129RES   H28136377   6.549   6.285   7.727  1.0676  0.9926 -0.6856
  129RES   H28236378   6.701   6.581   7.409 -1.6139 -2.1673  0.4032
  130RES     O136379   2.867   0.476   0.360  0.3698 -0.3883  0.0814
  130RES     C236380   2.961   0.454   0.258  0.8578 -0.0032 -0.5303
  130RES     C336381   3.089   0.380   0.308  0.4141  0.2501  0.3550
  130RES     C436382   3.183   0.387   0.185 -0.6833  0.1294  0.0868
  130RES     O536383   3.157   0.279   0.097  0.1658 -0.4920 -0.4135
  130RES     C636384   3.238   0.287   7.804  0.5544  1.0144 -0.4073
  130RES     H736385   2.906   0.410   0.174  0.7840 -0.5045 -0.2217
  130RES     H836386   2.993   0.552   0.223 -1.2026 -0.0516 -2.6605
  130RES     H936387   3.070   0.275   0.332 -0.7148  0.4685  0.4460
  130RES    H1036388   3.287   0.384   0.218 -0.0381 -0.5687 -1.9845
  130RES    H1136389   3.188   0.485   0.136  2.3290  0.3562  0.7079
  130RES    H1236390   3.226   0.197   7.744  0.5050  1.2211 -0.7072
  130RES    H1336391   3.205   0.365   7.735 -1.5426 -1.0911 -1.8553
  130RES    H1436392   3.343   0.313   0.003  1.1582 -1.8908  0.6336
  130RES    H1536393   2.900   0.545   0.416  1.5427  0.5745 -1.7662
  130RES    O1636394   3.144   0.453   0.417 -0.6241  0.4930  0.3150
  130RES    C1736395   3.230   0.383   0.502  0.0197 -0.0097 -0.6905
  130RES    C1836396   3.320   0.488   0.577  0.1381  0.5181 -0.3980
  130RES    C1936397   3.384   0.418   0.703 -0.1417  0.5403 -0.2213
  130RES    O2036398   3.416   0.525   0.787 -0.1324 -0.0876  0.1209
  130RES    C2136399   3.448   0.491   0.919 -1.1025  0.2335 -0.2822
  130RES    H2236400   3.296   0.319   0.443 -1.6186  0.6478 -3.3143
  130RES    H2336401   3.173   0.316   0.565  0.5678  1.2130  1.1418
  130RES    H2436402   3.247   0.563   0.607 -0.1273  1.1217 -2.4990
  130RES    H2536403   3.320   0.346   0.755  3.2619 -1.2923  1.5716
  130RES    H2636404   3.473   0.360   0.681 -0.9482 -0.8465  0.1306
  130RES    H2736405   3.494   0.570   0.979  0.1688 -0.6325 -0.0919
  130RES    H2836406   3.518   0.407   0.923  2.0291  2.6871 -0.9523
  130RES    H2936407   3.359   0.460   0.973 -0.1741 -1.5923  0.2547
  130RES    O3036408   3.405   0.545   0.476  0.5751  0.0109 -0.0266
  130RES    C3136409   3.442   0.680   0.520 -0.3241 -0.5230  0.2106
  130RES    C3236410   3.485   0.772   0.408  0.5530  0.0687  0.8055
  130RES    C3336411   3.555   0.898   0.470 -0.2723  0.3599 -0.2317
  130RES    O3436412   3.688   0.856   0.511  0.0739 -0.4102 -0.0543
  130RES    C3536413   3.768   0.948   0.587  0.0379  0.5834  0.2100
  130RES    H3636414   3.370   0.730   0.584  0.6089  1.7617 -0.4700
  130RES    H3736415   3.536   0.654   0.569  0.1133  1.5004  0.5093
  130RES    H3836416   3.555   0.721   0.340 -1.8709 -0.9895 -0.9578
  130RES    H3936417   3.500   0.944   0.553 -0.7431  0.3755 -0.5490
  130RES    H4036418   3.571   0.979   0.399 -2.8458 -0.8881 -2.3451
  130RES    H4136419   3.748   0.950   0.694 -2.9978 -1.6225 -0.2304
  130RES    H4236420   3.773   1.053   0.558  3.3550  0.3325 -0.2467
  130RES    H4336421   3.869   0.910   0.579 -1.0061 -2.2454 -0.2067
  130RES    O4436422   3.374   0.833   0.347 -0.6435  0.3608  0.2935
  130RES    C4536423   3.288   0.745   0.279 -0.5891 -0.5929 -0.0932
  130RES    C4636424   3.209   0.827   0.179  0.5803  0.0538 -0.7214
  130RES    C4736425   3.095   0.915   0.239 -0.3071 -0.1123 -0.0947
  130RES    O4836426   2.996   0.933   0.139  0.0972  0.2599  0.4242
  130RES    C4936427   2.992   1.056   0.073  0.4160 -0.5614 -0.2915
  130RES    H5036428   3.222   0.708   0.358 -0.8924 -0.8210 -0.4533
  130RES    H5136429   3.339   0.660   0.235  2.3323 -0.0120  2.0432
  130RES    H5236430   3.164   0.753   0.113 -1.8507  0.3007  0.6094
  130RES    H5336431   3.042   0.861   0.318 -2.2105  2.1611  0.2288
  130RES    H5436432   3.134   1.013   0.265 -0.6507  0.1943 -0.7353
  130RES    H5536433   2.973   1.030   7.786  1.1469 -1.8321 -0.1178
  130RES    H5636434   3.088   1.108   0.076  0.6665 -0.9981 -0.7421
  130RES    H5736435   2.903   1.110   0.105  0.2951 -1.0828  0.2560
  130RES    O5836436   3.294   0.918   0.107 -0.0207 -0.2013 -0.0921
  130RES    C5936437   3.403   0.863   0.028 -0.3112 -0.0653 -0.2502
  130RES    C6036438   3.354   0.777   7.731 -0.0977  0.3713  0.0568
  130RES    C6136439   3.460   0.681   7.681  0.2322 -0.4915 -0.2009
  130RES    O6236440   3.405   0.616   7.573 -0.3432 -0.0596  0.0615
  130RES    C6336441   3.493   0.543   7.500 -0.6428 -0.3189  0.2640
  130RES    H6436442   3.463   0.798   0.092  1.4847  2.4407  0.7127
  130RES    H6536443   3.477   0.941   0.008 -0.7250  1.5358  3.9092
  130RES    H6636444   3.265   0.721   7.760 -0.2615 -0.0025 -1.1481
  130RES    H6736445   3.535   0.750   7.645 -1.8873  4.1443  3.6986
  130RES    H6836446   3.491   0.607   7.756 -0.2270 -1.4959 -0.9891
  130RES    H6936447   3.431   0.494   7.425  0.1299 -0.5942 -0.2075
  130RES    H7036448   3.550   0.467   7.553 -1.9481  0.1016  2.3289
  130RES    H7136449   3.559   0.607   7.441 -0.2756 -0.8250  0.1168
  130RES    O7236450   3.329   0.874   7.630 -0.1752 -0.0325 -0.4297
  130RES    C7336451   3.199   0.875   7.571 -0.1184 -0.3177  0.2878
  130RES    C7436452   3.189   0.965   7.446 -0.2511 -0.4057  0.2097
  130RES    C7536453   3.045   1.014   7.424  0.1893  0.0964 -0.1584
  130RES    O7636454   2.955   0.903   7.399  0.4822  0.4026  0.3404
  130RES    C7736455   2.819   0.934   7.369  0.4318  0.7610 -0.4351
  130RES    H7836456   3.165   0.774   7.545  0.4209 -0.2662 -0.6310
  130RES    H7936457   3.124   0.911   7.641 -2.2655 -0.8000 -1.6809
  130RES    H8036458   3.242   1.058   7.468 -0.6806 -0.3067  0.8203
  130RES    H8136459   3.042   1.081   7.338  0.9007  0.2605 -0.0598
  130RES    H8236460   3.008   1.069   7.511  0.3357 -0.8767  0.5349
  130RES    H8336461   2.764   0.845   7.342 -3.1536  3.1607 -1.4435
  130RES    H8436462   2.801   1.005   7.288 -2.7028  1.4573  0.8067
  130RES    H8536463   2.764   0.984   7.449 -0.4260  0.3564 -0.7759
  130RES    O8636464   3.237   0.905   7.331 -0.5092 -0.1655 -0.4883
  130RES    C8736465   3.381   0.883   7.329 -0.3625 -0.5521  0.5274
  130RES    C8836466   3.449   0.834   7.202  0.7411 -0.3554  0.8514
  130RES    C8936467   3.390   0.707   7.146 -0.0879 -0.2583  0.6656
  130RES    O9036468   3.454   0.669   7.024 -0.3688  0.1685 -0.6109
  130RES    C9136469   3.406   0.550   6.964  0.1907  0.4598 -0.1588
  130RES    H9236470   3.426   0.979   7.357 -0.4717  0.0648 -1.3790
  130RES    H9336471   3.413   0.809   7.403 -0.3138 -3.4714 -2.3295
  130RES    H9436472   3.553   0.807   7.223  0.6128 -2.5919 -1.1380
  130RES    H9536473   3.412   0.639   7.228 -2.8161 -0.0721  1.5979
  130RES    H9636474   3.282   0.718   7.138 -0.1086 -0.6825  0.3572
  130RES    H9736475   3.300   0.565   6.948  0.0653 -0.5571 -0.3340
  130RES    H9836476   3.440   0.514   6.866 -2.1765 -0.4980 -0.6619
  130RES    H9936477   3.411   0.463   7.030  1.1429 -0.2368 -1.1250
  130RES   O10036478   3.443   0.951   7.119  0.1787  0.5731  0.3624
  130RES   C10136479   3.563   0.975   7.044 -0.1755 -1.1157 -0.2745
  130RES   C10236480   3.529   1.097   6.951 -0.1974 -0.3532 -0.0427
  130RES   C10336481   3.640   1.146   6.854 -0.7791  0.2025  0.6378
  130RES   O10436482   3.585   1.251   6.778 -0.1891  0.5005 -0.0812
  130RES   C10536483   3.664   1.271   6.658 -0.1367  0.4117  0.0772
  130RES   H10636484   3.591   0.886   6.988 -0.8280 -1.6945  0.3244
  130RES   H10736485   3.651   1.003   7.102 -2.4206  0.5534  2.4392
  130RES   H10836486   3.439   1.077   6.893 -0.0101  1.4228 -0.9493
  130RES   H10936487   3.673   1.064   6.790 -0.9848  0.2848  0.4269
  130RES   H11036488   3.721   1.169   6.923  2.8373 -1.4902 -2.7662
  130RES   H11136489   3.628   1.352   6.594 -0.8955 -0.5878 -0.7701
  130RES   H11236490   3.671   1.174   6.609 -1.2888  0.9683 -1.2303
  130RES   H11336491   3.762   1.305   6.692  0.2347 -1.4332  0.9183
  130RES   O11436492   3.493   1.209   7.033  0.2061  0.0192 -0.4568
  130RES   C11536493   3.348   1.215   7.058 -0.6379  0.0801 -0.3234
  130RES   C11636494   3.293   1.340   6.992 -0.4568  0.0632  0.3451
  130RES   C11736495   3.146   1.325   6.954  0.0389  0.2454 -0.2550
  130RES   O11836496   3.075   1.278   7.069 -0.4962  0.3573  0.8127
  130RES   C11936497   2.932   1.268   7.054  0.1484  0.3684  0.1919
  130RES   H12036498   3.298   1.122   7.030  0.9120 -1.0369  0.5786
  130RES   H12136499   3.329   1.222   7.165 -0.5442  0.1060 -0.3081
  130RES   H12236500   3.350   1.355   6.900  0.9792 -0.4511  1.1504
  130RES   H12336501   3.096   1.416   6.921 -0.2121 -0.5020 -1.9545
  130RES   H12436502   3.131   1.248   6.879 -0.8759  0.0485  0.1173
  130RES   H12536503   2.889   1.368   7.047  0.7763  0.5299 -1.7212
  130RES   H12636504   2.879   1.217   7.134  0.4762  1.0257  0.8361
  130RES   H12736505   2.901   1.226   6.958 -1.0679  0.3519  0.5954
  130RES   O12836506   3.311   1.463   7.058 -0.0726  0.5139  0.6118
  130RES   C12936507   3.447   1.498   7.077  0.3648 -0.1775 -1.0393
  130RES   C13036508   3.440   1.632   7.160 -0.0591  0.3865  0.7814
  130RES   C13136509   3.564   1.710   7.099  0.2001  0.0433 -0.5177
  130RES   O13236510   3.526   1.775   6.979 -0.5919  0.2047 -0.1288
  130RES   C13336511   3.632   1.849   6.916  1.0136  0.2173  0.1222
  130RES   H13436512   3.494   1.423   7.141  1.3375  1.3135  0.0446
  130RES   H13536513   3.490   1.511   6.978 -1.5385  2.1760 -1.6306
  130RES   H13636514   3.340   1.672   7.140  0.4109  0.8302 -0.7757
  130RES   H13736515   3.650   1.644   7.089  1.2883  1.1290  1.3220
  130RES   H13836516   3.604   1.782   7.170 -2.2987  0.6299  0.3356
  130RES   H13936517   3.607   1.862   6.811  1.2997  3.2225  0.3968
  130RES   H14036518   3.639   1.948   6.961 -2.4404  1.0267 -0.9765
  130RES   H14136519   3.731   1.806   6.931  1.1967  0.7900  0.6056
  130RES   O14236520   3.470   1.606   7.288 -0.2627 -0.0789 -0.6666
  130RES   C14336521   3.357   1.572   7.370 -0.0538  0.2286  0.1503
  130RES   C14436522   3.414   1.500   7.501  0.0117  0.8224  0.1771
  130RES   C14536523   3.322   1.381   7.555  0.1275  0.6642  0.5195
  130RES   O14636524   3.394   1.311   7.649 -0.0428  1.0311  0.3365
  130RES   C14736525   3.311   1.232   7.736 -0.4519 -0.2919  0.0094
  130RES   H14836526   3.295   1.653   7.410 -2.4425 -0.7432 -1.4795
  130RES   H14936527   3.291   1.504   7.316 -0.9215  0.5258  0.8207
  130RES   H15036528   3.505   1.448   7.471 -0.8784  0.3608 -1.7925
  130RES   H15136529   3.282   1.312   7.481  0.7238  1.6342 -0.7410
  130RES   H15236530   3.231   1.424   7.596 -0.6239 -1.6218  1.2865
  130RES   H15336531   3.230   1.177   7.688 -1.5055 -0.5520  2.0103
  130RES   H15436532   3.270   1.302   7.809 -0.3513  0.8618 -1.0441
  130RES   H15536533   3.375   1.160   7.787 -0.3347 -0.9674 -1.0667
  130RES   O15636534   3.444   1.591   7.605  0.4696 -0.4517  0.1170
  130RES   C15736535   3.542   1.560   7.698  0.1975 -0.1095  0.1050
  130RES   C15836536   3.584   1.684   7.791  0.0160 -0.1634 -0.0734
  130RES   C15936537   3.738   1.700   7.780  0.2429 -0.0714 -0.2226
  130RES   O16036538   3.789   1.820   0.033  0.2676 -0.3219  0.0704
  130RES   C16136539   3.933   1.828   0.038 -0.1647  0.5652 -0.6135
  130RES   H16236540   3.506   1.477   7.758 -0.4978  1.3224  1.7169
  130RES   H16336541   3.631   1.532   7.642  1.0306  1.5396  0.5526
  130RES   H16436542   3.544   1.775   7.747  0.2259 -0.1760 -0.2907
  130RES   H16536543   3.777   1.615   0.019  0.7089  1.5867  1.9926
  130RES   H16636544   3.761   1.704   7.673 -0.9103 -1.2730 -0.5472
  130RES   H16736545   3.967   1.727   0.061 -0.1078  0.8289  0.4854
  130RES   H16836546   3.971   1.896   0.114 -0.9278  0.5911 -0.2477
  130RES   H16936547   3.980   1.872   7.768 -0.6516 -1.4509 -1.9332
  130RES   O17036548   3.548   1.646   0.109 -0.1441 -0.6220  0.1336
  130RES   C17136549   3.411   1.661   0.138 -0.1314  0.3873  0.5872
  130RES   C17236550   3.395   1.697   0.284  0.2476 -0.5725  0.2996
  130RES   C17336551   3.248   1.660   0.335 -0.4150 -0.2842  0.3727
  130RES   O17436552   3.237   1.641   0.477 -0.3302  0.1067 -0.4133
  130RES   C17536553   3.224   1.773   0.533 -0.6393 -0.1938 -0.1293
  130RES   H17636554   3.354   1.573   0.106 -0.1129  0.8669 -0.8076
  130RES   H17736555   3.365   1.742   0.081  0.1605  0.1471  0.0096
  130RES   H17836556   3.467   1.634   0.337  1.2850  0.0310 -0.4080
  130RES   H17936557   3.180   1.733   0.291  0.5320 -0.3475 -1.2531
  130RES   H18036558   3.228   1.562   0.292 -0.9720 -1.7476  3.8073
  130RES   H18136559   3.319   1.826   0.529 -0.4504 -0.5352 -0.1542
  130RES   H18236560   3.185   1.783   0.634 -2.3261  0.6736 -0.8462
  130RES   H18336561   3.156   1.839   0.478 -1.2352  0.3010  1.1711
  130RES   O18436562   3.428   1.831   0.309  0.0864  0.6060  0.5077
  130RES   C18536563   3.566   1.866   0.308 -0.2789  0.4121  0.1374
  130RES   C18636564   3.590   2.000   0.375 -0.3683  0.3970  0.4232
  130RES   C18736565   3.746   2.015   0.374  0.2460 -0.6433  0.3188
  130RES   O18836566   3.785   2.150   0.402  0.0556  0.8411 -0.1681
  130RES   C18936567   3.925   2.163   0.414  0.6529  0.1428 -0.1725
  130RES   H19036568   3.608   1.872   0.207  1.7603 -2.1566  0.7625
  130RES   H19136569   3.614   1.786   0.364  0.8927 -0.8501 -2.5853
  130RES   H19236570   3.547   2.080   0.314  3.3591  1.6037 -0.8139
  130RES   H19336571   3.794   1.993   0.278 -0.4081 -2.6569  0.4262
  130RES   H19436572   3.787   1.951   0.452  1.8596 -0.9605 -0.7676
  130RES   H19536573   3.948   2.270   0.419  0.4756  0.2106 -0.7293
  130RES   H19636574   3.963   2.120   0.507  1.9166 -0.1204 -0.7922
  130RES   H19736575   3.972   2.128   0.321 -0.7414  0.5561 -1.0445
  130RES   O19836576   3.547   2.011   0.505 -0.0407  0.8556 -0.4764
  130RES   C19936577   3.438   2.096   0.531 -0.2149  0.3325  0.8623
  130RES   C20036578   3.427   2.111   0.682  0.5612  0.7291 -0.0937
  130RES   C20136579   3.284   2.138   0.727  0.2854  0.5846  0.0708
  130RES   O20236580   3.265   2.091   0.858 -0.0249 -0.7313 -0.1826
  130RES   C20336581   3.151   2.145   0.916  0.0302  1.0117  0.5649
  130RES   H20436582   3.350   2.056   0.482  1.8103 -1.8395 -1.1424
  130RES   H20536583   3.457   2.195   0.491 -0.3645  0.1441  0.3194
  130RES   H20636584   3.459   2.018   0.728  0.1280  0.6989  0.1475
  130RES   H20736585   3.257   2.243   0.722 -0.3367  0.4288  0.1433
  130RES   H20836586   3.215   2.078   0.669  0.3673 -0.1637  0.7440
  130RES   H20936587   3.163   2.127   1.023  1.1502 -0.8888  0.1283
  130RES   H21036588   3.058   2.093   0.893  1.5256 -0.8687 -1.4178
  130RES   H21136589   3.135   2.250   0.892 -1.5868  0.1460 -2.3797
  130RES   O21236590   3.492   2.217   0.747  0.0469  0.4165 -0.1685
  130RES   C21336591   3.627   2.194   0.761 -0.4442  1.0820 -0.0880
  130RES   C21436592   3.693   2.327   0.804 -0.9444 -0.1768  0.1898
  130RES   C21536593   3.846   2.332   0.773  0.8614 -0.1662 -0.3146
  130RES   O21636594   3.933   2.216   0.802  0.0141 -0.3703  0.1772
  130RES   C21736595   3.953   2.203   0.941  0.2591 -0.0389 -0.0127
  130RES   H21836596   3.672   2.177   0.663 -0.7467 -2.2303  0.2891
  130RES   H21936597   3.644   2.102   0.817 -2.6369  0.7867  0.1281
  130RES   H22036598   3.644   2.408   0.750 -1.0061 -0.1136  0.3401
  130RES   H22136599   3.858   2.344   0.665  1.1024 -1.0154 -0.3880
  130RES   H22236600   3.882   2.423   0.821  1.4705  1.3488 -3.4625
  130RES   H22336601   4.018   2.116   0.949  1.4545  0.8904  0.6099
  130RES   H22436602   3.861   2.189   0.999 -0.3820  0.7398 -0.8224
  130RES   H22536603   3.998   2.291   0.986  0.0919  0.5352 -0.9645
  130RES   O22636604   3.676   2.345   0.941  0.5673 -1.2300  0.2763
  130RES   C22736605   3.604   2.460   0.995 -0.3293  0.3874 -0.3320
  130RES   C22836606   3.580   2.456   1.148  0.2306 -0.2630 -0.5842
  130RES   C22936607   3.516   2.320   1.200 -0.1443  0.3316  0.2270
  130RES   O23036608   3.428   2.361   1.297 -0.7056 -0.5797  0.1516
  130RES   C23136609   3.360   2.255   1.354  0.1934  0.3234 -0.2428
  130RES   H23236610   3.507   2.475   0.948 -0.8773  0.7769  0.8953
  130RES   H23336611   3.664   2.547   0.968  1.1416 -0.7792 -0.8899
  130RES   H23436612   3.509   2.534   1.175  2.8900  2.2998 -0.7443
  130RES   H23536613   3.596   2.253   1.228  0.8404  0.9219 -1.0848
  130RES   H23636614   3.460   2.263   1.125 -1.1665  0.7195  0.6843
  130RES   H23736615   3.290   2.215   1.280  0.9736  2.5345 -2.2504
  130RES   H23836616   3.304   2.299   1.435  0.5022 -0.2316  0.2775
  130RES   H23936617   3.424   2.175   1.391 -1.3662  0.0115  1.8465
  130RES   O24036618   3.701   2.479   1.219  0.0864 -0.4879 -0.0728
  130RES   C24136619   3.682   2.526   1.353  0.4000  0.4838 -0.0577
  130RES   C24236620   3.810   2.572   1.417  0.1286 -0.1280 -0.6812
  130RES   C24336621   3.787   2.665   1.540  0.2648  0.1093  0.8105
  130RES   O24436622   3.896   2.685   1.626 -0.6275  0.1281  0.1784
  130RES   C24536623   4.018   2.720   1.556  0.1081  0.1374  0.3255
  130RES   H24636624   3.638   2.451   1.419  0.3005  0.6903  0.1084
  130RES   H24736625   3.618   2.613   1.365  1.5493  1.2432  0.6835
  130RES   H24836626   3.876   2.612   1.340  1.4343  0.2360  0.5874
  130RES   H24936627   3.734   2.757   1.515  2.6950  0.6927 -2.4870
  130RES   H25036628   3.718   2.616   1.609  1.5312 -2.4465  0.3092
  130RES   H25136629   3.997   2.789   1.474 -1.0365 -0.7608 -0.1523
  130RES   H25236630   4.073   2.630   1.529  0.6245  0.0523  1.6238
  130RES   H25336631   4.084   2.782   1.617  0.5165  0.9822 -0.9432
  130RES   O25436632   3.871   2.455   1.467 -0.0107 -0.0931 -0.5190
  130RES   C25536633   3.934   2.376   1.366 -0.3830 -0.4511 -0.5089
  130RES   C25636634   3.981   2.247   1.419  0.4384 -0.4099 -0.6425
  130RES   C25736635   4.035   2.151   1.309 -0.5962  0.1183 -0.5061
  130RES   O25836636   4.050   2.009   1.342  0.5612  0.9609 -0.3856
  130RES   C25936637   4.079   1.926   1.234  0.1830  0.1957  0.1874
  130RES   H26036638   3.871   2.350   1.281 -0.1029 -1.1539 -0.5072
  130RES   H26136639   4.016   2.432   1.320 -0.7677 -1.3812 -2.3494
  130RES   H26236640   3.900   2.194   1.470  0.5403 -1.1448 -1.2271
  130RES   H26336641   3.971   2.153   1.222 -3.3926  1.7205  1.5107
  130RES   H26436642   4.132   2.186   1.271 -0.7874  3.0979  1.5676
  130RES   H26536643   3.983   1.899   1.188 -0.1983  1.6887  0.0661
  130RES   H26636644   4.109   1.823   1.251  2.0319  0.5004 -1.0852
  130RES   H26736645   4.151   1.974   1.168 -0.5217  0.0428 -0.7153
  130RES   O26836646   4.090   2.269   1.499 -0.7501 -0.7961 -0.2386
  130RES   C26936647   4.055   2.279   1.638  0.2406 -0.4195  0.4997
  130RES   C27036648   4.177   2.318   1.719  0.4899 -0.6542 -0.5139
  130RES   C27136649   4.150   2.288   1.861  0.3695 -0.3265  0.6961
  130RES   O27236650   4.261   2.321   1.944  0.1474 -0.0575  0.1020
  130RES   C27336651   4.238   2.278   2.073  0.9194 -0.2398  0.0453
  130RES   H27436652   4.025   2.177   1.663 -0.4457  0.0408  1.6014
  130RES   H27536653   3.970   2.345   1.657  0.4896 -0.0768  0.4229
  130RES   H27636654   4.263   2.262   1.681  1.0751  1.0465 -1.7744
  130RES   H27736655   4.128   2.181   1.869  0.4492 -0.5025 -1.3292
  130RES   H27836656   4.066   2.352   1.888 -0.2608 -0.6281 -0.5096
  130RES   H27936657   4.328   2.290   2.132  2.1554  0.0450 -1.8647
  130RES   H28036658   4.191   2.181   2.090  0.1151 -0.3997 -2.6960
  130RES   H28136659   4.159   2.345   2.107  1.8316  0.9868 -0.2180
  130RES   H28236660   4.196   2.425   1.719  2.5570 -0.9843 -0.5952
  131RES     O136661   5.648   2.191   0.112  0.3002 -0.1212 -0.2229
  131RES     C236662   5.597   2.065   0.141 -0.6924 -0.7126  0.9842
  131RES     C336663   5.574   2.069   0.294  0.2146 -0.7492 -0.0354
  131RES     C436664   5.509   1.940   0.341 -0.7902 -0.0725  0.2107
  131RES     O536665   5.446   1.966   0.468  0.1875  0.1237  0.1202
  131RES     C636666   5.365   1.856   0.504  0.0952 -0.4685 -0.0759
  131RES     H736667   5.502   2.060   0.087  0.2153 -0.0810 -0.6763
  131RES     H836668   5.655   1.978   0.112  0.2424  0.7657 -1.6930
  131RES     H936669   5.500   2.145   0.316  0.4286 -1.7208  4.4045
  131RES    H1036670   5.588   1.865   0.342 -1.5067 -0.8570 -0.8915
  131RES    H1136671   5.428   1.910   0.274  0.4016 -4.0220  0.4244
  131RES    H1236672   5.312   1.866   0.598  0.7526  1.0262  0.1520
  131RES    H1336673   5.300   1.834   0.420  0.2475  1.1283 -0.6290
  131RES    H1436674   5.438   1.778   0.525 -0.6970 -1.2697 -0.2885
  131RES    H1536675   5.725   2.195   0.166  1.5783 -3.1062 -1.6850
  131RES    O1636676   5.694   2.085   0.360 -0.2167 -0.0557 -0.1086
  131RES    C1736677   5.692   2.139   0.491 -0.1115  0.5291  0.2500
  131RES    C1836678   5.736   2.289   0.481  0.0444  0.2457  0.0401
  131RES    C1936679   5.882   2.305   0.432 -0.1891  0.4084 -0.1288
  131RES    O2036680   5.919   2.442   0.438  0.2668  0.8401  0.1686
  131RES    C2136681   6.063   2.458   0.419  0.0238  0.6661  0.0228
  131RES    H2236682   5.766   2.088   0.554  0.9689 -0.5336 -1.8320
  131RES    H2336683   5.601   2.124   0.549 -2.0666  0.8736 -2.6685
  131RES    H2436684   5.740   2.328   0.583  2.2309  2.3144 -0.7945
  131RES    H2536685   5.952   2.239   0.483 -0.0547  1.0622  0.5431
  131RES    H2636686   5.878   2.274   0.328  2.1689 -0.9040  0.1321
  131RES    H2736687   6.120   2.418   0.503  0.2682 -1.9746 -1.3474
  131RES    H2836688   6.099   2.560   0.404  0.9514  0.0835 -1.8253
  131RES    H2936689   6.106   2.408   0.333  1.0884  1.8973 -0.1677
  131RES    O3036690   5.648   2.353   0.391 -0.5727  0.1506 -0.1507
  131RES    C3136691   5.630   2.493   0.408 -0.4998  0.5673 -0.1719
  131RES    C3236692   5.501   2.522   0.328 -0.0885  1.0545  0.2434
  131RES    C3336693   5.516   2.660   0.249 -0.9101 -0.4524 -0.0270
  131RES    O3436694   5.433   2.652   0.126  0.4193  0.7881 -1.1420
  131RES    C3536695   5.488   2.607   7.814 -0.6413  0.2326 -0.4013
  131RES    H3636696   5.610   2.526   0.510 -3.9964 -0.4248 -0.4566
  131RES    H3736697   5.715   2.546   0.366 -0.3544 -1.1558 -2.1309
  131RES    H3836698   5.476   2.437   0.265 -0.8592  1.3763  0.1164
  131RES    H3936699   5.621   2.670   0.224 -0.9299  2.2905  0.8132
  131RES    H4036700   5.487   2.746   0.309 -0.7402  0.8210 -1.7541
  131RES    H4136701   5.420   2.648   7.739  2.9545  2.2711 -2.7419
  131RES    H4236702   5.493   2.499   7.805  0.1680  0.1788  0.5760
  131RES    H4336703   5.590   2.643   7.798  0.0155 -1.3980  0.0281
  131RES    O4436704   5.399   2.539   0.425  0.5019 -0.1163  0.2382
  131RES    C4536705   5.258   2.526   0.385 -0.2702  0.1602  0.3416
  131RES    C4636706   5.194   2.380   0.387 -0.4200 -0.3420 -0.1589
  131RES    C4736707   5.211   2.315   0.531 -0.0276 -0.2888  0.4110
  131RES    O4836708   5.169   2.181   0.532  0.8809  0.4040  0.2115
  131RES    C4936709   5.191   2.108   0.654 -0.2115  0.5375 -0.6489
  131RES    H5036710   5.240   2.582   0.293  0.8122  0.2586  0.1838
  131RES    H5136711   5.204   2.583   0.461 -3.0553 -0.9607 -0.7196
  131RES    H5236712   5.254   2.321   0.318  0.8684 -1.0545  1.5079
  131RES    H5336713   5.311   2.329   0.573 -0.5361 -0.0830  1.5709
  131RES    H5436714   5.154   2.376   0.601 -1.2029 -0.4327 -0.3999
  131RES    H5536715   5.298   2.095   0.668 -0.2650 -0.3513 -1.0439
  131RES    H5636716   5.137   2.014   0.658 -2.6782  1.9537  0.2072
  131RES    H5736717   5.154   2.156   0.745 -0.6435 -2.5421  0.8561
  131RES    O5836718   5.059   2.398   0.354  0.1812  0.1143  0.0724
  131RES    C5936719   4.981   2.282   0.335  0.2799 -0.3158  0.1499
  131RES    C6036720   4.861   2.321   0.252 -0.3550  0.1748  0.3235
  131RES    C6136721   4.756   2.212   0.256 -0.1461 -0.2785 -0.3938
  131RES    O6236722   4.648   2.247   0.171  0.9870 -0.1859  0.2527
  131RES    C6336723   4.552   2.324   0.234 -0.0803  0.2785 -0.3602
  131RES    H6436724   4.957   2.245   0.434 -0.3036  0.2217  0.2141
  131RES    H6536725   5.038   2.205   0.282  0.0862 -1.3791  1.4560
  131RES    H6636726   4.810   2.410   0.290  1.0142  0.0973  2.4178
  131RES    H6736727   4.807   2.133   0.201 -0.4149  0.2737 -1.4516
  131RES    H6836728   4.729   2.184   0.358 -3.8523 -0.2408 -1.2716
  131RES    H6936729   4.581   2.429   0.236 -0.1770  0.2929  1.2303
  131RES    H7036730   4.528   2.308   0.339  1.9296 -1.2878 -0.1244
  131RES    H7136731   4.456   2.293   0.191  0.1063 -0.2894 -0.3666
  131RES    O7236732   4.889   2.333   0.113  0.5113 -0.5195 -0.2398
  131RES    C7336733   4.963   2.447   0.081  0.2193 -0.2195 -0.1645
  131RES    C7436734   4.964   2.492   7.751 -0.3151 -0.0083 -0.8470
  131RES    C7536735   5.087   2.577   7.723 -0.8217  0.2765 -0.2561
  131RES    O7636736   5.089   2.584   7.579 -0.3488 -0.6532  0.0369
  131RES    C7736737   5.220   2.624   7.529 -0.0099 -0.2251  0.3985
  131RES    H7836738   4.914   2.523   0.142 -1.4508 -2.3957  1.2934
  131RES    H7936739   5.064   2.434   0.118  0.3404 -0.1157 -0.4606
  131RES    H8036740   4.963   2.407   7.683 -1.4194 -0.9460  0.3194
  131RES    H8136741   5.181   2.529   7.752 -0.6255 -0.4989 -2.0909
  131RES    H8236742   5.076   2.671   7.777  1.8719 -1.0519  2.8219
  131RES    H8336743   5.311   2.576   7.566 -0.2203  0.2689  1.5956
  131RES    H8436744   5.242   2.723   7.570  1.2981 -2.0433  4.4334
  131RES    H8536745   5.210   2.624   7.421 -0.9644  0.7841  0.4837
  131RES    O8636746   4.848   2.576   7.730 -0.5520 -0.1274 -0.3949
  131RES    C8736747   4.721   2.504   7.740  0.3152  0.4208 -0.0465
  131RES    C8836748   4.613   2.583   7.663  0.6687  0.0593 -0.0826
  131RES    C8936749   4.634   2.737   7.685  0.3711  0.4809 -0.2817
  131RES    O9036750   4.516   2.809   7.659 -0.6250  0.2916 -0.2375
  131RES    C9136751   4.529   2.951   7.643  0.4111  0.9644  0.1170
  131RES    H9236752   4.730   2.405   7.696 -2.4633  1.5674 -3.3680
  131RES    H9336753   4.680   2.505   0.023  2.1223  2.7345  0.7305
  131RES    H9436754   4.511   2.556   7.690  0.4566 -0.8891 -1.7369
  131RES    H9536755   4.654   2.754   7.791 -1.5517  1.0195  0.0136
  131RES    H9636756   4.723   2.764   7.628 -0.2227 -0.5718 -1.7507
  131RES    H9736757   4.604   2.983   7.571  0.8602 -0.4938 -0.0868
  131RES    H9836758   4.427   2.979   7.618 -0.0032  0.1574  0.8723
  131RES    H9936759   4.549   2.994   7.741  3.4968  0.3089 -0.1854
  131RES   O10036760   4.638   2.547   7.526 -0.6222 -0.4699  0.2508
  131RES   C10136761   4.546   2.588   7.424  0.2505  0.3472 -0.3114
  131RES   C10236762   4.617   2.592   7.281  0.2985  0.0814 -0.3088
  131RES   C10336763   4.678   2.737   7.266  0.2798  0.4103  0.3475
  131RES   O10436764   4.795   2.729   7.189 -0.0785 -0.5706  0.0121
  131RES   C10536765   4.820   2.861   7.128  0.0115 -0.4938 -0.2455
  131RES   H10636766   4.494   2.676   7.461  0.5222  0.4197 -0.1024
  131RES   H10736767   4.470   2.510   7.419  1.5019 -1.0162  1.4218
  131RES   H10836768   4.694   2.517   7.297 -1.7949 -1.8265  0.9956
  131RES   H10936769   4.715   2.779   7.360 -1.6442  1.3219  0.7210
  131RES   H11036770   4.599   2.802   7.228 -1.6881 -1.8719  0.4285
  131RES   H11136771   4.927   2.881   7.129  0.2389 -1.6906 -0.1993
  131RES   H11236772   4.774   2.929   7.199 -0.4773 -1.7862  0.7086
  131RES   H11336773   4.780   2.872   7.028 -0.4674 -3.4096 -0.4182
  131RES   O11436774   4.520   2.564   7.173  0.3687 -0.4849  0.0609
  131RES   C11536775   4.573   2.525   7.049  0.0130 -0.5430 -0.3851
  131RES   C11636776   4.469   2.538   6.931 -0.1458 -0.0978  0.5512
  131RES   C11736777   4.330   2.474   6.957  0.0622 -0.3036 -0.3864
  131RES   O11836778   4.263   2.442   6.837  0.5761 -0.6219  0.8005
  131RES   C11936779   4.139   2.374   6.846  0.1640  0.4391 -0.4405
  131RES   H12036780   4.665   2.582   7.034 -0.6273  0.5341 -0.2442
  131RES   H12136781   4.605   2.421   7.058 -0.7727 -0.6918  0.8228
  131RES   H12236782   4.510   2.505   6.835  0.6838 -2.2366  1.6101
  131RES   H12336783   4.349   2.386   7.018 -1.5774 -1.1629 -1.0534
  131RES   H12436784   4.271   2.543   7.017  3.0571  0.6911  1.5109
  131RES   H12536785   4.150   2.298   6.924  1.6116  1.6744  0.5812
  131RES   H12636786   4.124   2.325   6.749  1.2413 -2.5846  0.8731
  131RES   H12736787   4.052   2.437   6.867 -0.2796  0.0760 -1.1433
  131RES   O12836788   4.448   2.681   6.914  0.0103  0.3734 -0.0010
  131RES   C12936789   4.552   2.752   6.844  0.0768 -0.0809 -0.0982
  131RES   C13036790   4.506   2.897   6.826 -0.3519  0.1149 -0.1542
  131RES   C13136791   4.577   2.973   6.713  0.2822  0.0993 -0.2199
  131RES   O13236792   4.542   3.113   6.708  0.1904 -0.0493  0.6012
  131RES   C13336793   4.582   3.169   6.584  0.1598 -0.0699 -0.7294
  131RES   H13436794   4.647   2.759   6.896 -0.7788  1.2203  1.3183
  131RES   H13536795   4.571   2.708   6.746  1.1625  0.3740 -0.0982
  131RES   H13636796   4.404   2.891   6.787 -0.5896  1.4214  0.2381
  131RES   H13736797   4.550   2.921   6.621  0.5335  0.2162 -0.3606
  131RES   H13836798   4.685   2.975   6.725  0.3727  0.6860 -1.0922
  131RES   H13936799   4.542   3.262   6.544  1.1136  0.2586 -0.9400
  131RES   H14036800   4.690   3.168   6.573  0.2405 -1.0686  0.0692
  131RES   H14136801   4.540   3.094   6.517 -0.7017 -3.1733  3.0880
  131RES   O14236802   4.523   2.964   6.952  0.9473 -0.4936 -0.0192
  131RES   C14336803   4.427   3.065   6.988  0.1083 -0.2855  0.1701
  131RES   C14436804   4.300   3.014   7.047  0.6862 -0.1341  0.6822
  131RES   C14536805   4.313   2.899   7.154  0.1651  0.0464  0.0054
  131RES   O14636806   4.196   2.878   7.228 -0.0708  0.0326  0.1571
  131RES   C14736807   4.229   2.805   7.348  0.3853  0.5723 -0.5430
  131RES   H14836808   4.469   3.128   7.067  0.6671  0.2239 -0.5186
  131RES   H14936809   4.407   3.128   6.900  0.4947 -0.0389  0.2541
  131RES   H15036810   4.241   3.096   7.088  2.0839  0.4357  1.5863
  131RES   H15136811   4.390   2.948   7.214  0.6003  1.2322 -1.4677
  131RES   H15236812   4.364   2.812   7.112 -0.8333 -0.2360 -0.6422
  131RES   H15336813   4.262   2.705   7.321 -1.7031 -0.5765  0.9995
  131RES   H15436814   4.129   2.786   7.388  1.5831 -0.9151  1.7804
  131RES   H15536815   4.302   2.846   7.418 -0.5953  1.4973 -0.0337
  131RES   O15636816   4.232   2.941   6.942  0.1288 -0.3707 -0.6048
  131RES   C15736817   4.097   2.986   6.925  0.3128  0.2896  0.2581
  131RES   C15836818   4.039   2.899   6.809 -0.0042 -0.4076  0.7700
  131RES   C15936819   4.035   2.750   6.849 -0.4234  0.3489  0.6365
  131RES   O16036820   3.917   2.690   6.804  0.3411 -0.3131  0.2889
  131RES   C16136821   3.895   2.672   6.667  0.4676  0.0563 -0.5681
  131RES   H16236822   4.027   2.965   7.006 -3.0151 -0.3357 -2.6532
  131RES   H16336823   4.099   3.094   6.913  1.7128  0.3614  1.0105
  131RES   H16436824   3.937   2.936   6.796 -0.2343 -1.4371 -0.3882
  131RES   H16536825   4.124   2.698   6.813 -0.7374  1.2785 -1.5282
  131RES   H16636826   4.041   2.735   6.957  0.9957 -0.7393  0.4301
  131RES   H16736827   3.814   2.601   6.650  1.1802 -0.7114 -0.7832
  131RES   H16836828   3.982   2.628   6.619  0.3988 -1.1059  0.3356
  131RES   H16936829   3.869   2.765   6.616  0.2136  0.6576  0.6155
  131RES   O17036830   4.120   2.917   6.691 -0.6115  0.2695  0.0366
  131RES   C17136831   4.087   3.030   6.612 -0.3250  0.1728 -0.2206
  131RES   C17236832   4.183   3.049   6.486 -0.4007 -0.5593  0.0676
  131RES   C17336833   4.116   3.134   6.380 -0.2267  0.0734  0.2412
  131RES   O17436834   4.199   3.130   6.261  0.5823 -0.2503  0.2946
  131RES   C17536835   4.143   3.212   6.161 -0.2671  0.3855 -0.0289
  131RES   H17636836   4.087   3.125   6.665 -0.1044  0.9869 -1.6336
  131RES   H17736837   3.987   3.027   6.568 -0.5965 -2.1954  0.4766
  131RES   H17836838   4.276   3.096   6.518 -0.4976  0.0878 -0.5808
  131RES   H17936839   4.019   3.087   6.366 -1.2280  1.6735  1.5157
  131RES   H18036840   4.090   3.229   6.427 -0.4085 -1.0716  2.5036
  131RES   H18136841   4.211   3.221   6.077  0.6897 -0.3396  0.6588
  131RES   H18236842   4.115   3.311   6.197 -1.1081 -0.5452  1.9425
  131RES   H18336843   4.055   3.160   6.123  0.1820  1.2126 -2.2874
  131RES   O18436844   4.197   2.918   6.425  0.0276  0.0422  0.7733
  131RES   C18536845   4.315   2.842   6.465  0.2859  0.1739 -0.2938
  131RES   C18636846   4.276   2.695   6.448  0.4039 -0.1250 -0.2498
  131RES   C18736847   4.356   2.606   6.539 -0.2674  0.3610 -0.2704
  131RES   O18836848   4.493   2.619   6.514  0.1463 -0.0025 -0.0564
  131RES   C18936849   4.539   2.505   6.434  0.1650 -0.8439 -0.4161
  131RES   H19036850   4.346   2.864   6.567  0.4691 -1.9537  0.1366
  131RES   H19136851   4.389   2.863   6.388 -0.3049  3.0835 -0.1054
  131RES   H19236852   4.176   2.667   6.481  1.0209 -2.5399 -0.2818
  131RES   H19336853   4.320   2.503   6.535  1.9886 -0.5877  2.3019
  131RES   H19436854   4.327   2.626   6.643 -0.2329  1.5824 -0.4937
  131RES   H19536855   4.645   2.510   6.409  1.2638 -2.6409  3.4788
  131RES   H19636856   4.540   2.416   6.498  0.7205  0.1267  0.9558
  131RES   H19736857   4.483   2.497   6.341 -2.2961 -0.6642  1.0003
  131RES   O19836858   4.307   2.647   6.318 -0.3342 -0.2182 -0.0409
  131RES   C19936859   4.219   2.684   6.214 -0.2436 -0.3614 -0.4146
  131RES   C20036860   4.278   2.784   6.113  0.1895  0.1533  0.2753
  131RES   C20136861   4.159   2.838   6.020  0.0542  0.2144 -0.5847
  131RES   O20236862   4.084   2.737   5.962  0.6937 -0.8479 -0.2394
  131RES   C20336863   3.975   2.786   5.885  0.4995  0.8404  0.3063
  131RES   H20436864   4.123   2.717   6.253  0.6053  0.8093  0.7219
  131RES   H20536865   4.200   2.588   6.164 -0.4286  0.5592 -2.1609
  131RES   H20636866   4.327   2.866   6.166  2.4141  0.1166 -1.6827
  131RES   H20736867   4.104   2.906   6.085  1.6346  1.9317 -1.0012
  131RES   H20836868   4.182   2.905   5.936  0.1343  0.3287 -0.4704
  131RES   H20936869   3.912   2.708   5.841 -0.7884  0.6780  2.3774
  131RES   H21036870   4.004   2.851   5.803 -0.2210  1.2849  0.4095
  131RES   H21136871   3.902   2.839   5.945 -1.5499 -0.3953 -1.0290
  131RES   O21236872   4.364   2.718   6.021  0.2831  0.2294 -0.0846
  131RES   C21336873   4.499   2.727   6.073  0.6301 -0.2248 -0.2737
  131RES   C21436874   4.581   2.632   5.984 -0.4420  0.2091  0.2319
  131RES   C21536875   4.526   2.493   6.003 -0.9685 -0.4475 -0.6152
  131RES   O21636876   4.610   2.397   5.947 -0.1007 -0.8267  0.7156
  131RES   C21736877   4.549   2.264   5.931  0.9054 -0.9456  0.5080
  131RES   H21836878   4.515   2.699   6.177 -1.0145 -0.1373  0.0030
  131RES   H21936879   4.528   2.831   6.066  1.7556 -0.4912  0.3052
  131RES   H22036880   4.573   2.646   5.876  0.2908  3.2493  0.5225
  131RES   H22136881   4.517   2.476   6.110 -1.5823 -0.4834 -0.6675
  131RES   H22236882   4.429   2.474   5.957  0.1795 -3.0777 -2.0784
  131RES   H22336883   4.464   2.263   5.863  1.9448 -1.8140 -0.7918
  131RES   H22436884   4.518   2.219   6.026 -1.4472 -0.9941 -0.2498
  131RES   H22536885   4.627   2.197   5.896 -0.5331 -2.2912 -0.1885
  131RES   O22636886   4.716   2.636   6.029  0.0836 -0.0983  0.2139
  131RES   C22736887   4.786   2.738   5.970  0.3482 -0.2316  0.2149
  131RES   C22836888   4.920   2.770   6.049  0.2541 -0.1765  0.1777
  131RES   C22936889   5.033   2.818   5.947 -0.5198  0.3177 -0.3172
  131RES   O23036890   5.147   2.859   6.020  0.4510  0.4371  0.3766
  131RES   C23136891   5.223   2.954   5.953  0.3397 -0.0653 -1.0683
  131RES   H23236892   4.734   2.833   5.969 -0.2097 -0.5038 -2.4516
  131RES   H23336893   4.814   2.720   5.866 -2.5898  0.9237 -0.8361
  131RES   H23436894   4.959   2.681   6.099  1.0327 -1.0134 -1.8491
  131RES   H23536895   4.989   2.904   5.896 -2.4375  1.8967  3.7587
  131RES   H23636896   5.057   2.740   5.874 -2.5741  0.6738 -1.4034
  131RES   H23736897   5.310   2.999   6.000 -0.4774 -0.7995  1.2095
  131RES   H23836898   5.169   3.041   5.915 -0.2307 -1.1929 -2.9446
  131RES   H23936899   5.275   2.914   5.866  1.9115  0.7164 -0.5046
  131RES   O24036900   4.899   2.864   6.155 -0.7557  0.4730  0.5227
  131RES   C24136901   4.826   2.814   6.268 -0.2512 -0.3461 -0.1118
  131RES   C24236902   4.915   2.800   6.398 -0.6784  0.0186 -0.5790
  131RES   C24336903   4.819   2.755   6.512  0.1905 -0.7857  0.6875
  131RES   O24436904   4.852   2.800   6.645 -0.1185  0.4189 -0.3118
  131RES   C24536905   4.960   2.720   6.705 -0.5380  0.0720  0.0677
  131RES   H24636906   4.765   2.725   6.252  0.6600 -1.1046  0.5967
  131RES   H24736907   4.758   2.895   6.294 -1.5457 -0.9572 -1.4948
  131RES   H24836908   4.958   2.896   6.426 -0.3178 -0.3333  0.0824
  131RES   H24936909   4.719   2.785   6.481  0.3076 -0.5047  0.5807
  131RES   H25036910   4.807   2.647   6.518  0.6140 -0.8201  0.9141
  131RES   H25136911   5.050   2.703   6.646 -0.5623 -3.4678  0.9019
  131RES   H25236912   4.923   2.623   6.741 -1.6753  0.2959 -0.4565
  131RES   H25336913   4.987   2.781   6.791  0.8854 -0.8519  0.2884
  131RES   O25436914   5.007   2.694   6.379  0.3870 -0.1501  0.2188
  131RES   C25536915   5.139   2.727   6.342 -0.5032  0.5519 -0.1617
  131RES   C25636916   5.212   2.594   6.311  0.6890 -0.2720 -0.0749
  131RES   C25736917   5.334   2.606   6.214  0.4071 -0.9288  0.1665
  131RES   O25836918   5.379   2.474   6.173  0.0403 -0.0870 -0.5262
  131RES   C25936919   5.472   2.403   6.255 -0.1851  0.1362  0.0218
  131RES   H26036920   5.126   2.789   6.253 -0.7988 -0.8319 -1.1041
  131RES   H26136921   5.193   2.780   6.420 -0.7194  0.6294 -0.0637
  131RES   H26236922   5.138   2.534   6.258  0.5187  1.2430 -1.5620
  131RES   H26336923   5.296   2.649   6.121 -0.4532  0.3188  1.0923
  131RES   H26436924   5.415   2.667   6.253 -1.9626  1.6505  1.2257
  131RES   H26536925   5.574   2.441   6.245  0.3719 -1.0296  1.1527
  131RES   H26636926   5.482   2.296   6.235  2.8694  0.3061  0.3484
  131RES   H26736927   5.440   2.405   6.359 -1.3435  1.6923 -0.3363
  131RES   O26836928   5.253   2.528   6.431 -0.3120 -0.0136 -0.2348
  131RES   C26936929   5.173   2.414   6.473 -0.4157 -0.2501 -0.0951
  131RES   C27036930   5.192   2.397   6.619 -0.1253 -0.2128  0.7108
  131RES   C27136931   5.091   2.304   6.691  0.5416  0.0639  0.4869
  131RES   O27236932   5.134   2.298   6.828  0.3035 -0.4550  0.0344
  131RES   C27336933   5.039   2.218   6.899 -0.1639 -0.0457  0.5726
  131RES   H27436934   5.202   2.325   6.418 -1.5245 -0.6782  0.0041
  131RES   H27536935   5.069   2.438   6.451 -0.3415  0.5666  0.4371
  131RES   H27636936   5.291   2.357   6.639  1.1334  1.3163 -2.2140
  131RES   H27736937   5.103   2.202   6.653 -0.2820  0.8284 -1.9300
  131RES   H27836938   4.992   2.349   6.678  0.6266  0.5766  1.5905
  131RES   H27936939   5.059   2.115   6.867  1.9221  0.2726  0.7862
  131RES   H28036940   4.937   2.245   6.872  0.1280 -0.6935 -1.2906
  131RES   H28136941   5.061   2.213   7.005  0.4298  0.9443  0.4986
  131RES   H28236942   5.181   2.495   6.666 -2.3027  0.2601 -0.7190
  132RES     O136943   1.026   6.518   0.831  0.4266  0.7736  0.1498
  132RES     C236944   1.048   6.498   0.972 -0.5406 -0.0460  0.8130
  132RES     C336945   0.952   6.384   1.015 -0.5619 -0.0181  0.6741
  132RES     C436946   0.969   6.365   1.168  0.2236 -0.1749 -0.1708
  132RES     O536947   0.882   6.260   1.206 -0.0497 -0.8973  0.1020
  132RES     C636948   0.876   6.250   1.348  0.6190 -0.1960 -0.2839
  132RES     H736949   1.154   6.478   0.986 -0.0747  1.3669 -0.5349
  132RES     H836950   1.021   6.588   1.026  0.5124  0.2079  0.9208
  132RES     H936951   0.965   6.294   0.955 -2.5615  0.3543 -0.3503
  132RES    H1036952   0.943   6.453   1.226 -1.2564  0.8032 -2.2463
  132RES    H1136953   1.069   6.341   1.204 -0.9748 -1.2361  2.5879
  132RES    H1236954   0.974   6.254   1.394  1.3437  0.0100 -1.7939
  132RES    H1336955   0.834   6.344   1.382  2.2004  1.2025 -2.0968
  132RES    H1436956   0.829   6.159   1.385 -1.5965  1.6819  1.6842
  132RES    H1536957   0.933   6.506   0.825  0.4731  0.0822  0.8536
  132RES    O1636958   0.826   6.444   0.969 -0.6700 -0.3272 -0.2327
  132RES    C1736959   0.706   6.364   0.988  0.1559 -0.9773  0.1326
  132RES    C1836960   0.577   6.426   0.918 -0.5510  0.1491 -0.0546
  132RES    C1936961   0.539   6.557   0.991 -0.3526 -0.1507  1.2410
  132RES    O2036962   0.520   6.540   1.129  0.2709 -0.9306  0.1531
  132RES    C2136963   0.477   6.658   1.198  0.3055  0.3547 -0.1576
  132RES    H2236964   0.684   6.342   1.093 -1.7830 -1.6844 -0.4090
  132RES    H2336965   0.725   6.268   0.942  1.6165  0.6787 -2.8599
  132RES    H2436966   0.495   6.356   0.931 -0.8554  0.1630 -1.7797
  132RES    H2536967   0.626   6.621   0.979  0.3360 -1.3109 -0.0497
  132RES    H2636968   0.454   6.599   0.938  0.5867 -2.3593 -2.1561
  132RES    H2736969   0.494   6.647   1.305  0.5271 -2.8061 -0.4516
  132RES    H2836970   0.376   6.686   1.169  0.8512  4.3865  1.6349
  132RES    H2936971   0.547   6.734   1.166  2.6738 -0.8073  2.1144
  132RES    O3036972   0.594   6.449   0.785 -0.5229  0.2057  0.0617
  132RES    C3136973   0.476   6.462   0.700 -0.3069 -0.1137  0.9452
  132RES    C3236974   0.522   6.491   0.555  1.0160 -0.0558  0.1314
  132RES    C3336975   0.426   6.584   0.483  0.7568  0.1798 -0.4525
  132RES    O3436976   0.476   6.641   0.359 -0.0494  0.7139  0.1891
  132RES    C3536977   0.377   6.714   0.291 -0.0444 -0.1143  0.1374
  132RES    H3636978   0.423   6.367   0.706  1.7472 -1.3344  0.5629
  132RES    H3736979   0.412   6.543   0.732 -0.1595  0.7546 -0.8971
  132RES    H3836980   0.617   6.546   0.550  0.6786  0.5026 -0.1470
  132RES    H3936981   0.391   6.668   0.543  0.8212 -0.0176 -0.1423
  132RES    H4036982   0.341   6.518   0.464 -0.1648  1.4096 -0.6735
  132RES    H4136983   0.419   6.765   0.204 -0.3298  1.6948  1.0394
  132RES    H4236984   0.326   6.789   0.353 -1.7454 -0.9393 -0.2246
  132RES    H4336985   0.304   6.650   0.242 -2.9964  2.3359  1.1536
  132RES    O4436986   0.520   6.375   0.476 -0.8606 -0.0665  0.5007
  132RES    C4536987   0.640   6.296   0.468 -0.6307  0.1144  0.4420
  132RES    C4636988   0.764   6.355   0.393  0.3315  0.1879  0.7455
  132RES    C4736989   0.892   6.273   0.423 -0.0727 -0.5886 -0.0001
  132RES    O4836990   1.014   6.343   0.401 -0.1502 -0.2874  0.2289
  132RES    C4936991   1.048   6.365   0.261 -0.4488 -0.0477 -0.4115
  132RES    H5036992   0.617   6.202   0.417 -0.4142  0.6310 -0.6364
  132RES    H5136993   0.670   6.264   0.568  0.9636  2.5693  0.8040
  132RES    H5236994   0.780   6.458   0.426 -1.2873  0.7163 -0.0701
  132RES    H5336995   0.893   6.250   0.530 -0.4786 -1.6789 -0.2256
  132RES    H5436996   0.879   6.179   0.368  1.7164 -1.1787  0.5538
  132RES    H5536997   0.959   6.400   0.208 -2.3092 -1.3912  1.7671
  132RES    H5636998   1.076   6.269   0.218  0.6558  0.0027  0.1742
  132RES    H5736999   1.125   6.442   0.249 -1.7209  1.3925  0.5039
  132RES    O5837000   0.733   6.339   0.254  0.4069  0.0452 -0.0145
  132RES    C5937001   0.650   6.445   0.205 -0.3613  0.4501  0.8018
  132RES    C6037002   0.632   6.439   0.049  0.3387  0.0513 -0.0114
  132RES    C6137003   0.612   6.585   7.808 -0.1224  0.4140  0.4241
  132RES    O6237004   0.634   6.584   7.667  0.9491 -0.1924  0.3434
  132RES    C6337005   0.646   6.710   7.607 -0.0099 -0.2164 -0.3931
  132RES    H6437006   0.695   6.536   0.245 -1.4604  0.8105  1.2293
  132RES    H6537007   0.553   6.438   0.253 -0.4739 -2.8306  0.2023
  132RES    H6637008   0.721   6.402   0.000 -0.4580 -2.9093  0.6691
  132RES    H6737009   0.511   6.618   0.014 -0.4570 -1.1344  1.2663
  132RES    H6837010   0.691   6.646   0.036 -1.2459  0.0748  2.9286
  132RES    H6937011   0.577   6.790   7.632  0.7050  0.2215  0.2145
  132RES    H7037012   0.647   6.693   7.500  2.0365 -0.2514 -0.3957
  132RES    H7137013   0.746   6.751   7.623  0.4738 -1.5459  0.0427
  132RES    O7237014   0.514   6.353   0.033  0.4434 -0.0630 -0.0572
  132RES    C7337015   0.463   6.349   7.712  0.2044 -0.5130 -0.5727
  132RES    C7437016   0.388   6.219   7.678  0.1157  0.0707  0.2151
  132RES    C7537017   0.423   6.159   7.536 -0.2125  0.1618  0.2685
  132RES    O7637018   0.422   6.267   7.433 -0.2443  0.4690  0.0672
  132RES    C7737019   0.472   6.231   7.309 -0.3714 -0.4896  0.3675
  132RES    H7837020   0.411   6.439   7.680  1.2193 -0.2387 -1.4777
  132RES    H7937021   0.554   6.357   7.654 -0.3660 -1.5031 -1.6364
  132RES    H8037022   0.419   6.145   7.752 -2.5871  0.0005  1.3433
  132RES    H8137023   0.355   6.081   7.502 -1.2524  1.5296 -0.8807
  132RES    H8237024   0.522   6.115   7.534 -0.7556 -1.1976  1.7301
  132RES    H8337025   0.481   6.123   7.298 -1.1260 -0.4016 -1.3467
  132RES    H8437026   0.572   6.271   7.295  0.3658 -2.1827  0.7843
  132RES    H8537027   0.413   6.274   7.228  1.9613  1.2511 -0.4720
  132RES    O8637028   0.250   6.248   7.681  0.6413  0.1246  0.3293
  132RES    C8737029   0.185   6.228   7.797 -0.0903  0.1180  0.5941
  132RES    C8837030   0.033   6.253   7.802 -0.5333 -0.3451  0.2361
  132RES    C8937031   7.775   6.168   0.092  0.5906  0.0459  0.3328
  132RES    O9037032   7.634   6.165   0.090  0.3213  0.1321 -0.2462
  132RES    C9137033   7.580   6.067   0.177 -0.1884 -1.0516 -0.0306
  132RES    H9237034   0.206   6.123   7.815  0.7483  0.1772  0.0064
  132RES    H9337035   0.230   6.297   0.052  2.2711  0.4592 -1.1581
  132RES    H9437036   7.803   6.218   7.710  0.2572 -1.2435  0.1626
  132RES    H9537037   7.804   6.066   0.070 -3.2465 -0.6186 -2.0570
  132RES    H9637038   7.813   6.192   0.191  0.3612  2.2461 -0.0824
  132RES    H9737039   7.645   5.981   0.192  2.9642  1.1165 -0.8782
  132RES    H9837040   7.568   6.111   0.276  0.7368 -0.7529 -0.0468
  132RES    H9937041   7.477   6.052   0.143 -0.1778  1.9533 -1.5825
  132RES   O10037042   0.013   6.393   0.003  0.1175 -0.1279 -0.1579
  132RES   C10137043   7.721   6.451   7.756 -0.4795 -0.6628 -0.1335
  132RES   C10237044   7.707   6.596   7.801  0.4635 -0.0647 -0.0687
  132RES   C10337045   7.567   6.649   7.774  0.2621  0.0048 -0.2950
  132RES   O10437046   7.538   6.764   0.035 -0.2430 -0.5575 -0.8917
  132RES   C10537047   7.414   6.817   7.816 -0.5970 -0.0970 -0.0787
  132RES   H10637048   7.635   6.386   7.767 -3.1254  2.6040 -0.7264
  132RES   H10737049   7.740   6.448   7.648 -3.9214  2.1662 -0.9250
  132RES   H10837050   7.723   6.595   0.091  1.3883 -0.0228 -0.1957
  132RES   H10937051   7.491   6.570   7.772 -0.5822  0.7847  0.2683
  132RES   H11037052   7.557   6.671   7.668 -3.9058  0.7611  0.1482
  132RES   H11137053   7.337   6.750   0.036  0.9881 -2.2338 -0.5701
  132RES   H11237054   7.404   6.817   7.707 -1.2827  0.8335 -0.0270
  132RES   H11337055   7.401   6.915   0.046 -1.3768  0.5234 -1.5682
  132RES   O11437056   7.796   6.708   7.744 -0.3059 -0.1460  0.3221
  132RES   C11537057   0.111   6.706   7.796 -0.1321  0.8380 -0.1466
  132RES   C11637058   0.215   6.758   7.692  0.2542 -0.0984 -0.5279
  132RES   C11737059   0.205   6.684   7.563  0.7122 -0.4874  0.4390
  132RES   O11837060   0.302   6.700   7.459  0.6989 -0.0074 -0.0630
  132RES   C11937061   0.344   6.578   7.401  0.2137  0.0683  0.1746
  132RES   H12037062   0.102   6.760   0.073  0.6775  4.1720 -1.9008
  132RES   H12137063   0.142   6.604   7.816 -1.0099  0.3805 -1.1141
  132RES   H12237064   0.318   6.737   7.720  0.0577  0.1109  0.3730
  132RES   H12337065   0.194   6.578   7.588 -0.0277 -0.3240  0.8108
  132RES   H12437066   0.109   6.701   7.515  0.9943  0.0103  0.0488
  132RES   H12537067   0.258   6.511   7.404 -0.5036  0.9556 -0.3245
  132RES   H12637068   0.434   6.538   7.448  0.6836 -1.2824 -1.8572
  132RES   H12737069   0.374   6.594   7.298 -0.1346  0.5527  0.1479
  132RES   O12837070   0.203   6.903   7.679 -0.2439  0.4854 -0.1283
  132RES   C12937071   0.309   6.964   7.610  0.4663 -0.3886  0.2026
  132RES   C13037072   0.356   7.077   7.709 -0.2988  0.3266  0.3932
  132RES   C13137073   0.306   7.209   7.659  0.1380  0.1486 -0.1387
  132RES   O13237074   0.336   7.299   7.763 -0.3072  0.0476 -0.0474
  132RES   C13337075   0.317   7.430   7.723  0.2776  0.2523  0.5239
  132RES   H13437076   0.390   6.890   7.608  1.0882  0.2603  1.3484
  132RES   H13537077   0.283   7.000   7.511 -0.7235 -1.0661  0.2601
  132RES   H13637078   0.328   7.050   7.811 -0.1479  1.0669  0.6301
  132RES   H13737079   0.198   7.210   7.642 -0.2931 -0.8139  2.3100
  132RES   H13837080   0.357   7.251   7.573 -1.4505  1.6284 -0.3818
  132RES   H13937081   0.360   7.509   7.785  1.2732 -0.2494  0.4809
  132RES   H14037082   0.369   7.449   7.630  0.9967 -0.1271  0.8417
  132RES   H14137083   0.212   7.448   7.699 -1.2091 -2.9164  4.0383
  132RES   O14237084   0.498   7.082   7.705  0.5393  0.0692  0.3484
  132RES   C14337085   0.566   6.998   7.794 -0.3682  0.0082  0.3644
  132RES   C14437086   0.580   7.083   0.099  0.0501 -0.3567  0.3775
  132RES   C14537087   0.712   7.075   0.170  0.3771  0.1987  0.4985
  132RES   O14637088   0.742   6.937   0.200 -0.3672 -0.0567  0.3175
  132RES   C14737089   0.871   6.913   0.259  0.1727 -1.1887  0.3948
  132RES   H14837090   0.516   6.906   0.007 -1.5156  1.4701  3.0497
  132RES   H14937091   0.661   6.960   7.755 -1.1748 -2.8787  1.0860
  132RES   H15037092   0.558   7.187   0.078 -1.5776 -0.7584  0.0409
  132RES   H15137093   0.719   7.142   0.255  2.1191 -0.0121  0.5307
  132RES   H15237094   0.781   7.115   0.096  1.1659  0.3604  1.3218
  132RES   H15337095   0.894   6.808   0.244 -1.4497 -1.4764 -0.2283
  132RES   H15437096   0.862   6.951   0.361 -0.0257 -1.6233  0.5409
  132RES   H15537097   0.947   6.975   0.212 -1.1870  0.3781  0.1934
  132RES   O15637098   0.486   7.044   0.202  0.0762  0.6324  0.1000
  132RES   C15737099   0.410   7.155   0.256 -0.1143 -0.0327 -0.3844
  132RES   C15837100   0.334   7.107   0.384  0.6396 -0.3507  0.1542
  132RES   C15937101   0.226   7.216   0.411 -0.1154 -0.1901 -0.6989
  132RES   O16037102   0.281   7.340   0.453  0.4483 -0.2624  0.7312
  132RES   C16137103   0.329   7.345   0.584 -0.2660 -0.0497 -0.3683
  132RES   H16237104   0.489   7.226   0.282  0.6821  0.3349 -3.6139
  132RES   H16337105   0.350   7.206   0.182 -1.1961 -0.6576  0.0445
  132RES   H16437106   0.287   7.013   0.359 -1.6879  0.7063  0.4211
  132RES   H16537107   0.169   7.243   0.322 -1.0046  1.2090  0.2929
  132RES   H16637108   0.160   7.169   0.484  1.9650 -0.6917  0.9248
  132RES   H16737109   0.253   7.295   0.644  0.2696 -1.9578 -1.2249
  132RES   H16837110   0.333   7.452   0.605  0.1078 -0.1037 -0.1634
  132RES   H16937111   0.422   7.291   0.601  0.5113  1.4487  0.1821
  132RES   O17037112   0.408   7.095   0.506 -0.6699 -0.4822  0.3720
  132RES   C17137113   0.511   6.997   0.506  0.0372 -0.8339 -0.3173
  132RES   C17237114   0.547   6.974   0.659 -0.0036  0.3788 -0.3118
  132RES   C17337115   0.662   6.875   0.664 -0.3530 -0.1627 -0.4243
  132RES   O17437116   0.698   6.838   0.798  0.4939 -0.5231  0.2262
  132RES   C17537117   0.806   6.751   0.811  0.1565  0.2383  0.0919
  132RES   H17637118   0.599   7.033   0.453  0.1680  1.0964  1.1689
  132RES   H17737119   0.473   6.905   0.461  1.9006  0.0518 -3.8332
  132RES   H17837120   0.571   7.070   0.705  0.3772  0.8983 -1.5614
  132RES   H17937121   0.643   6.790   0.598  0.6629  0.9591 -2.2125
  132RES   H18037122   0.745   6.928   0.617  1.2619 -1.8858  0.4252
  132RES   H18137123   0.842   6.746   0.914  1.0231 -1.5369 -0.2740
  132RES   H18237124   0.894   6.775   0.752 -1.3484 -1.4531 -2.9243
  132RES   H18337125   0.768   6.660   0.765  0.6297  0.7545 -1.3348
  132RES   O18437126   0.427   6.923   0.715  0.1008  0.4002 -0.1828
  132RES   C18537127   0.416   6.910   0.851  0.5788  0.2776  0.1470
  132RES   C18637128   0.264   6.880   0.885  1.2695 -0.1552 -0.2226
  132RES   C18737129   0.231   6.921   1.027  0.0099  0.2405 -0.1272
  132RES   O18837130   0.099   6.905   1.047 -0.0650 -0.0592  0.2827
  132RES   C18937131   0.057   6.925   1.188 -0.6461  0.5991  0.5836
  132RES   H19037132   0.449   6.998   0.906  0.4970  1.2934 -1.4049
  132RES   H19137133   0.478   6.827   0.883 -0.3753 -0.2889  0.5486
  132RES   H19237134   0.199   6.946   0.826  1.8285  0.7864  0.1981
  132RES   H19337135   0.268   7.022   1.047  0.0121  0.3597 -0.6944
  132RES   H19437136   0.289   6.859   1.094 -2.5383 -0.0795  1.8625
  132RES   H19537137   7.767   6.909   1.204 -0.4325 -0.8747  0.5882
  132RES   H19637138   0.104   6.858   1.259 -0.2784  0.0420 -0.1819
  132RES   H19737139   0.084   7.023   1.229  4.1621 -0.3182 -0.1335
  132RES   O19837140   0.230   6.744   0.872 -0.2243  0.1623  0.1854
  132RES   C19937141   0.147   6.713   0.765 -0.1699  0.4043  0.0258
  132RES   C20037142   0.110   6.566   0.753  0.2672 -0.8149  0.1249
  132RES   C20137143   0.021   6.538   0.631  0.2055 -0.5755  0.6181
  132RES   O20237144   0.107   6.531   0.521 -0.1651 -0.0938 -0.4679
  132RES   C20337145   0.047   6.529   0.396  0.0741  0.3983  0.0451
  132RES   H20437146   0.196   6.751   0.675  1.9856  0.7410  1.3079
  132RES   H20537147   0.051   6.765   0.769  0.2512  1.3484 -1.7209
  132RES   H20637148   0.200   6.505   0.759  1.5612  1.1177  0.7358
  132RES   H20737149   7.781   6.444   0.635 -2.0356  0.7713  1.4076
  132RES   H20837150   7.765   6.618   0.621 -0.3126 -1.0534  0.5296
  132RES   H20937151   7.783   6.456   0.397  0.1737  0.2960  0.6553
  132RES   H21037152   0.119   6.501   0.319 -0.5195 -0.3586 -0.2464
  132RES   H21137153   0.009   6.626   0.362  1.5334  0.5007 -1.3532
  132RES   O21237154   0.033   6.533   0.867 -0.1567  0.5846  0.6245
  132RES   C21337155   0.120   6.491   0.975  0.0439  0.1366  0.0419
  132RES   C21437156   0.050   6.510   1.107  0.4097  0.1717  0.2577
  132RES   C21537157   0.135   6.459   1.226  0.3817 -0.0504 -0.2939
  132RES   O21637158   0.091   6.518   1.350  0.7600 -0.0094  0.4599
  132RES   C21737159   0.153   6.469   1.467 -0.3624  0.2482 -0.2000
  132RES   H21837160   0.219   6.536   0.985  0.4561 -0.7861  0.1758
  132RES   H21937161   0.140   6.384   0.964 -0.6414  0.0831 -0.7262
  132RES   H22037162   0.031   6.613   1.135 -1.5208 -1.0695  3.8002
  132RES   H22137163   0.132   6.350   1.219 -0.1184 -0.0522 -0.0152
  132RES   H22237164   0.241   6.483   1.225  0.5702 -0.7609 -4.2393
  132RES   H22337165   0.229   6.541   1.497 -2.5190  2.1829  0.7050
  132RES   H22437166   0.198   6.371   1.451  1.6403  1.3855 -1.8853
  132RES   H22537167   0.084   6.465   1.551  0.2034 -0.0175  0.2557
  132RES   O22637168   7.752   6.429   1.111  0.1057  0.1486  0.8402
  132RES   C22737169   7.618   6.467   1.084 -0.0980 -0.0012 -0.1601
  132RES   C22837170   7.557   6.548   1.207 -0.3944 -0.2753 -0.2870
  132RES   C22937171   7.456   6.662   1.161 -0.6567  0.0325  0.0255
  132RES   O23037172   7.393   6.710   1.277 -0.4779  0.0151  0.1524
  132RES   C23137173   7.460   6.813   1.349 -0.2206 -0.1889  0.0937
  132RES   H23237174   7.552   6.381   1.072 -0.3010  0.1584 -0.1923
  132RES   H23337175   7.612   6.529   0.995 -0.8852 -2.0768 -1.6032
  132RES   H23437176   7.645   6.597   1.250 -0.2284  2.4017 -3.4316
  132RES   H23537177   7.375   6.636   1.092  0.2526  2.9151 -2.1945
  132RES   H23637178   7.519   6.737   1.114 -2.2627 -0.1375 -2.4945
  132RES   H23737179   7.467   6.907   1.295  0.1723 -1.3465 -1.9149
  132RES   H23837180   7.558   6.779   1.383  0.2170 -0.1759 -1.1523
  132RES   H23937181   7.405   6.829   1.442  0.8043 -0.2499  0.7279
  132RES   O24037182   7.488   6.455   1.296  0.2098  1.3073 -0.2806
  132RES   C24137183   7.582   6.377   1.367  0.8345  0.3637 -1.1034
  132RES   C24237184   7.559   6.224   1.359  0.1254 -0.8985 -0.1374
  132RES   C24337185   7.697   6.156   1.341 -0.1191  0.1834  0.0849
  132RES   O24437186   7.658   6.018   1.324  0.3110  0.0155 -0.3577
  132RES   C24537187   7.760   5.926   1.340 -0.5408  0.6597 -0.0507
  132RES   H24637188   7.561   6.402   1.471  2.7726 -3.7595  0.3831
  132RES   H24737189   7.684   6.389   1.329  1.3875 -1.3128 -0.2228
  132RES   H24837190   7.493   6.209   1.274 -0.5332  0.8746  0.0271
  132RES   H24937191   7.751   6.191   1.253 -1.0391 -0.3905 -0.7202
  132RES   H25037192   7.742   6.178   1.438 -0.6469 -0.0379  0.3832
  132RES   H25137193   7.719   5.826   1.322  0.2119  0.2363  0.5532
  132RES   H25237194   7.791   5.921   1.444 -0.1724  0.5847 -0.1627
  132RES   H25337195   0.027   5.939   1.271  0.4157 -1.2040  0.7054
  132RES   O25437196   7.501   6.179   1.475  0.0582  0.2268 -0.1636
  132RES   C25537197   7.367   6.209   1.499 -0.1298 -0.3553  0.3790
  132RES   C25637198   7.310   6.096   1.586  0.0100  0.3772  0.0966
  132RES   C25737199   7.192   6.147   1.677 -0.5199  0.3267 -0.4894
  132RES   O25837200   7.141   6.055   1.762 -0.4631  0.8901  0.1793
  132RES   C25937201   7.069   5.944   1.711 -0.0737  0.5166  0.0844
  132RES   H26037202   7.350   6.305   1.547 -1.7359  1.1525 -3.0178
  132RES   H26137203   7.307   6.217   1.409 -0.3370  0.5219  0.5933
  132RES   H26237204   7.387   6.052   1.649  0.3701  0.3079 -0.3953
  132RES   H26337205   7.230   6.223   1.744 -2.5321 -0.3230  1.4704
  132RES   H26437206   7.108   6.191   1.624 -0.5320 -0.8123 -1.4420
  132RES   H26537207   6.995   5.979   1.639 -0.7817 -2.2580 -0.6134
  132RES   H26637208   7.011   5.885   1.783 -0.5651  2.4130  1.2725
  132RES   H26737209   7.124   5.866   1.658 -0.5246  0.8847 -0.9547
  132RES   O26837210   7.257   5.999   1.493  0.6016  0.7008 -1.2083
  132RES   C26937211   7.352   5.913   1.430 -0.2598  0.4074 -0.1448
  132RES   C27037212   7.284   5.781   1.389  0.3970 -0.3429 -0.2908
  132RES   C27137213   7.382   5.670   1.355  0.3211 -0.1858  0.1613
  132RES   O27237214   7.318   5.551   1.314 -0.1062 -0.0524 -0.3093
  132RES   C27337215   7.328   5.451   1.416  0.3772  0.3571 -0.2519
  132RES   H27437216   7.432   5.890   1.501 -0.6416 -0.2649  0.0786
  132RES   H27537217   7.403   5.951   1.342 -1.6937  0.3176 -1.0376
  132RES   H27637218   7.220   5.743   1.469 -2.2591  0.1585 -2.0845
  132RES   H27737219   7.454   5.645   1.433 -0.4822 -0.5031  0.8056
  132RES   H27837220   7.437   5.699   1.265  0.7791  1.8047  1.0632
  132RES   H27937221   7.432   5.426   1.433  0.8344 -1.2227 -4.7436
  132RES   H28037222   7.279   5.359   1.384  0.7653 -0.3792  1.2634
  132RES   H28137223   7.266   5.492   1.495 -0.3288  4.5450 -2.8191
  132RES   H28237224   7.220   5.805   1.304 -0.1000 -2.4123 -0.5179
  133RES     O137225   2.495   4.942   2.729 -0.0760  0.3674  0.2784
  133RES     C237226   2.569   4.978   2.836  0.8852 -0.2339 -0.3197
  133RES     C337227   2.578   5.133   2.828  0.2082 -0.0105  0.2751
  133RES     C437228   2.618   5.194   2.961 -0.3087 -1.0963  0.1320
  133RES     O537229   2.576   5.332   2.958  0.2598 -0.5166 -0.0241
  133RES     C637230   2.601   5.394   3.078  0.0141 -0.5435  0.2914
  133RES     H737231   2.513   4.947   2.924 -2.6905  0.8792 -2.0994
  133RES     H837232   2.666   4.927   2.837  1.1908  0.3171 -1.5104
  133RES     H937233   2.478   5.171   2.809 -0.1003 -0.5786  0.7300
  133RES    H1037234   2.726   5.190   2.964 -0.3214 -4.6317 -1.0874
  133RES    H1137235   2.557   5.139   3.034 -0.6034 -3.2314 -1.6579
  133RES    H1237236   2.582   5.340   3.171  1.6367  1.2586  1.7278
  133RES    H1337237   2.708   5.413   3.090 -0.3541  2.6793 -1.0163
  133RES    H1437238   2.543   5.486   3.068  0.4777 -0.2609  0.1967
  133RES    H1537239   2.524   4.991   2.653  1.8633 -0.2249  0.5884
  133RES    O1637240   2.672   5.161   2.728 -0.5800  0.2294  0.3528
  133RES    C1737241   2.635   5.255   2.634 -0.5638  0.1330 -0.4124
  133RES    C1837242   2.746   5.278   2.530  0.0738 -0.2944 -1.1481
  133RES    C1937243   2.714   5.362   2.405  0.5929 -1.0484  0.0422
  133RES    O2037244   2.805   5.325   2.298  0.6960  0.1582  0.2225
  133RES    C2137245   2.822   5.420   2.197  0.1526 -0.6385  0.3248
  133RES    H2237246   2.594   5.345   2.680  0.1023 -0.2967  1.0793
  133RES    H2337247   2.554   5.221   2.570 -0.0658  0.4067 -1.1930
  133RES    H2437248   2.787   5.183   2.496 -1.1136 -1.4137  0.4938
  133RES    H2537249   2.615   5.335   2.369  0.1824 -0.1889  0.5051
  133RES    H2637250   2.723   5.469   2.425  1.8870 -0.9517 -0.9827
  133RES    H2737251   2.731   5.460   2.153  0.5759  0.0808  0.1089
  133RES    H2837252   2.883   5.377   2.117  3.4739  0.7275  2.0293
  133RES    H2937253   2.886   5.502   2.230  1.5440 -1.9573  0.9797
  133RES    O3037254   2.848   5.349   2.612 -0.0233 -0.3492  0.4072
  133RES    C3137255   2.972   5.382   2.557 -0.3554  0.5999  0.4467
  133RES    C3237256   3.059   5.417   2.688  0.7573  0.2799  0.5407
  133RES    C3337257   3.175   5.499   2.650 -0.7307  0.2753  0.2305
  133RES    O3437258   3.204   5.586   2.762  0.4121  0.1090  0.2064
  133RES    C3537259   3.319   5.656   2.738 -0.1730 -0.7291  0.3838
  133RES    H3637260   3.024   5.295   2.517 -2.5069 -1.2577  1.5706
  133RES    H3737261   2.957   5.465   2.488  1.5191 -0.9220 -1.8891
  133RES    H3837262   2.987   5.467   2.753  0.3766  0.8739 -0.3201
  133RES    H3937263   3.146   5.555   2.560  1.7329  0.9525 -0.1685
  133RES    H4037264   3.262   5.442   2.617 -0.6747  0.3603  0.2309
  133RES    H4137265   3.355   5.711   2.825  2.8081 -0.9532 -0.6308
  133RES    H4237266   3.307   5.728   2.657  4.2779 -0.8183 -0.5113
  133RES    H4337267   3.400   5.589   2.708  0.2016  0.6722 -1.8035
  133RES    O4437268   3.112   5.297   2.748 -0.1368 -0.0709  0.3773
  133RES    C4537269   3.026   5.220   2.834  0.2994 -0.9012 -0.2422
  133RES    C4637270   3.094   5.141   2.945 -0.2132  0.6037 -0.3002
  133RES    C4737271   3.089   5.209   3.084  0.1947 -0.2559  0.0553
  133RES    O4837272   3.196   5.179   3.163 -0.7716  0.1708 -0.0343
  133RES    C4937273   3.187   5.233   3.299 -0.4553  0.2981  0.4832
  133RES    H5037274   2.986   5.152   2.758 -1.6854  0.1388 -0.1431
  133RES    H5137275   2.933   5.260   2.874 -0.8413 -2.4406 -1.2757
  133RES    H5237276   3.201   5.132   2.923  0.1955  1.0557  1.3783
  133RES    H5337277   3.083   5.318   3.082  2.3924 -0.0927  0.5531
  133RES    H5437278   3.002   5.170   3.136 -0.2533  3.5139  2.2695
  133RES    H5537279   3.089   5.229   3.347 -1.1456  1.6853 -0.7726
  133RES    H5637280   3.206   5.340   3.293 -0.7390  0.3684  0.8338
  133RES    H5737281   3.261   5.175   3.354  0.1740 -0.4611 -1.1307
  133RES    O5837282   3.055   4.998   2.955  0.4772 -0.3279 -0.0759
  133RES    C5937283   3.148   4.907   3.003  0.1606  0.0482 -0.4176
  133RES    C6037284   3.244   4.850   2.893 -0.0461  0.4820 -0.0685
  133RES    C6137285   3.156   4.773   2.791 -0.1493 -0.5298  0.4246
  133RES    O6237286   3.236   4.758   2.671 -0.0321 -0.6499 -0.0704
  133RES    C6337287   3.154   4.719   2.560  0.2208 -0.2837 -0.1079
  133RES    H6437288   3.115   4.818   3.056  0.3127 -0.0664 -0.5131
  133RES    H6537289   3.207   4.954   3.081  0.4686  1.1615 -1.3102
  133RES    H6637290   3.284   4.935   2.837 -2.4892  0.4880 -1.8809
  133RES    H6737291   3.129   4.683   2.845  0.3758 -0.9408 -0.0024
  133RES    H6837292   3.063   4.828   2.770  0.8865  1.1004 -0.0133
  133RES    H6937293   3.131   4.614   2.579 -1.8948  0.0015 -1.0009
  133RES    H7037294   3.206   4.727   2.465 -1.3674 -0.7918 -1.0390
  133RES    H7137295   3.064   4.779   2.556  0.6352  0.2888 -0.7796
  133RES    O7237296   3.354   4.774   2.954  0.0224  0.2068 -0.1021
  133RES    C7337297   3.460   4.734   2.865  0.1736  0.3148  0.6195
  133RES    C7437298   3.595   4.703   2.934  0.7476  0.1477 -0.2342
  133RES    C7537299   3.688   4.643   2.828 -0.5141 -0.7190 -0.1943
  133RES    O7637300   3.825   4.682   2.817  0.3078 -0.2470  0.2921
  133RES    C7737301   3.894   4.638   2.701 -0.2720  0.1009 -0.2183
  133RES    H7837302   3.422   4.643   2.818  0.8830  0.8489 -1.0249
  133RES    H7937303   3.484   4.803   2.784 -0.5505 -1.1912 -0.9014
  133RES    H8037304   3.647   4.793   2.968  0.9130 -0.6758  1.7632
  133RES    H8137305   3.652   4.671   2.729  0.4883  1.2392 -0.0384
  133RES    H8237306   3.682   4.534   2.832  2.3941 -0.8744  1.8397
  133RES    H8337307   3.997   4.640   2.736 -0.5365 -1.6020  0.7482
  133RES    H8437308   3.886   4.709   2.619 -0.3696  0.9801  0.5435
  133RES    H8537309   3.884   4.535   2.667 -0.8420 -0.2380  0.9339
  133RES    O8637310   3.586   4.615   3.041  0.1256  0.1911 -0.2753
  133RES    C8737311   3.606   4.672   3.166  0.2077  0.0581 -0.2327
  133RES    C8837312   3.749   4.713   3.195 -0.0257  0.0998 -0.5665
  133RES    C8937313   3.737   4.836   3.288  0.1075 -0.4116 -0.5292
  133RES    O9037314   3.866   4.890   3.331 -0.0478  0.0928 -0.6194
  133RES    C9137315   3.850   5.008   3.418  0.0696 -0.1614  0.1816
  133RES    H9237316   3.538   4.757   3.169  1.1675  0.8253 -0.3350
  133RES    H9337317   3.583   4.592   3.236 -3.0032  2.3359  1.4489
  133RES    H9437318   3.794   4.737   3.099 -0.5602  0.6468 -0.6858
  133RES    H9537319   3.679   4.915   3.239 -1.0309  0.0901  1.5630
  133RES    H9637320   3.680   4.798   3.373  1.8606 -0.0151  0.8511
  133RES    H9737321   3.923   5.086   3.399  0.6950 -0.9995 -0.9425
  133RES    H9837322   3.751   5.053   3.418 -1.2494 -2.9055  0.9749
  133RES    H9937323   3.860   4.965   3.518  0.5952  0.3720  0.3618
  133RES   O10037324   3.833   4.620   3.273  0.2433 -0.0917 -0.1310
  133RES   C10137325   3.862   4.501   3.197 -0.7629  0.2923  0.0445
  133RES   C10237326   3.951   4.514   3.074  0.3941 -0.5356  0.8727
  133RES   C10337327   3.982   4.381   3.003 -0.2129 -0.2583  0.0175
  133RES   O10437328   3.862   4.333   2.933  0.1427 -0.0983  0.2631
  133RES   C10537329   3.895   4.229   2.844  0.2304  0.1410  0.0391
  133RES   H10637330   3.766   4.464   3.159  0.3664 -0.7436 -1.9173
  133RES   H10737331   3.893   4.423   3.267 -1.5946 -0.7947 -0.7675
  133RES   H10837332   3.905   4.585   3.004  0.1819 -1.0278  0.5110
  133RES   H10937333   4.013   4.305   3.074  0.8243  0.5433  0.4449
  133RES   H11037334   4.068   4.401   2.937  0.2393 -1.0494  0.3663
  133RES   H11137335   3.948   4.272   2.759  1.5026  1.6754  1.5583
  133RES   H11237336   3.804   4.184   2.805 -0.7443  2.9900 -1.1448
  133RES   H11337337   3.958   4.165   2.906 -3.0894 -0.5153  2.8735
  133RES   O11437338   4.067   4.562   3.128  0.6592  0.2232  0.3241
  133RES   C11537339   4.105   4.687   3.074  0.1881  0.2021 -0.7092
  133RES   C11637340   4.216   4.751   3.159 -0.2694 -0.3454  0.2024
  133RES   C11737341   4.182   4.746   3.315  0.6631 -0.2735  0.5701
  133RES   O11837342   4.263   4.846   3.378 -0.2669  0.1059 -0.0619
  133RES   C11937343   4.226   4.858   3.505  0.1895 -0.1864  0.0297
  133RES   H12037344   4.121   4.662   2.969 -1.2103 -0.3488 -0.8110
  133RES   H12137345   4.020   4.755   3.075 -0.9924 -1.2516 -0.1246
  133RES   H12237346   4.231   4.858   3.142  0.8478 -0.5934 -0.3560
  133RES   H12337347   4.074   4.757   3.323  0.4679 -0.3520 -1.6357
  133RES   H12437348   4.203   4.642   3.343  0.6046 -0.4131  0.0901
  133RES   H12537349   4.280   4.944   3.545  1.0078 -0.1991 -1.0200
  133RES   H12637350   4.258   4.763   3.548  1.0145 -0.3973 -1.0311
  133RES   H12737351   4.118   4.869   3.517  0.0069 -1.2039 -0.6023
  133RES   O12837352   4.341   4.682   3.145  0.4511 -0.3713 -0.3147
  133RES   C12937353   4.405   4.695   3.023 -0.0096  0.2698  0.2591
  133RES   C13037354   4.516   4.801   3.036 -0.2530 -0.3209  0.8649
  133RES   C13137355   4.581   4.829   2.900  0.2696 -0.1667 -1.2449
  133RES   O13237356   4.683   4.925   2.920  0.0756 -0.0479 -0.9071
  133RES   C13337357   4.810   4.878   2.880  0.4735  0.0224 -0.1474
  133RES   H13437358   4.447   4.597   3.002 -0.8664 -0.0985  0.2726
  133RES   H13537359   4.337   4.716   2.941  0.6504  2.2270  0.1766
  133RES   H13637360   4.471   4.896   3.065 -0.8713  0.0466 -1.2136
  133RES   H13737361   4.504   4.862   2.830 -1.8081 -2.1713  0.0329
  133RES   H13837362   4.602   4.728   2.866 -0.9035 -0.7344 -0.2936
  133RES   H13937363   4.836   4.779   2.918  0.0772 -0.5283 -1.2822
  133RES   H14037364   4.806   4.871   2.771  0.0827  1.7107 -0.2531
  133RES   H14137365   4.892   4.947   2.902  2.2546 -1.0417 -3.0914
  133RES   O14237366   4.625   4.755   3.127  0.2683 -0.2106 -0.0456
  133RES   C14337367   4.595   4.786   3.264 -0.3812 -0.3235 -0.3758
  133RES   C14437368   4.720   4.820   3.337 -0.6703  1.3919  0.3778
  133RES   C14537369   4.712   4.788   3.485  0.5408  0.5357 -0.9686
  133RES   O14637370   4.843   4.771   3.542 -0.2069  0.4825 -0.1985
  133RES   C14737371   4.849   4.740   3.682  0.5229 -0.2493  0.9193
  133RES   H14837372   4.529   4.872   3.276  1.6432  1.4235 -1.3943
  133RES   H14937373   4.545   4.695   3.297 -0.8095 -1.2767 -3.5123
  133RES   H15037374   4.806   4.763   3.301 -1.7897 -0.3558  0.3825
  133RES   H15137375   4.674   4.688   3.503  0.8166  0.5214 -0.4625
  133RES   H15237376   4.635   4.852   3.529 -1.1198 -2.1506  0.1421
  133RES   H15337377   4.951   4.720   3.713 -0.0399 -0.5409  2.6114
  133RES   H15437378   4.785   4.657   3.713 -1.2557  1.2405  1.3406
  133RES   H15537379   4.819   4.832   3.731  2.1543  1.0652 -0.4816
  133RES   O15637380   4.737   4.955   3.332  0.2059  0.6159 -0.3062
  133RES   C15737381   4.819   5.008   3.228  0.3533  0.1997  0.2734
  133RES   C15837382   4.820   5.161   3.241  0.1026 -0.0783 -0.1669
  133RES   C15937383   4.862   5.224   3.106  0.2210 -0.0557 -0.6002
  133RES   O16037384   4.798   5.350   3.108 -0.1497  0.6259 -0.1208
  133RES   C16137385   4.890   5.458   3.128  0.8037 -0.5748  0.0948
  133RES   H16237386   4.922   4.972   3.233  0.6972  0.9316 -1.3952
  133RES   H16337387   4.776   4.967   3.136  2.0081 -0.3550 -0.2792
  133RES   H16437388   4.719   5.191   3.269  0.6402  2.2363 -0.6216
  133RES   H16537389   4.970   5.220   3.089  0.6189 -1.8763  2.0290
  133RES   H16637390   4.824   5.163   3.025 -1.1269  0.9515 -0.7316
  133RES   H16737391   4.929   5.458   3.229 -1.8869  0.2200  1.1806
  133RES   H16837392   4.846   5.557   3.115 -1.3398 -1.8663 -3.2312
  133RES   H16937393   4.975   5.453   3.060 -0.5117  0.2420 -1.6729
  133RES   O17037394   4.916   5.216   3.345  0.0025 -0.0947 -0.0555
  133RES   C17137395   4.864   5.227   3.471 -0.2453  0.9481  0.0976
  133RES   C17237396   4.964   5.289   3.576 -0.6536  0.2651  0.1578
  133RES   C17337397   4.909   5.296   3.716  0.6685  0.3831 -0.0130
  133RES   O17437398   4.992   5.247   3.812 -0.0913 -0.5043  0.1511
  133RES   C17537399   4.948   5.251   3.949  0.1914  0.1037 -0.0494
  133RES   H17637400   4.827   5.138   3.522  0.7468  0.3086 -0.2855
  133RES   H17737401   4.779   5.295   3.470 -0.5935  0.5385  1.6200
  133RES   H17837402   5.057   5.232   3.571 -0.4163  0.4885  1.7212
  133RES   H17937403   4.889   5.402   3.736 -1.1485 -0.1621  1.1817
  133RES   H18037404   4.817   5.238   3.719  1.4777 -0.8918  0.3163
  133RES   H18137405   4.841   5.270   3.936  0.2666  2.0161  1.9082
  133RES   H18237406   4.983   5.346   3.989  0.9643 -0.4309  0.5484
  133RES   H18337407   4.969   5.157   4.000  2.1051 -0.0955 -1.1415
  133RES   O18437408   4.983   5.420   3.526  0.1459  0.3702  0.0710
  133RES   C18537409   5.104   5.493   3.548  0.5915  0.0139  0.5285
  133RES   C18637410   5.102   5.622   3.458 -1.1294 -0.0170 -0.3205
  133RES   C18737411   4.966   5.695   3.455 -0.8978 -0.0904 -0.0527
  133RES   O18837412   4.972   5.838   3.419 -0.3824  0.3714  0.3331
  133RES   C18937413   4.964   5.851   3.273 -0.0138 -0.0570 -0.0052
  133RES   H19037414   5.190   5.428   3.535  0.1017 -0.8159  1.3565
  133RES   H19137415   5.105   5.512   3.656 -1.3295 -0.4623  0.6581
  133RES   H19237416   5.180   5.692   3.487 -0.4125 -1.1262  0.4462
  133RES   H19337417   4.932   5.715   3.557 -0.3957  4.2529 -0.6550
  133RES   H19437418   4.897   5.627   3.405  0.1990 -0.8090 -0.5866
  133RES   H19537419   4.868   5.827   3.229  0.6642 -0.6181 -1.2054
  133RES   H19637420   4.991   5.949   3.232  1.5460 -0.1230  0.8076
  133RES   H19737421   5.033   5.778   3.230 -0.9750 -0.0529 -1.5996
  133RES   O19837422   5.122   5.581   3.328  0.1131  0.2465  0.0175
  133RES   C19937423   5.230   5.498   3.297 -0.4425  0.3086 -0.5175
  133RES   C20037424   5.254   5.519   3.147  0.0347  0.4901  0.7914
  133RES   C20137425   5.264   5.387   3.056  0.1802 -0.4911  0.2328
  133RES   O20237426   5.216   5.408   2.922  0.1282 -0.2979  0.1779
  133RES   C20337427   5.311   5.468   2.829  0.5581  0.3707 -0.7376
  133RES   H20437428   5.188   5.397   3.306 -0.5747  0.4038 -0.0130
  133RES   H20537429   5.316   5.509   3.363 -1.4671  0.8631  0.7557
  133RES   H20637430   5.174   5.577   3.100 -0.3199 -2.4084 -2.4828
  133RES   H20737431   5.363   5.341   3.050  0.5512  0.3308  0.0280
  133RES   H20837432   5.193   5.322   3.107  0.8598 -0.0722  1.7430
  133RES   H20937433   5.248   5.494   2.744 -1.3189  1.5394  0.9712
  133RES   H21037434   5.376   5.386   2.798 -2.1702 -2.3332  0.4557
  133RES   H21137435   5.363   5.557   2.864  2.4082 -0.8731 -0.2708
  133RES   O21237436   5.375   5.584   3.135 -0.6480  0.4949 -0.1798
  133RES   C21337437   5.371   5.726   3.135 -0.0943 -0.3227  0.1715
  133RES   C21437438   5.509   5.807   3.143  0.5683  0.3513  0.2448
  133RES   C21537439   5.479   5.950   3.193 -0.4629 -0.9486 -1.1722
  133RES   O21637440   5.595   6.021   3.239 -0.4564  0.6104 -0.5317
  133RES   C21737441   5.598   6.157   3.206  0.4196 -0.0698  0.3182
  133RES   H21837442   5.325   5.751   3.231  0.5335  1.7133 -0.0403
  133RES   H21937443   5.308   5.764   3.055 -0.7858 -0.3577  0.6906
  133RES   H22037444   5.573   5.764   3.220  0.3825 -1.0209 -0.3520
  133RES   H22137445   5.421   6.009   3.122  0.4699  2.0995  0.5193
  133RES   H22237446   5.421   5.936   3.284  0.4402  0.3332 -0.3879
  133RES   H22337447   5.506   6.212   3.225  0.4850  0.5984 -1.1831
  133RES   H22437448   5.621   6.173   3.100  0.3603  0.4254  0.3788
  133RES   H22537449   5.687   6.192   3.257  1.5139  0.4180 -1.8706
  133RES   O22637450   5.558   5.817   3.009  0.5050  0.2332  0.6776
  133RES   C22737451   5.694   5.813   2.996  0.4663 -0.5312 -0.4430
  133RES   C22837452   5.736   5.809   2.844 -0.4005  0.0310  0.3859
  133RES   C22937453   5.867   5.730   2.826  0.1788  0.0386 -0.6643
  133RES   O23037454   5.899   5.726   2.689 -0.4213  0.4688 -0.1383
  133RES   C23137455   5.932   5.853   2.630  0.0012  0.4745 -0.0971
  133RES   H23237456   5.720   5.718   3.043 -0.1889 -1.0649 -1.1379
  133RES   H23337457   5.737   5.899   3.048 -1.1277  0.5997 -0.9520
  133RES   H23437458   5.744   5.915   2.821  1.6534 -0.0788  0.4966
  133RES   H23537459   5.848   5.627   2.853  1.5451 -0.4058 -1.3413
  133RES   H23637460   5.943   5.766   2.896 -0.9215  1.2143 -0.0471
  133RES   H23737461   6.020   5.829   2.570 -0.1613 -0.3548 -0.0119
  133RES   H23837462   5.951   5.935   2.699 -2.5263  1.0276 -0.0044
  133RES   H23937463   5.856   5.887   2.560 -0.7480 -2.1497 -0.6181
  133RES   O24037464   5.636   5.745   2.768  0.4690  0.3258 -0.7042
  133RES   C24137465   5.602   5.806   2.643  0.4617  0.0134  0.4367
  133RES   C24237466   5.456   5.778   2.610  0.2472  0.0048  0.1385
  133RES   C24337467   5.357   5.822   2.721  0.0277 -0.4378  0.2259
  133RES   O24437468   5.236   5.768   2.676  0.0713 -0.3231 -0.6334
  133RES   C24537469   5.129   5.789   2.766  0.1943 -0.5231  0.0872
  133RES   H24637470   5.664   5.754   2.571 -1.5662  0.4435 -1.6757
  133RES   H24737471   5.620   5.913   2.645 -0.3691  0.1677 -0.3521
  133RES   H24837472   5.437   5.673   2.593  0.5307 -0.3264  1.7935
  133RES   H24937473   5.398   5.785   2.815  0.6069 -0.0579  0.1248
  133RES   H25037474   5.338   5.929   2.725  0.9238 -0.2010 -1.1495
  133RES   H25137475   5.031   5.761   2.728 -1.2212  0.7361  2.6460
  133RES   H25237476   5.136   5.897   2.780  0.7948 -0.5194 -0.2601
  133RES   H25337477   5.146   5.736   2.860  1.0804  0.2294  0.3613
  133RES   O25437478   5.435   5.858   2.494 -0.6107 -0.4642  0.0476
  133RES   C25537479   5.457   5.792   2.371  0.2115  0.3716 -0.5260
  133RES   C25637480   5.418   5.891   2.252 -0.6330 -0.2451  0.5201
  133RES   C25737481   5.496   5.846   2.124 -0.1343 -0.1080 -0.8645
  133RES   O25837482   5.639   5.872   2.124 -0.1259  0.3140  0.0273
  133RES   C25937483   5.684   5.997   2.078 -0.0228 -0.2492 -0.2293
  133RES   H26037484   5.561   5.764   2.356 -0.5157 -0.6354 -4.3916
  133RES   H26137485   5.386   5.709   2.366  1.7482 -0.9344 -0.8183
  133RES   H26237486   5.458   5.989   2.279 -1.1388  0.2657 -0.5699
  133RES   H26337487   5.474   5.739   2.114  0.9941 -0.4680  0.3299
  133RES   H26437488   5.452   5.895   2.037 -0.9238  0.0382 -0.3905
  133RES   H26537489   5.641   6.009   1.978  0.4689  1.5403 -0.2263
  133RES   H26637490   5.792   5.994   2.070 -0.1943 -0.6050 -3.0567
  133RES   H26737491   5.646   6.080   2.137 -0.3320 -0.8206  0.3833
  133RES   O26837492   5.282   5.904   2.225 -0.2552  0.2565 -0.4738
  133RES   C26937493   5.217   5.964   2.333  0.0127 -0.2109 -0.4631
  133RES   C27037494   5.067   5.965   2.289  0.0123 -0.0466  0.6299
  133RES   C27137495   4.967   6.041   2.377 -0.1110  1.1030  0.2991
  133RES   O27237496   4.858   6.049   2.291 -0.1542  0.2176  0.0761
  133RES   C27337497   4.754   6.122   2.369 -0.2807  0.5670  0.4671
  133RES   H27437498   5.265   6.059   2.354 -0.3464 -0.0670 -0.2803
  133RES   H27537499   5.225   5.908   2.426  0.6389 -0.9705 -0.9741
  133RES   H27637500   5.057   6.012   2.192  0.9276  0.5567  0.8242
  133RES   H27737501   5.017   6.134   2.400 -0.1297  1.9590 -2.8424
  133RES   H27837502   4.949   5.981   2.466  0.2820  0.6679  0.0921
  133RES   H27937503   4.698   6.058   2.437  1.5585 -0.9976  0.5501
  133RES   H28037504   4.684   6.170   2.300 -0.5256 -2.1298 -1.2162
  133RES   H28137505   4.794   6.206   2.427  1.4860  0.2049 -0.1884
  133RES   H28237506   5.041   5.860   2.280  1.0127 -0.6406  3.8860
  134RES     O137507   2.626   6.600   5.097 -0.3256 -0.3766 -0.1117
  134RES     C237508   2.707   6.717   5.081  0.6705  0.4001  0.1939
  134RES     C337509   2.748   6.733   4.932  0.7820  0.6275 -0.1465
  134RES     C437510   2.766   6.882   4.891 -0.4357 -0.6401 -0.1347
  134RES     O537511   2.775   6.889   4.752 -0.2178 -0.3297 -0.0518
  134RES     C637512   2.752   7.017   4.707 -0.2825 -0.4974  1.1484
  134RES     H737513   2.656   6.807   5.115 -0.6282 -0.3491  0.3014
  134RES     H837514   2.798   6.705   5.139  1.6602  2.1670 -0.9611
  134RES     H937515   2.675   6.686   4.866  0.2875  0.4986  0.4902
  134RES    H1037516   2.856   6.931   4.929  1.2153 -2.6798 -1.2667
  134RES    H1137517   2.678   6.933   4.929 -0.2274 -1.1544  1.0523
  134RES    H1237518   2.818   7.081   4.766  1.4530  0.2122 -1.4710
  134RES    H1337519   2.788   7.016   4.604  2.7761  2.5019  2.0789
  134RES    H1437520   2.647   7.041   4.720 -0.8574 -0.9398 -2.2346
  134RES    H1537521   2.536   6.629   5.096 -0.5148 -0.9742 -0.2826
  134RES    O1637522   2.871   6.656   4.909 -0.2868 -0.5999 -0.1086
  134RES    C1737523   2.875   6.543   4.829  0.1938 -0.3575  0.1126
  134RES    C1837524   3.022   6.487   4.828 -0.6366  0.7617  0.2404
  134RES    C1937525   3.136   6.578   4.774  0.7588  0.0118 -0.6078
  134RES    O2037526   3.251   6.495   4.753 -0.2505 -0.5614 -0.5417
  134RES    C2137527   3.369   6.559   4.724 -0.7992 -0.3637  0.0910
  134RES    H2237528   2.847   6.551   4.724 -0.1965  4.0743  0.4630
  134RES    H2337529   2.809   6.475   4.883 -0.3959  1.0598  1.1956
  134RES    H2437530   3.007   6.397   4.767 -0.4203 -0.0737  1.3937
  134RES    H2537531   3.095   6.633   4.689  0.8424 -0.1907 -0.7799
  134RES    H2637532   3.159   6.658   4.844  0.0420  0.6935 -1.1369
  134RES    H2737533   3.360   6.623   4.636  1.7464 -0.3312 -0.1626
  134RES    H2837534   3.434   6.473   4.705  1.1112  1.4346 -1.6893
  134RES    H2937535   3.401   6.624   4.805  0.8316  1.1505 -1.7243
  134RES    O3037536   3.045   6.440   4.964  0.2732 -0.3008 -0.3126
  134RES    C3137537   3.106   6.315   4.980  0.6855  0.2303 -0.0358
  134RES    C3237538   3.118   6.263   5.119 -0.0382  0.0608 -0.0595
  134RES    C3337539   3.210   6.153   5.132  0.4931 -0.0960 -0.3822
  134RES    O3437540   3.339   6.189   5.152 -0.1505 -0.5364 -0.4026
  134RES    C3537541   3.431   6.087   5.155  0.2913 -0.2887  0.1863
  134RES    H3637542   3.059   6.236   4.921  1.4385  1.3953 -2.2938
  134RES    H3737543   3.202   6.316   4.928  0.2029 -0.0203 -0.9400
  134RES    H3837544   3.154   6.340   5.187  1.7716 -1.2300  0.4759
  134RES    H3937545   3.211   6.094   5.040 -0.2229  0.8050 -0.9665
  134RES    H4037546   3.176   6.088   5.213 -1.2286 -1.6814 -2.3362
  134RES    H4137547   3.522   6.115   5.209  0.3125 -0.9250  0.4928
  134RES    H4237548   3.447   6.037   5.060  1.9868  0.8662 -0.1547
  134RES    H4337549   3.380   6.012   5.216  0.6045 -0.5049  0.1821
  134RES    O4437550   2.989   6.220   5.172  0.0478 -0.2423 -0.4763
  134RES    C4537551   2.925   6.322   5.251 -0.0532  0.1035  0.0991
  134RES    C4637552   2.801   6.272   5.320  0.1439  0.2817 -0.3389
  134RES    C4737553   2.721   6.187   5.213  0.0356 -0.0722 -0.2542
  134RES    O4837554   2.582   6.171   5.252 -0.1267 -0.3618 -0.2223
  134RES    C4937555   2.494   6.279   5.226 -0.3865 -0.2872 -0.3335
  134RES    H5037556   2.895   6.401   5.182  0.5119 -0.4744 -0.8255
  134RES    H5137557   2.991   6.373   5.322 -0.6931 -1.3167  1.7243
  134RES    H5237558   2.741   6.356   5.354  0.6789  1.1517 -1.5373
  134RES    H5337559   2.749   6.209   5.110  0.8029  0.2860  0.0304
  134RES    H5437560   2.768   6.088   5.212  0.4383  0.0970  1.2562
  134RES    H5537561   2.390   6.247   5.232  0.1309 -2.0114 -0.1061
  134RES    H5637562   2.518   6.312   5.125  0.3385  0.6548  0.1454
  134RES    H5737563   2.500   6.363   5.295 -0.5776  0.3696 -1.1171
  134RES    O5837564   2.844   6.197   5.436 -0.1009  0.5910 -0.1326
  134RES    C5937565   2.747   6.179   5.539 -0.0088  0.4384 -0.5256
  134RES    C6037566   2.799   6.069   5.644 -0.0026 -0.7933  0.6717
  134RES    C6137567   2.756   5.924   5.606 -0.4295 -1.1164  0.2945
  134RES    O6237568   2.830   5.825   5.678  0.1883  0.1055 -0.0503
  134RES    C6337569   2.798   5.693   5.635 -0.2313  0.1881  0.0271
  134RES    H6437570   2.647   6.157   5.501 -0.8397 -0.5179  2.1249
  134RES    H6537571   2.740   6.271   5.596  2.2749  0.2055  0.2107
  134RES    H6637572   2.908   6.073   5.649 -0.0493 -0.9980  2.0871
  134RES    H6737573   2.649   5.905   5.614 -0.8993  1.1369 -0.1732
  134RES    H6837574   2.782   5.911   5.501 -1.3117  1.4777 -0.2806
  134RES    H6937575   2.764   5.683   5.532 -0.7398 -2.7074  0.4283
  134RES    H7037576   2.718   5.657   5.700 -2.0210  0.9805 -1.7098
  134RES    H7137577   2.887   5.630   5.639 -0.7120 -0.3769  2.6002
  134RES    O7237578   2.762   6.109   5.780  0.4437  0.1782 -0.4006
  134RES    C7337579   2.849   6.195   5.851 -0.0689  0.1851  0.3099
  134RES    C7437580   2.820   6.181   6.003  0.2907 -0.2556  0.1183
  134RES    C7537581   2.870   6.316   6.077 -0.4025  0.0435 -0.8689
  134RES    O7637582   2.992   6.375   6.030  0.1512  0.4280 -0.1363
  134RES    C7737583   3.104   6.289   6.065  0.1732  1.2121 -0.1179
  134RES    H7837584   2.952   6.168   5.828  0.1025  0.0354  1.2170
  134RES    H7937585   2.834   6.298   5.819 -0.2852 -0.1316 -0.6099
  134RES    H8037586   2.713   6.167   6.017  0.1451 -0.0673 -0.8106
  134RES    H8137587   2.877   6.308   6.185 -0.4164 -0.4133 -0.9017
  134RES    H8237588   2.784   6.381   6.063 -1.3486 -0.8883  0.5735
  134RES    H8337589   3.082   6.237   6.159  2.3807  0.3885 -0.0425
  134RES    H8437590   3.196   6.346   6.076  3.5654 -3.7161 -1.2570
  134RES    H8537591   3.122   6.210   5.993 -2.7269  2.7041 -2.5881
  134RES    O8637592   2.878   6.074   6.071  0.3192  0.2724 -0.1666
  134RES    C8737593   2.819   5.951   6.040 -0.2546 -0.7436  0.6081
  134RES    C8837594   2.899   5.832   6.090  0.2225 -0.5253  0.0214
  134RES    C8937595   2.814   5.707   6.105 -0.9818 -0.1770  0.0413
  134RES    O9037596   2.687   5.717   6.167  0.1985  0.0951  0.7238
  134RES    C9137597   2.590   5.621   6.122 -0.7827 -0.4154 -0.3121
  134RES    H9237598   2.712   5.940   6.060 -0.7797 -1.7151 -2.4557
  134RES    H9337599   2.828   5.942   5.932  1.6811  0.8869  0.5967
  134RES    H9437600   2.927   5.857   6.192 -2.2278  0.6892  0.4323
  134RES    H9537601   2.806   5.653   6.011 -1.6665 -0.6343  0.3582
  134RES    H9637602   2.872   5.632   6.158  0.9243 -0.5759 -2.5271
  134RES    H9737603   2.568   5.636   6.017  0.0806  1.0851 -0.2927
  134RES    H9837604   2.628   5.519   6.135 -1.8461 -0.9249 -1.1388
  134RES    H9937605   2.502   5.616   6.186 -0.4062 -3.2927  0.0726
  134RES   O10037606   3.005   5.807   6.008 -0.0307  0.2999  0.7038
  134RES   C10137607   3.112   5.886   6.020 -0.1797  0.1962  0.7842
  134RES   C10237608   3.227   5.850   5.916  0.1237  0.0657 -0.3371
  134RES   C10337609   3.160   5.851   5.777  0.3716  0.0940 -0.4692
  134RES   O10437610   3.257   5.869   5.671 -0.3182 -0.8571 -0.0951
  134RES   C10537611   3.192   5.843   5.551  0.4329  0.4472  0.0696
  134RES   H10637612   3.147   5.873   6.123  3.1619 -1.0539 -0.4402
  134RES   H10737613   3.091   5.992   6.004  0.2588 -0.0918 -1.8953
  134RES   H10837614   3.304   5.927   5.924  0.5867 -0.5422  1.2267
  134RES   H10937615   3.084   5.926   5.758 -1.8216 -2.3861 -1.7983
  134RES   H11037616   3.113   5.753   5.783 -0.7415  0.7883  3.6300
  134RES   H11137617   3.268   5.827   5.474 -0.0633  0.9832 -0.5303
  134RES   H11237618   3.130   5.932   5.539  2.2287  2.2424  3.4141
  134RES   H11337619   3.120   5.761   5.548  1.3555 -0.3288 -2.4282
  134RES   O11437620   3.285   5.725   5.951  0.2152  0.4469 -0.0070
  134RES   C11537621   3.401   5.683   5.873  0.6221 -0.4732 -0.2656
  134RES   C11637622   3.471   5.547   5.916 -0.0514 -0.3454  0.3058
  134RES   C11737623   3.573   5.500   5.808  0.0201 -0.0244  0.3280
  134RES   O11837624   3.650   5.609   5.753  0.3621 -0.4643  0.4014
  134RES   C11937625   3.680   5.587   5.618 -0.0223  0.2665 -0.3180
  134RES   H12037626   3.367   5.673   5.770 -0.3702  0.9137 -0.0956
  134RES   H12137627   3.471   5.767   5.881  0.3034 -0.0795 -1.5560
  134RES   H12237628   3.395   5.469   5.926  1.0532 -1.5591 -0.6242
  134RES   H12337629   3.633   5.415   5.844 -2.0970 -1.0987  1.3799
  134RES   H12437630   3.515   5.462   5.724  0.5089  0.5208 -0.2577
  134RES   H12537631   3.720   5.488   5.596  0.9379  0.4055  0.7569
  134RES   H12637632   3.749   5.663   5.584 -1.2837  1.7093  0.2779
  134RES   H12737633   3.590   5.590   5.557  0.5130 -1.5046 -1.2318
  134RES   O12837634   3.545   5.575   6.039 -0.1648 -0.3666  0.1354
  134RES   C12937635   3.576   5.449   6.108  0.3197  0.6208  0.2088
  134RES   C13037636   3.623   5.469   6.254  0.6971 -0.6071 -0.5673
  134RES   C13137637   3.706   5.350   6.307  0.0223 -0.1324  0.1440
  134RES   O13237638   3.830   5.338   6.230  0.1305 -0.6375 -0.3145
  134RES   C13337639   3.941   5.401   6.299  0.0952  0.2612 -0.0400
  134RES   H13437640   3.488   5.386   6.105 -1.4756  2.9981  1.3364
  134RES   H13537641   3.653   5.401   6.048 -1.5883  0.1519 -1.9168
  134RES   H13637642   3.686   5.558   6.254  2.0073 -1.4979  1.0350
  134RES   H13737643   3.648   5.262   6.278  0.9330 -1.2055  1.4880
  134RES   H13837644   3.725   5.342   6.415 -0.9665  1.8906  0.4963
  134RES   H13937645   3.950   5.355   6.397 -2.3786  0.3608  0.2740
  134RES   H14037646   4.041   5.390   6.257  0.5566  0.7067  0.9431
  134RES   H14137647   3.923   5.507   6.311 -0.1948  0.2811 -0.6078
  134RES   O14237648   3.524   5.493   6.349  0.8312  0.5475  0.7338
  134RES   C14337649   3.452   5.615   6.342 -0.7994  0.6122 -0.0699
  134RES   C14437650   3.314   5.609   6.411  0.3411  0.2432  0.1495
  134RES   C14537651   3.332   5.579   6.562 -0.4541 -0.2102  0.2082
  134RES   O14637652   3.219   5.606   6.643  0.0519  0.6233  0.0896
  134RES   C14737653   3.247   5.599   6.783 -0.1680  0.1640 -0.0785
  134RES   H14837654   3.508   5.701   6.379  0.9524 -0.6431  0.2626
  134RES   H14937655   3.427   5.647   6.241 -0.2535  0.6818 -0.1862
  134RES   H15037656   3.260   5.704   6.401  0.6052  0.2005 -1.7282
  134RES   H15137657   3.408   5.638   6.613  0.0066 -1.4681  1.0030
  134RES   H15237658   3.375   5.480   6.578 -1.4718 -0.7164 -0.1324
  134RES   H15337659   3.282   5.499   6.809  0.5839  0.2907 -0.5795
  134RES   H15437660   3.148   5.614   6.826 -0.2945  0.7786 -0.5807
  134RES   H15537661   3.327   5.662   6.824  0.0279  0.0779 -0.3298
  134RES   O15637662   3.242   5.499   6.359  0.7001 -0.0287 -0.4209
  134RES   C15737663   3.171   5.515   6.240 -0.5052 -0.7154  0.1033
  134RES   C15837664   3.137   5.378   6.174 -0.1587 -0.0936  0.5600
  134RES   C15937665   3.082   5.411   6.032 -0.1076  0.2140  0.3196
  134RES   O16037666   3.097   5.293   5.949  0.2956  0.1736  0.1535
  134RES   C16137667   3.069   5.316   5.816  0.3229  0.2755 -1.0162
  134RES   H16237668   3.071   5.551   6.265 -1.0184 -2.4936  0.7396
  134RES   H16337669   3.221   5.584   6.173 -1.2001  0.3413  0.6690
  134RES   H16437670   3.224   5.314   6.180 -0.1716 -0.1818 -0.1481
  134RES   H16537671   2.975   5.433   6.039 -0.2814 -1.1692  2.6500
  134RES   H16637672   3.150   5.486   5.991  1.0929 -0.6781  0.6711
  134RES   H16737673   3.131   5.395   5.773 -0.2488  0.0792 -2.2295
  134RES   H16837674   2.967   5.345   5.791  0.3388  0.9225 -0.3738
  134RES   H16937675   3.093   5.217   5.777 -0.9377 -0.6405  0.4696
  134RES   O17037676   3.030   5.319   6.249 -0.5247  0.3069 -0.1702
  134RES   C17137677   2.982   5.188   6.214 -0.1465 -0.2604 -0.1021
  134RES   C17237678   2.889   5.137   6.330  0.2539 -0.6496  0.2181
  134RES   C17337679   2.827   4.999   6.303 -0.1701 -0.1364  0.2428
  134RES   O17437680   2.799   4.941   6.435 -0.3172  0.2736  0.5217
  134RES   C17537681   2.747   4.812   6.414  0.1477  0.0418 -0.0482
  134RES   H17637682   3.074   5.132   6.199  0.5244  1.1478 -1.3509
  134RES   H17737683   2.924   5.192   6.122 -0.2585  1.7886  0.0350
  134RES   H17837684   2.946   5.137   6.424 -0.8272 -0.2758  0.8781
  134RES   H17937685   2.744   4.991   6.234  1.2477  0.4433 -1.5718
  134RES   H18037686   2.900   4.940   6.248 -0.1232  0.3734 -0.2478
  134RES   H18137687   2.796   4.757   6.333  0.4090  1.8218 -1.1297
  134RES   H18237688   2.640   4.814   6.394 -0.7045  0.6449  4.1096
  134RES   H18337689   2.774   4.760   6.506  2.9936  2.3126  0.4715
  134RES   O18437690   2.770   5.222   6.335  0.3480 -0.0715  0.0715
  134RES   C18537691   2.719   5.244   6.466  0.2488 -1.0741 -0.4749
  134RES   C18637692   2.610   5.358   6.464 -0.5336  0.4021 -0.5077
  134RES   C18737693   2.497   5.322   6.372  0.1297  0.3312 -0.4274
  134RES   O18837694   2.386   5.401   6.405 -1.1147 -0.8773 -0.2096
  134RES   C18937695   2.273   5.388   6.315  0.2253  0.1152  0.4905
  134RES   H19037696   2.796   5.269   6.540 -0.2243  2.6119 -1.1154
  134RES   H19137697   2.663   5.160   6.505 -0.6773  0.1769  0.9678
  134RES   H19237698   2.563   5.365   6.562 -0.7963 -1.1934 -0.5029
  134RES   H19337699   2.458   5.226   6.407  0.3372  0.0135 -1.0496
  134RES   H19437700   2.520   5.323   6.265 -1.9960  1.5839 -0.8915
  134RES   H19537701   2.211   5.307   6.354 -1.1158  0.5000 -0.7616
  134RES   H19637702   2.209   5.477   6.318 -2.1305 -1.3113 -3.1244
  134RES   H19737703   2.300   5.388   6.209 -0.6990  0.4155  0.2487
  134RES   O19837704   2.671   5.481   6.432  0.0612  0.7731 -0.3565
  134RES   C19937705   2.789   5.517   6.503 -0.2126  0.1329  0.3914
  134RES   C20037706   2.806   5.666   6.493 -0.0034 -0.0651  0.1146
  134RES   C20137707   2.916   5.716   6.587 -0.0439  0.4121 -0.2186
  134RES   O20237708   2.960   5.844   6.554  0.4868 -0.3045 -0.2902
  134RES   C20337709   3.052   5.891   6.656 -0.2527 -0.1449 -0.4304
  134RES   H20437710   2.881   5.471   6.466  1.4181  1.9137  2.0783
  134RES   H20537711   2.784   5.482   6.606  0.1785 -1.0363  0.0278
  134RES   H20637712   2.821   5.695   6.390  1.5926  2.1829  0.9480
  134RES   H20737713   2.886   5.703   6.691  1.7718 -1.5817  0.0978
  134RES   H20837714   3.001   5.656   6.556 -0.4198 -0.3343  0.1618
  134RES   H20937715   3.075   5.997   6.643 -1.7118  0.2216 -0.0716
  134RES   H21037716   3.143   5.831   6.655 -0.4786 -0.5335 -3.3468
  134RES   H21137717   3.005   5.880   6.753  2.1041  1.9828  1.0341
  134RES   O21237718   2.681   5.729   6.525 -0.4270 -0.0949  0.6725
  134RES   C21337719   2.657   5.855   6.477 -0.2081 -0.2436  0.5159
  134RES   C21437720   2.516   5.906   6.509  0.1168  0.3872  0.6795
  134RES   C21537721   2.418   5.897   6.388 -0.5867  0.2379 -0.4078
  134RES   O21637722   2.285   5.932   6.413 -0.0545 -0.0576  0.5307
  134RES   C21737723   2.214   5.848   6.509 -0.4814  1.1969 -0.4347
  134RES   H21837724   2.674   5.864   6.369 -1.2531  0.0588  0.3690
  134RES   H21937725   2.723   5.921   6.534 -0.3009 -0.6558  1.1049
  134RES   H22037726   2.478   5.843   6.589 -2.5849  0.3109 -0.5880
  134RES   H22137727   2.465   5.960   6.313  0.7098 -0.5588 -0.2988
  134RES   H22237728   2.425   5.793   6.355  3.0473  0.0952  0.5511
  134RES   H22337729   2.109   5.873   6.518 -0.1354  1.8544  2.2232
  134RES   H22437730   2.250   5.853   6.612  0.0928 -0.8632 -0.5042
  134RES   H22537731   2.229   5.742   6.487  1.0699  1.1411  0.7629
  134RES   O22637732   2.531   6.050   6.537  0.3397 -0.5487 -0.1297
  134RES   C22737733   2.439   6.104   6.633  0.1365 -0.0577 -0.5857
  134RES   C22837734   2.507   6.212   6.727  0.2299  0.2367  0.2694
  134RES   C22937735   2.403   6.308   6.786 -0.1794 -0.1302 -0.1814
  134RES   O23037736   2.290   6.237   6.843  0.5319 -0.8474  0.0614
  134RES   C23137737   2.201   6.326   6.914 -0.2987  0.3244 -0.2196
  134RES   H23237738   2.396   6.023   6.692  0.7472 -0.0160 -0.0696
  134RES   H23337739   2.359   6.161   6.586  1.0144  1.7686  0.0892
  134RES   H23437740   2.561   6.277   6.658 -0.2248 -0.5323 -0.8213
  134RES   H23537741   2.367   6.383   6.715  0.3149 -1.4329 -1.8361
  134RES   H23637742   2.452   6.375   6.857 -0.1839 -0.3671  0.0451
  134RES   H23737743   2.142   6.271   6.987 -1.6528  2.4914  0.3613
  134RES   H23837744   2.149   6.400   6.852 -2.1795 -1.2098 -0.5243
  134RES   H23937745   2.268   6.385   6.977 -0.7301 -0.5915  1.1088
  134RES   O24037746   2.598   6.163   6.819 -0.7314  0.2393 -0.5043
  134RES   C24137747   2.559   6.138   6.954  0.1342 -0.1099  0.3633
  134RES   C24237748   2.665   6.041   7.001  0.0737  0.6683  0.7761
  134RES   C24337749   2.683   5.925   6.904  0.1015 -0.0270  1.2232
  134RES   O24437750   2.746   5.817   6.969  0.5722  0.1442  0.7044
  134RES   C24537751   2.647   5.725   7.017  0.0607 -0.0808  1.0831
  134RES   H24637752   2.459   6.098   6.971  0.4257 -0.3691  1.5541
  134RES   H24737753   2.558   6.228   7.016 -0.5991 -0.3011  0.6249
  134RES   H24837754   2.632   6.002   7.097  0.1978  0.1161  0.5949
  134RES   H24937755   2.588   5.909   6.853  1.6562  0.7958 -2.0731
  134RES   H25037756   2.745   5.959   6.821  1.5188 -0.7647  1.9615
  134RES   H25137757   2.575   5.776   7.081 -0.4462  0.2088  0.2890
  134RES   H25237758   2.699   5.659   7.086 -0.1291 -1.4636 -0.0940
  134RES   H25337759   2.595   5.669   6.939 -2.9854  1.3578  2.0060
  134RES   O25437760   2.797   6.089   7.007  0.3988 -0.0759  0.0016
  134RES   C25537761   2.833   6.142   7.139 -0.0090  0.0008  0.5011
  134RES   C25637762   2.984   6.176   7.151 -0.5662 -0.5396 -0.5802
  134RES   C25737763   3.006   6.314   7.071  0.0864 -0.2165 -0.2592
  134RES   O25837764   3.147   6.331   7.051 -0.2907  0.5845 -0.0710
  134RES   C25937765   3.178   6.465   7.013 -0.3641  0.3316 -0.6052
  134RES   H26037766   2.769   6.222   7.177  2.0663  3.2405 -2.5027
  134RES   H26137767   2.809   6.059   7.206 -1.7395 -1.3516 -1.7130
  134RES   H26237768   3.047   6.104   7.099  0.5045  0.2989 -0.4486
  134RES   H26337769   2.955   6.292   6.977 -0.9218  1.8809 -0.2353
  134RES   H26437770   2.957   6.400   7.117  0.8785 -0.2093  0.5860
  134RES   H26537771   3.285   6.466   6.991 -0.5242 -0.7375 -1.4521
  134RES   H26637772   3.173   6.527   7.103 -2.3564  0.2963 -0.6692
  134RES   H26737773   3.107   6.508   6.943 -4.1444 -0.2576  2.6817
  134RES   O26837774   3.023   6.180   7.289  0.5919 -0.6182 -0.0652
  134RES   C26937775   3.154   6.152   7.316 -0.6730 -0.2479 -0.1509
  134RES   C27037776   3.200   6.243   7.429 -0.8193  0.5056  0.6080
  134RES   C27137777   3.213   6.385   7.375 -0.1085 -0.3619  0.2729
  134RES   O27237778   3.246   6.483   7.469 -0.2937  0.5668  0.6094
  134RES   C27337779   3.312   6.445   7.587 -0.4926 -0.0948 -0.6647
  134RES   H27437780   3.225   6.158   7.234  1.1990 -1.6731  1.3303
  134RES   H27537781   3.162   6.045   7.337 -0.7600 -0.0999  0.6797
  134RES   H27637782   3.122   6.237   7.505 -1.9263 -1.4533 -0.6330
  134RES   H27737783   3.123   6.416   7.322  0.8165  0.3479 -0.9194
  134RES   H27837784   3.293   6.386   7.301 -0.4820  0.9428 -0.1166
  134RES   H27937785   3.326   6.535   7.647 -1.7766 -0.9867  1.0284
  134RES   H28037786   3.416   6.421   7.566  0.1199  2.1926 -0.4236
  134RES   H28137787   3.264   6.368   7.648  0.5959  1.7014  2.6058
  134RES   H28237788   3.291   6.205   7.474 -2.1579 -2.8788  0.6481
  135RES     O137789   3.500   5.178   4.267  0.6609  0.2379 -0.2415
  135RES     C237790   3.491   5.042   4.280 -0.4849  0.7950  0.0008
  135RES     C337791   3.627   5.000   4.279 -0.1851 -0.1636  0.1975
  135RES     C437792   3.643   4.859   4.327  0.0730 -0.1861 -0.1203
  135RES     O537793   3.777   4.844   4.369 -0.2684 -0.3635 -0.7451
  135RES     C637794   3.821   4.712   4.396  0.1311  0.1707 -0.3717
  135RES     H737795   3.455   5.032   4.382 -2.1091 -1.6738 -0.7753
  135RES     H837796   3.422   4.990   4.214 -0.9148  0.4385  0.7278
  135RES     H937797   3.697   5.057   4.341  1.1086 -0.0085 -1.3672
  135RES    H1037798   3.624   4.792   4.243 -1.6612  0.3473 -0.1702
  135RES    H1137799   3.576   4.819   4.403 -0.6056 -2.9005 -2.0344
  135RES    H1237800   3.927   4.710   4.421 -0.3519 -1.0649  1.7768
  135RES    H1337801   3.764   4.677   4.482 -0.7047  1.9117 -0.2001
  135RES    H1437802   3.794   4.660   4.304 -1.4624 -0.3526  0.3641
  135RES    H1537803   3.540   5.193   4.182 -0.2110  0.5256 -0.6150
  135RES    O1637804   3.668   5.011   4.142 -0.4509  0.3408 -0.1215
  135RES    C1737805   3.805   5.028   4.128  0.7542 -0.5115 -0.5641
  135RES    C1837806   3.843   5.049   3.976  0.5126 -0.4651 -0.5571
  135RES    C1937807   3.990   5.084   3.954 -0.5867 -0.5402 -0.1735
  135RES    O2037808   4.018   5.099   3.818  0.8504  0.2715 -0.5922
  135RES    C2137809   4.155   5.106   3.783 -0.2512  0.2901 -0.1439
  135RES    H2237810   3.855   4.941   4.171 -0.7640  0.6454  3.7350
  135RES    H2337811   3.834   5.114   4.188  2.8710 -1.3218 -0.3747
  135RES    H2437812   3.781   5.123   3.926  0.0751  0.0431  0.7175
  135RES    H2537813   4.024   5.172   4.009  0.7239 -0.9604 -0.2886
  135RES    H2637814   4.056   5.007   3.996 -0.2949 -0.2983 -0.1871
  135RES    H2737815   4.207   5.197   3.814  0.1891  0.0772 -0.2599
  135RES    H2837816   4.164   5.109   3.675 -1.8477  3.9714 -0.2530
  135RES    H2937817   4.204   5.014   3.814  0.5247  0.6449 -0.3310
  135RES    O3037818   3.827   4.937   3.894 -0.1080 -0.3838  0.6278
  135RES    C3137819   3.698   4.869   3.902  0.3225  0.1991  0.3462
  135RES    C3237820   3.681   4.795   3.770  0.9023  0.2583  0.2149
  135RES    C3337821   3.543   4.733   3.756  0.0051  0.2891 -0.6493
  135RES    O3437822   3.534   4.658   3.631 -0.3411  0.4880  0.8216
  135RES    C3537823   3.405   4.597   3.625 -0.0074  0.3879 -0.1300
  135RES    H3637824   3.699   4.806   3.990 -1.3209  1.4200  1.2553
  135RES    H3737825   3.623   4.946   3.919 -0.9534 -1.4618  2.4687
  135RES    H3837826   3.707   4.860   3.687 -0.2980 -0.7796 -0.9961
  135RES    H3937827   3.459   4.802   3.772  0.2266  0.3106  0.4949
  135RES    H4037828   3.523   4.665   3.839 -0.1790  1.0260 -0.0900
  135RES    H4137829   3.314   4.656   3.637  0.8954  1.6279  0.7702
  135RES    H4237830   3.408   4.526   3.707 -1.2807  0.1864 -0.2588
  135RES    H4337831   3.413   4.551   3.527  0.3495  1.1729 -0.4804
  135RES    O4437832   3.769   4.685   3.753 -0.0737  0.9122  0.0852
  135RES    C4537833   3.899   4.699   3.696 -0.1834  0.4673  0.1783
  135RES    C4637834   3.964   4.561   3.708  0.4861 -0.5077  0.0481
  135RES    C4737835   4.035   4.525   3.573 -0.5642 -0.4408 -0.4771
  135RES    O4837836   4.083   4.389   3.581  0.0902  0.0017  0.7365
  135RES    C4937837   4.139   4.344   3.462  0.3040 -0.4698 -0.2445
  135RES    H5037838   3.953   4.782   3.742 -0.3399  0.2564  0.7466
  135RES    H5137839   3.873   4.722   3.593 -0.2345  0.3267  0.1591
  135RES    H5237840   3.894   4.478   3.714  1.5122 -1.6266 -2.5156
  135RES    H5337841   3.965   4.532   3.490 -1.4561  1.3298  0.3813
  135RES    H5437842   4.117   4.595   3.558 -0.6913  0.4781  2.7011
  135RES    H5537843   4.243   4.376   3.460  0.4360 -0.9223 -0.8902
  135RES    H5637844   4.082   4.372   3.374 -2.8947 -0.3099  1.7663
  135RES    H5737845   4.159   4.237   3.465  0.0280 -0.6845 -4.1701
  135RES    O5837846   4.075   4.569   3.801  0.3113 -0.4034 -0.3829
  135RES    C5937847   4.038   4.599   3.930  0.5271  0.1617  0.2397
  135RES    C6037848   4.153   4.543   4.019  0.4551  0.4065 -0.2767
  135RES    C6137849   4.168   4.393   4.024 -0.7970  0.3758  0.2667
  135RES    O6237850   4.259   4.353   4.124 -0.5963 -0.7002 -0.1986
  135RES    C6337851   4.238   4.217   4.171 -0.1846  0.0920  0.4695
  135RES    H6437852   3.946   4.552   3.965  0.6964  1.0523  1.9412
  135RES    H6537853   4.018   4.705   3.945 -2.0781 -0.3501  0.6144
  135RES    H6637854   4.247   4.583   3.982  0.8264  0.5418  0.8035
  135RES    H6737855   4.073   4.340   4.031 -0.8671  0.2975 -1.0543
  135RES    H6837856   4.187   4.344   3.928  0.6372  0.5748  0.4348
  135RES    H6937857   4.233   4.136   4.098 -0.3875  1.5675 -1.1877
  135RES    H7037858   4.147   4.223   4.231 -1.7544  0.7875 -1.9130
  135RES    H7137859   4.317   4.199   4.244 -1.1752  0.7915  1.7374
  135RES    O7237860   4.122   4.588   4.155 -0.2065 -0.0161  0.2758
  135RES    C7337861   4.164   4.721   4.190  0.1258 -0.2550  1.1795
  135RES    C7437862   4.263   4.710   4.310  0.6134  0.1303 -0.1898
  135RES    C7537863   4.255   4.580   4.392  0.4174  0.5208 -0.1240
  135RES    O7637864   4.344   4.589   4.499  0.3348 -0.2410  0.1384
  135RES    C7737865   4.329   4.478   4.586 -0.1390  0.2630  0.2043
  135RES    H7837866   4.185   4.795   4.113 -1.5069  1.2760  2.1525
  135RES    H7937867   4.068   4.746   4.236 -1.0117 -0.3401 -1.0697
  135RES    H8037868   4.366   4.724   4.277  0.6094 -0.8112 -0.5963
  135RES    H8137869   4.295   4.493   4.340  1.4489 -0.2752  1.9744
  135RES    H8237870   4.154   4.549   4.421 -0.5545  1.9620 -1.7898
  135RES    H8337871   4.377   4.396   4.531 -1.5074  1.6221 -3.1491
  135RES    H8437872   4.227   4.447   4.608 -0.4542 -0.1049 -1.6811
  135RES    H8537873   4.391   4.483   4.676  0.1395 -0.9760  0.0879
  135RES    O8637874   4.224   4.813   4.392  0.0833  0.6929 -0.0226
  135RES    C8737875   4.265   4.939   4.360  0.1372 -0.0652 -0.9673
  135RES    C8837876   4.385   4.996   4.443  0.2344 -0.8154  0.3808
  135RES    C8937877   4.378   4.973   4.591 -0.5129  0.2149 -0.4944
  135RES    O9037878   4.488   5.025   4.654 -0.2038 -0.0810  0.6243
  135RES    C9137879   4.462   5.133   4.747  0.4711  0.0397  0.6207
  135RES    H9237880   4.296   4.951   4.256  0.7428  2.2254 -0.5448
  135RES    H9337881   4.178   5.002   4.376  1.9814  2.2215  0.4451
  135RES    H9437882   4.387   5.101   4.415 -0.3513 -1.5191 -2.4215
  135RES    H9537883   4.283   5.013   4.626 -0.6959 -0.6423  0.0244
  135RES    H9637884   4.366   4.866   4.612  2.1069  0.0962  0.5459
  135RES    H9737885   4.562   5.167   4.773  0.3361  2.1000 -1.3798
  135RES    H9837886   4.405   5.215   4.702 -1.4526 -1.7277 -0.2538
  135RES    H9937887   4.410   5.099   4.837  0.4159 -2.5267 -0.3309
  135RES   O10037888   4.500   4.932   4.394  0.2046 -0.5539  0.3103
  135RES   C10137889   4.618   5.014   4.370  0.2968  0.3286  0.9427
  135RES   C10237890   4.733   4.930   4.302  0.6602  0.3664  0.1553
  135RES   C10337891   4.863   5.007   4.322 -0.9885  0.7988  0.1286
  135RES   O10437892   4.975   4.919   4.294 -0.0282  0.2359  0.4313
  135RES   C10537893   5.091   4.957   4.367  0.5217  0.3834  0.4975
  135RES   H10637894   4.659   5.069   4.455  1.3102  1.1227 -0.0618
  135RES   H10737895   4.585   5.095   4.305  1.5611  0.1784  0.1057
  135RES   H10837896   4.754   4.830   4.340  0.6441  0.7984  1.3189
  135RES   H10937897   4.871   5.047   4.423  1.0856 -1.5704  0.9399
  135RES   H11037898   4.866   5.092   4.254  0.5077 -0.0099 -0.8307
  135RES   H11137899   5.078   4.920   4.469  0.5331  0.5829  0.5728
  135RES   H11237900   5.120   5.062   4.379  0.9477  0.0570  2.6784
  135RES   H11337901   5.180   4.902   4.337 -0.3402 -0.5405 -0.3894
  135RES   O11437902   4.701   4.931   4.160  0.5978  0.0188  0.8514
  135RES   C11537903   4.587   4.843   4.124 -0.3215 -0.3660 -0.3050
  135RES   C11637904   4.578   4.835   3.974 -0.1698  0.9391  0.5062
  135RES   C11737905   4.494   4.718   3.919 -0.5131  0.3007  0.4596
  135RES   O11837906   4.512   4.696   3.779  0.6409  0.0706 -0.1315
  135RES   C11937907   4.419   4.588   3.739  0.0895 -0.4290  0.2204
  135RES   H12037908   4.603   4.744   4.168 -2.4534  0.0408  1.4603
  135RES   H12137909   4.492   4.883   4.158 -1.3676 -0.6221 -2.8039
  135RES   H12237910   4.680   4.818   3.941  0.3849  0.0629  2.5481
  135RES   H12337911   4.522   4.626   3.970 -0.0014 -0.1339 -0.6060
  135RES   H12437912   4.394   4.750   3.950 -1.0115 -0.2700 -0.5390
  135RES   H12537913   4.412   4.501   3.804  0.0719 -0.9859 -0.5240
  135RES   H12637914   4.442   4.556   3.638  1.5012 -1.2009  0.7657
  135RES   H12737915   4.315   4.619   3.738 -0.2539 -1.5485 -2.1142
  135RES   O12837916   4.518   4.948   3.914 -0.1607  0.4416 -0.5281
  135RES   C12937917   4.602   5.062   3.892 -0.1569  0.1678 -0.0603
  135RES   C13037918   4.528   5.160   3.800 -0.0307 -0.2490  0.2135
  135RES   C13137919   4.527   5.119   3.654 -0.5737  0.5535 -0.1901
  135RES   O13237920   4.448   5.208   3.577  0.0655 -0.5581 -0.2554
  135RES   C13337921   4.441   5.172   3.440 -0.1387 -0.0155 -0.7583
  135RES   H13437922   4.640   5.099   3.988  0.4751 -0.3986 -0.0918
  135RES   H13537923   4.685   5.022   3.834 -0.6194 -0.5995 -0.1905
  135RES   H13637924   4.421   5.171   3.816  0.3541  2.4570  1.2079
  135RES   H13737925   4.487   5.018   3.647  0.7386 -0.0865  1.0959
  135RES   H13837926   4.631   5.109   3.622 -0.8183  0.3695 -0.9214
  135RES   H13937927   4.368   5.092   3.428  0.3820 -0.2299 -2.6583
  135RES   H14037928   4.387   5.253   3.392  0.3685  0.1826 -1.0058
  135RES   H14137929   4.538   5.150   3.394 -0.6984 -1.7938 -1.0879
  135RES   O14237930   4.590   5.286   3.805  0.0680  0.0993  0.1782
  135RES   C14337931   4.537   5.375   3.907  0.6046  0.1054  0.4501
  135RES   C14437932   4.600   5.518   3.912  0.2370  0.3351  0.5513
  135RES   C14537933   4.545   5.591   4.034 -0.2038  0.7123  0.4776
  135RES   O14637934   4.635   5.680   4.092 -0.2503  0.1916  0.0489
  135RES   C14737935   4.570   5.795   4.164 -0.0373  0.2997 -0.5346
  135RES   H14837936   4.433   5.396   3.884  0.4530 -0.3018  0.7500
  135RES   H14937937   4.547   5.346   4.012  1.0795 -1.3418  0.0137
  135RES   H15037938   4.708   5.522   3.922  0.1639 -0.4642  1.7752
  135RES   H15137939   4.503   5.535   4.117  0.5568  0.5869  0.7814
  135RES   H15237940   4.450   5.631   3.998  0.1453 -0.0759 -1.4097
  135RES   H15337941   4.500   5.741   4.228  1.2865 -2.2213 -1.1566
  135RES   H15437942   4.502   5.850   4.100 -0.4996 -0.3164 -0.5694
  135RES   H15537943   4.637   5.858   4.223 -1.8928  0.5455  1.3717
  135RES   O15637944   4.553   5.591   3.797 -0.3956 -0.3813 -0.1597
  135RES   C15737945   4.615   5.554   3.675  0.4780 -0.7637  0.0372
  135RES   C15837946   4.580   5.655   3.559  0.4852 -0.5076  0.4087
  135RES   C15937947   4.586   5.600   3.419 -0.1057 -0.3821 -0.4554
  135RES   O16037948   4.472   5.626   3.340  0.1632 -0.5590 -0.0827
  135RES   C16137949   4.482   5.547   3.218  1.1140 -0.3683 -0.6084
  135RES   H16237950   4.722   5.564   3.694  0.0309  4.2362  0.5945
  135RES   H16337951   4.585   5.454   3.643 -2.3615 -0.2543  1.0065
  135RES   H16437952   4.480   5.690   3.586  0.1608 -1.0004 -0.1474
  135RES   H16537953   4.676   5.631   3.367  2.0819 -2.6969  1.8305
  135RES   H16637954   4.590   5.491   3.426 -0.9280 -0.3859  0.1109
  135RES   H16737955   4.459   5.445   3.248 -2.8322  0.5540 -0.2170
  135RES   H16837956   4.583   5.554   3.176  1.3306  0.2065  0.0002
  135RES   H16937957   4.401   5.568   3.149  0.1999  0.6640  0.7619
  135RES   O17037958   4.667   5.772   3.565 -0.4797 -0.3614  0.3458
  135RES   C17137959   4.653   5.868   3.669  0.3360  0.0275 -0.0912
  135RES   C17237960   4.722   6.002   3.648  0.7293 -0.0010 -0.2834
  135RES   C17337961   4.727   6.087   3.780  0.2835  0.0438 -0.0444
  135RES   O17437962   4.788   6.216   3.745 -0.0907  0.0220 -0.3254
  135RES   C17537963   4.780   6.310   3.855  0.1890  0.2363  0.5932
  135RES   H17637964   4.699   5.820   3.756  1.2645  2.0966  0.5918
  135RES   H17737965   4.549   5.896   3.688  0.2144 -1.3401  1.3171
  135RES   H17837966   4.827   5.990   3.621  0.9840 -1.2329  1.1795
  135RES   H17937967   4.622   6.094   3.806  0.4410  0.2512  0.5310
  135RES   H18037968   4.770   6.040   3.869 -0.3681 -0.1655  0.1563
  135RES   H18137969   4.854   6.389   3.843  0.0194  1.0221  4.1517
  135RES   H18237970   4.810   6.256   3.944 -0.3516 -0.9302  0.0798
  135RES   H18337971   4.678   6.346   3.870  0.3948  1.9600 -1.7485
  135RES   O18437972   4.657   6.064   3.538 -0.1128  0.3603 -0.3001
  135RES   C18537973   4.724   6.042   3.411 -0.1179  0.3114 -0.5302
  135RES   C18637974   4.649   6.126   3.312 -0.0706 -0.0695 -0.0716
  135RES   C18737975   4.694   6.100   3.158  0.1254 -0.4457  0.0915
  135RES   O18837976   4.588   6.139   3.063 -0.0385  0.5843  0.2545
  135RES   C18937977   4.471   6.053   3.061 -0.4455 -0.3822 -0.2653
  135RES   H19037978   4.712   5.939   3.377 -2.5068 -0.2740  1.9203
  135RES   H19137979   4.827   6.078   3.423 -0.7519  2.1559 -0.5315
  135RES   H19237980   4.551   6.080   3.322  0.6698 -1.3210  1.7907
  135RES   H19337981   4.722   5.995   3.151 -1.1131 -0.7598 -0.3738
  135RES   H19437982   4.791   6.144   3.136 -0.2154  0.4629  0.4108
  135RES   H19537983   4.409   6.096   2.981 -0.1238  1.5486  0.5101
  135RES   H19637984   4.507   5.956   3.027  2.5248  1.3819 -2.4266
  135RES   H19737985   4.416   6.055   3.155  0.8359 -0.5981  0.4924
  135RES   O19837986   4.660   6.270   3.344  0.1565  0.3332 -0.2808
  135RES   C19937987   4.544   6.343   3.361 -0.4386 -0.2413 -0.3355
  135RES   C20037988   4.577   6.483   3.428 -0.0231  0.0085 -1.0817
  135RES   C20137989   4.457   6.526   3.516  0.3498 -0.5514  0.1751
  135RES   O20237990   4.329   6.524   3.447 -0.2535 -0.6709  0.9490
  135RES   C20337991   4.215   6.541   3.524  0.0757  0.1276  0.5118
  135RES   H20437992   4.485   6.286   3.433 -1.0531  0.1991 -0.4863
  135RES   H20537993   4.495   6.365   3.266 -0.6884 -0.9859 -0.3789
  135RES   H20637994   4.675   6.488   3.475  0.5325  0.8980 -2.2898
  135RES   H20737995   4.448   6.463   3.605  1.2801 -0.5825  0.2517
  135RES   H20837996   4.469   6.629   3.551  0.8990 -1.1758  1.9156
  135RES   H20937997   4.143   6.600   3.468  0.4629  2.3528  2.2762
  135RES   H21037998   4.228   6.591   3.620  0.1159  0.3766  0.3754
  135RES   H21137999   4.170   6.445   3.552  0.9581 -1.2826 -2.6198
  135RES   O21238000   4.592   6.576   3.320 -0.0884 -0.3145  0.3850
  135RES   C21338001   4.689   6.545   3.220  0.1151  0.2573  0.3431
  135RES   C21438002   4.711   6.665   3.128 -0.8113 -0.6498 -0.1275
  135RES   C21538003   4.759   6.798   3.193  0.0957  0.5401 -0.3007
  135RES   O21638004   4.752   6.900   3.094  0.1687  0.2776 -0.3127
  135RES   C21738005   4.767   7.030   3.157  0.3146 -0.2719 -0.6545
  135RES   H21838006   4.676   6.452   3.164 -0.7978 -1.3912  3.2052
  135RES   H21938007   4.781   6.521   3.275  0.3304  1.3232  0.4605
  135RES   H22038008   4.785   6.649   3.049 -0.7806 -2.6771  0.2791
  135RES   H22138009   4.707   6.815   3.288  0.8380 -0.3690  0.2777
  135RES   H22238010   4.865   6.787   3.215  0.8445  0.0968 -3.9115
  135RES   H22338011   4.781   7.114   3.089  1.3539 -0.4698 -0.6881
  135RES   H22438012   4.855   7.035   3.220 -0.4711  2.0012  0.3124
  135RES   H22538013   4.681   7.058   3.218  0.3353  1.3349 -1.3527
  135RES   O22638014   4.588   6.681   3.070 -0.0607  0.5795  0.4233
  135RES   C22738015   4.579   6.692   2.928  0.2318  0.3939 -0.4090
  135RES   C22838016   4.427   6.697   2.898 -0.2603  0.0516  0.5501
  135RES   C22938017   4.411   6.742   2.750  0.1853 -0.2842  0.6092
  135RES   O23038018   4.285   6.816   2.739 -0.6720 -0.0159  0.1283
  135RES   C23138019   4.260   6.859   2.606 -0.0840  0.6304 -1.1289
  135RES   H23238020   4.614   6.605   2.873 -1.7702 -0.2868 -0.6532
  135RES   H23338021   4.631   6.784   2.902 -0.5656  0.7766 -0.6474
  135RES   H23438022   4.368   6.770   2.954 -1.6553 -1.9702  1.8274
  135RES   H23538023   4.414   6.661   2.677  1.5014 -0.9026  1.3406
  135RES   H23638024   4.486   6.809   2.710 -0.8580  0.6691  0.2372
  135RES   H23738025   4.340   6.861   2.532  2.3993 -0.5395  1.4261
  135RES   H23838026   4.217   6.959   2.603  0.7845  1.0357 -0.3618
  135RES   H23938027   4.179   6.793   2.575  1.9818 -0.5632 -4.3005
  135RES   O24038028   4.359   6.570   2.903 -0.1343 -0.3773 -0.0047
  135RES   C24138029   4.333   6.526   3.031 -0.2307 -0.0727 -0.0238
  135RES   C24238030   4.229   6.411   3.028 -0.3271 -0.2500 -0.6919
  135RES   C24338031   4.216   6.357   3.182 -0.4139  0.2839  0.4291
  135RES   O24438032   4.104   6.278   3.186  0.1450  0.2495 -0.3840
  135RES   C24538033   4.067   6.218   3.307 -0.4673  0.6003  0.4885
  135RES   H24638034   4.305   6.611   3.092 -1.5508  0.9493 -2.0040
  135RES   H24738035   4.422   6.481   3.075  0.9291  2.2926  0.1114
  135RES   H24838036   4.260   6.328   2.965 -0.0532  0.6434 -1.7489
  135RES   H24938037   4.293   6.282   3.198 -0.3345  0.5705  1.4080
  135RES   H25038038   4.231   6.430   3.262  0.0348  0.2993  0.3297
  135RES   H25138039   4.003   6.283   3.367 -0.3329  1.3623 -0.1913
  135RES   H25238040   4.149   6.180   3.368  0.2434 -2.0542 -2.0462
  135RES   H25338041   3.996   6.137   3.291 -1.3214  1.2183  1.1248
  135RES   O25438042   4.096   6.456   2.996  0.1482 -0.3262 -0.0955
  135RES   C25538043   4.070   6.475   2.853  0.0497  0.4255 -0.5808
  135RES   C25638044   3.918   6.491   2.821 -0.2276  0.8436  0.3519
  135RES   C25738045   3.874   6.544   2.679 -0.2553 -0.0142  0.8558
  135RES   O25838046   3.734   6.569   2.667  0.5613  0.0524  0.1512
  135RES   C25938047   3.660   6.452   2.615  0.2889  0.5769 -0.5823
  135RES   H26038048   4.133   6.558   2.819  0.6654  0.5383  0.8123
  135RES   H26138049   4.114   6.393   2.797 -0.0651 -0.1851  0.2211
  135RES   H26238050   3.858   6.552   2.889 -2.5946 -0.2482 -0.7345
  135RES   H26338051   3.919   6.642   2.661  2.5230 -1.0380  1.9703
  135RES   H26438052   3.903   6.483   2.594  0.0769  2.8342 -1.1235
  135RES   H26538053   3.559   6.463   2.575  0.8515  2.6491 -1.5267
  135RES   H26638054   3.667   6.376   2.693  0.2352  2.0123  0.8449
  135RES   H26738055   3.715   6.414   2.529 -1.8696  0.5154 -1.9468
  135RES   O26838056   3.861   6.359   2.826  0.2303  0.2058 -0.1464
  135RES   C26938057   3.807   6.332   2.955  0.3263  0.7896 -1.1756
  135RES   C27038058   3.768   6.179   2.973 -0.6265  0.2556 -0.3352
  135RES   C27138059   3.648   6.123   2.896 -0.3510 -0.3268 -0.6578
  135RES   O27238060   3.615   5.989   2.904  0.2414 -0.0152  0.2157
  135RES   C27338061   3.538   5.932   2.793 -0.2349  0.6367  0.3573
  135RES   H27438062   3.716   6.392   2.969  0.4909  0.6568  0.5131
  135RES   H27538063   3.881   6.357   3.030 -1.5235  0.6176  0.7392
  135RES   H27638064   3.851   6.111   2.952 -1.2998 -0.1032 -1.9146
  135RES   H27738065   3.648   6.152   2.791  1.1645  1.8111 -0.0978
  135RES   H27838066   3.566   6.190   2.923  0.5260  0.3948  0.2549
  135RES   H27938067   3.560   5.974   2.695 -1.8062  1.1653  0.2268
  135RES   H28038068   3.433   5.922   2.819 -0.2148  0.7260  0.4729
  135RES   H28138069   3.585   5.833   2.790 -0.8773  0.3890 -2.6754
  135RES   H28238070   3.756   6.156   3.079 -3.4128  0.9252 -0.4623
  136RES     O138071   3.787   7.491   0.498 -0.1992  0.0109 -0.2088
  136RES     C238072   3.769   7.626   0.473  0.4340 -0.7672  0.2279
  136RES     C338073   3.903   7.682   0.416  0.2485  0.3322  0.2859
  136RES     C438074   3.898   0.009   0.360  0.8853  0.3514 -0.0940
  136RES     O538075   4.013   0.034   0.282 -0.3339  0.5450 -0.7126
  136RES     C638076   4.000   0.159   0.197  0.1747  0.3743 -0.4604
  136RES     H738077   3.682   7.635   0.407 -0.2724  1.8629  1.4235
  136RES     H838078   3.742   7.678   0.565  1.0625 -2.8291  1.6136
  136RES     H938079   3.930   7.617   0.333  0.1387 -1.1764  1.4175
  136RES    H1038080   3.893   0.078   0.444 -2.7463 -0.4004  0.3970
  136RES    H1138081   3.799   0.030   0.318 -0.6162  0.3222  3.2474
  136RES    H1238082   4.026   0.245   0.259 -1.7714 -0.5007  1.6415
  136RES    H1338083   4.069   0.127   0.119 -1.4238 -3.1338 -0.5191
  136RES    H1438084   3.900   0.175   0.154  0.0627  0.3681 -0.2015
  136RES    H1538085   3.879   7.492   0.521  0.0528  3.7609 -1.1095
  136RES    O1638086   3.975   7.680   0.541  0.4348  0.1039 -0.0833
  136RES    C1738087   4.108   7.675   0.524 -0.1166  0.2448  0.3131
  136RES    C1838088   4.163   7.636   0.658 -0.0083 -0.2553  0.1503
  136RES    C1938089   4.126   7.727   0.775  0.1074 -0.2744  0.2925
  136RES    O2038090   4.189   7.689   0.899  0.0743 -0.2859  0.0062
  136RES    C2138091   4.120   7.743   1.011 -0.6001  0.8284  0.0334
  136RES    H2238092   4.130   7.779   0.502  1.3386  0.3157  1.9412
  136RES    H2338093   4.130   7.608   0.441  0.3573 -0.4219  0.9550
  136RES    H2438094   4.271   7.628   0.652  0.1693  2.8253 -2.3901
  136RES    H2538095   4.147   0.013   0.744 -3.2145  0.3090 -0.2291
  136RES    H2638096   4.017   7.722   0.786  0.1178 -1.5191 -0.1116
  136RES    H2738097   4.169   7.702   1.100 -3.4540  0.3790  1.4421
  136RES    H2838098   4.021   7.699   1.003 -1.2053  2.1956  0.0042
  136RES    H2938099   4.099   0.033   1.009 -0.5580  0.8365 -3.6173
  136RES    O3038100   4.114   7.510   0.664  0.5464  0.3252  0.0490
  136RES    C3138101   4.168   7.425   0.771 -0.1958  0.2319 -0.0220
  136RES    C3238102   4.125   7.283   0.763 -0.1395 -0.5603 -0.4575
  136RES    C3338103   4.130   7.216   0.899  0.0087 -0.2773  0.3945
  136RES    O3438104   4.018   7.257   0.976 -0.2653 -0.1495 -0.4293
  136RES    C3538105   4.018   7.207   1.105 -0.0111  0.0892 -0.1463
  136RES    H3638106   4.276   7.422   0.759 -0.4267  0.1461 -2.2990
  136RES    H3738107   4.137   7.464   0.868  0.9990  1.7764 -0.2454
  136RES    H3838108   4.021   7.278   0.729 -0.8302  0.8384  1.3965
  136RES    H3938109   4.219   7.245   0.955 -0.5408  1.2246  0.5049
  136RES    H4038110   4.127   7.107   0.888 -3.8700 -0.1379 -0.4651
  136RES    H4138111   3.979   7.105   1.107 -0.3238  0.1929 -0.8359
  136RES    H4238112   3.947   7.273   1.154  2.3247  1.2487  1.7702
  136RES    H4338113   4.116   7.222   1.151 -0.3085 -0.5908  0.7192
  136RES    O4438114   4.219   7.212   0.683 -0.1112 -0.3750  0.0538
  136RES    C4538115   4.177   7.198   0.543  0.6491  0.0777 -0.5006
  136RES    C4638116   4.299   7.170   0.462 -0.7622  0.1064  0.2543
  136RES    C4738117   4.248   7.116   0.330 -0.2090  0.1447 -0.0479
  136RES    O4838118   4.346   7.053   0.250 -0.0659 -0.4785 -0.0918
  136RES    C4938119   4.384   6.924   0.291  0.1166 -0.2868  0.0060
  136RES    H5038120   4.116   7.278   0.503 -2.9141 -2.2377  0.0528
  136RES    H5138121   4.106   7.115   0.546 -0.7639  1.3173  1.8665
  136RES    H5238122   4.348   7.086   0.511 -0.4268  0.4494  0.5076
  136RES    H5338123   4.163   7.049   0.346 -0.6775  0.2530 -2.0739
  136RES    H5438124   4.200   7.198   0.278  1.1485 -0.1866 -1.8523
  136RES    H5538125   4.306   6.859   0.250 -1.2009  0.5872  1.0964
  136RES    H5638126   4.402   6.913   0.398 -1.2470 -1.2812  0.1528
  136RES    H5738127   4.482   6.905   0.249  0.6943  0.9047  0.8145
  136RES    O5838128   4.369   7.287   0.443 -0.3141 -0.5879 -0.2151
  136RES    C5938129   4.503   7.263   0.404 -0.4098 -0.1663 -0.6687
  136RES    C6038130   4.581   7.383   0.437  0.6740  0.3160  0.2418
  136RES    C6138131   4.717   7.382   0.369 -0.0647 -0.5586  0.3684
  136RES    O6238132   4.800   7.500   0.385  0.3279  0.0438  0.1291
  136RES    C6338133   4.935   7.481   0.336 -0.0640  0.2994 -0.3961
  136RES    H6438134   4.512   7.241   0.297  0.2333  1.5069 -0.9704
  136RES    H6538135   4.550   7.179   0.455 -1.4673  0.3377  1.1842
  136RES    H6638136   4.525   7.474   0.411  0.7075  0.6901  1.4332
  136RES    H6738137   4.755   7.290   0.414  1.3152 -0.1213  0.1334
  136RES    H6838138   4.718   7.377   0.260  1.0606  0.7726  0.3062
  136RES    H6938139   4.942   7.432   0.239  0.5450 -0.5217  0.0572
  136RES    H7038140   5.003   7.426   0.401 -0.5885 -4.2540 -3.4901
  136RES    H7138141   4.979   7.581   0.332 -1.8288  1.1408  0.7594
  136RES    O7238142   4.593   7.374   0.573  0.2717  0.3471 -0.1976
  136RES    C7338143   4.642   7.492   0.634  0.4408 -0.7105  0.3560
  136RES    C7438144   4.650   7.465   0.789  0.1944  0.4111  0.5196
  136RES    C7538145   4.581   7.577   0.862  0.3931  0.1884 -0.0276
  136RES    O7638146   4.558   7.572   1.002  0.1513 -0.4112 -0.2166
  136RES    C7738147   4.475   7.468   1.046  0.7055 -0.3497 -0.8861
  136RES    H7838148   4.736   7.524   0.588  1.0140 -1.2954  1.1103
  136RES    H7938149   4.577   7.576   0.613  2.9965  1.4725  0.8960
  136RES    H8038150   4.596   7.373   0.809 -1.1276  0.9400 -0.5806
  136RES    H8138151   4.491   7.596   0.803 -0.4385 -2.6076  0.2668
  136RES    H8238152   4.642   7.667   0.849  1.8024 -0.9489 -1.7332
  136RES    H8338153   4.372   7.479   1.012  0.2673 -0.3102  0.4492
  136RES    H8438154   4.461   7.463   1.154 -0.9751 -2.0202 -1.1436
  136RES    H8538155   4.505   7.372   1.003  1.2176 -1.6681  2.2818
  136RES    O8638156   4.785   7.449   0.826  0.1187  0.0341  0.3058
  136RES    C8738157   4.811   7.354   0.931 -0.2387  0.2872 -0.2928
  136RES    C8838158   4.961   7.349   0.970  0.2227 -0.0610  0.2905
  136RES    C8938159   4.983   7.280   1.100  0.3501  0.1559  0.4510
  136RES    O9038160   5.120   7.286   1.131  0.0923 -0.6923  0.1871
  136RES    C9138161   5.139   7.216   1.252  0.5919 -0.0852  0.0180
  136RES    H9238162   4.754   7.379   1.020  1.5584  0.9591  0.6875
  136RES    H9338163   4.779   7.254   0.902 -0.2236  0.3197 -0.4224
  136RES    H9438164   4.995   7.453   0.969 -2.0713  0.7241  1.1657
  136RES    H9538165   4.918   7.313   1.181 -0.9934 -0.2323 -0.4372
  136RES    H9638166   4.943   7.180   1.086 -0.7237  1.1330 -4.4900
  136RES    H9738167   5.247   7.216   1.263  0.6997  0.8913 -0.8914
  136RES    H9838168   5.096   7.262   1.341 -0.4763 -2.5460  0.8108
  136RES    H9938169   5.104   7.114   1.242  3.0602 -0.8865 -0.7952
  136RES   O10038170   5.027   7.272   0.869  0.0656  0.0260  0.4524
  136RES   C10138171   5.147   7.329   0.817  0.1455 -0.0324  0.2626
  136RES   C10238172   5.129   7.370   0.661 -0.2486 -0.0687 -0.5633
  136RES   C10338173   5.216   7.299   0.565 -0.9196  0.1376 -0.5338
  136RES   O10438174   5.196   7.158   0.586 -0.1011  0.5802  0.2774
  136RES   C10538175   5.242   7.082   0.474 -0.3361  0.5988  0.7489
  136RES   H10638176   5.214   7.243   0.814  0.8683  0.5625 -1.7127
  136RES   H10738177   5.191   7.403   0.885 -1.9615  2.2593 -0.7925
  136RES   H10838178   5.026   7.344   0.639 -0.9211  0.2954  1.9945
  136RES   H10938179   5.322   7.315   0.585 -1.0897 -0.7332  1.1764
  136RES   H11038180   5.193   7.325   0.462  0.1452 -0.0172 -0.8146
  136RES   H11138181   5.320   7.138   0.423 -1.4613  1.4609 -0.0808
  136RES   H11238182   5.157   7.056   0.410  2.1686 -0.3805 -2.2700
  136RES   H11338183   5.285   6.987   0.504  1.4384  1.5244  1.1743
  136RES   O11438184   5.156   7.507   0.632 -0.6536 -0.2148  0.2820
  136RES   C11538185   5.047   7.600   0.652 -0.0816  0.1676 -0.3986
  136RES   C11638186   5.097   7.722   0.740 -0.6072  0.3932 -0.1172
  136RES   C11738187   4.968   7.805   0.771  0.7961  0.0703 -0.4697
  136RES   O11838188   4.985   0.111   0.838 -0.3508  0.1024 -0.0104
  136RES   C11938189   4.860   0.181   0.835 -0.1684 -0.6118 -0.2656
  136RES   H12038190   5.008   7.634   0.556  1.0433  0.2509 -0.8354
  136RES   H12138191   4.971   7.553   0.714 -1.2096  1.7938 -0.5135
  136RES   H12238192   5.169   7.789   0.693 -1.1390  1.4465  0.5397
  136RES   H12338193   4.910   7.806   0.678  0.4006  0.5278 -0.2224
  136RES   H12438194   4.907   7.739   0.833 -0.3689  1.7428  0.2035
  136RES   H12538195   4.790   0.140   0.906 -0.2108 -0.9546 -0.5036
  136RES   H12638196   4.816   0.189   0.735  0.3193  0.1292 -0.4290
  136RES   H12738197   4.887   0.282   0.866  0.9952 -1.0772  0.2961
  136RES   O12838198   5.136   7.667   0.863  0.2000 -0.2643 -0.7119
  136RES   C12938199   5.204   7.748   0.958 -0.4331  0.2545 -0.3514
  136RES   C13038200   5.268   7.647   1.063  0.3062  0.1980  0.1290
  136RES   C13138201   5.311   7.717   1.196  0.1061  0.5006  0.1428
  136RES   O13238202   5.305   7.626   1.305  0.2511  0.3585  0.0545
  136RES   C13338203   5.368   7.664   1.420 -0.3755  0.0291  0.2815
  136RES   H13438204   5.281   7.808   0.910  0.9844 -1.7614 -0.6255
  136RES   H13538205   5.136   7.817   1.009 -0.6157  0.6756 -1.1535
  136RES   H13638206   5.194   7.570   1.084 -1.6196  1.9581 -0.0806
  136RES   H13738207   5.233   7.793   1.199  0.1027  0.7009 -3.2376
  136RES   H13838208   5.407   7.766   1.180  0.1152  0.5669  0.3952
  136RES   H13938209   5.370   7.587   1.497 -0.6685 -0.7738 -0.5029
  136RES   H14038210   5.467   7.708   1.409  0.2242 -0.4892  3.3375
  136RES   H14138211   5.318   7.745   1.472  2.2631  0.8848  1.5776
  136RES   O14238212   5.383   7.594   1.000 -0.8632  0.3701 -0.6894
  136RES   C14338213   5.445   7.480   1.053  0.0717  0.3441  0.0875
  136RES   C14438214   5.546   7.431   0.946 -0.1228 -0.5698  0.4202
  136RES   C14538215   5.582   7.287   0.953 -0.3591 -0.3989  0.4357
  136RES   O14638216   5.630   7.251   0.823  0.7803  1.1294  0.4353
  136RES   C14738217   5.612   7.114   0.798 -0.0004 -0.4469 -0.1881
  136RES   H14838218   5.487   7.498   1.152 -0.4334  0.7908  0.2244
  136RES   H14938219   5.372   7.401   1.070  0.1410 -0.0240 -1.3271
  136RES   H15038220   5.503   7.448   0.848  1.4019 -0.3584 -0.2237
  136RES   H15138221   5.495   7.225   0.973  1.6385 -3.1746  0.8648
  136RES   H15238222   5.653   7.259   1.030 -2.0215  0.8227  2.4478
  136RES   H15338223   5.506   7.088   0.799  0.2295 -1.3999  0.1968
  136RES   H15438224   5.667   7.045   0.861  1.0691  0.9248  0.4043
  136RES   H15538225   5.648   7.102   0.696 -1.6430  1.3426 -1.0227
  136RES   O15638226   5.670   7.499   0.975  0.0576 -0.0534 -0.8606
  136RES   C15738227   5.695   7.600   0.881  0.4808  0.7388  0.1758
  136RES   C15838228   5.814   7.685   0.935 -0.3813  0.3103 -0.9503
  136RES   C15938229   5.955   7.618   0.956  0.3047 -0.8913 -0.4045
  136RES   O16038230   6.039   7.732   0.988  0.1019  0.2645  0.2058
  136RES   C16138231   6.176   7.684   0.993 -0.0982  0.4520 -0.0517
  136RES   H16238232   5.725   7.557   0.785  2.4589 -0.5747  1.3339
  136RES   H16338233   5.611   7.668   0.874  0.4985  0.7610  0.1761
  136RES   H16438234   5.828   7.758   0.856  1.3501  4.0954  2.6660
  136RES   H16538235   5.955   7.531   1.022  2.5231 -0.2179  0.5073
  136RES   H16638236   5.984   7.577   0.859  0.7644  2.5972 -1.8140
  136RES   H16738237   6.214   7.672   0.892 -0.4517  0.0425 -0.1379
  136RES   H16838238   6.196   7.588   1.041  0.9406 -0.1659 -1.6688
  136RES   H16938239   6.227   7.770   1.038 -1.6762  1.5389 -0.3045
  136RES   O17038240   5.749   7.748   1.047 -0.0129  0.2244 -0.4049
  136RES   C17138241   5.781   0.065   1.073  0.8207 -0.6011  0.3309
  136RES   C17238242   5.695   0.172   0.989  0.2274  0.2949 -0.3745
  136RES   C17338243   5.540   0.159   1.012 -0.0024 -0.1687 -0.2346
  136RES   O17438244   5.485   0.293   0.982  0.0036  0.2031  0.4991
  136RES   C17538245   5.344   0.292   1.023 -0.1586 -0.2118  0.3501
  136RES   H17638246   5.882   0.096   1.045 -0.2507  3.4840  0.6311
  136RES   H17738247   5.774   0.084   1.181  0.0853 -0.0826  0.1948
  136RES   H17838248   5.725   0.261   1.045 -2.0214  2.0423 -1.8630
  136RES   H17938249   5.498   0.077   0.953 -0.7552 -0.3345  0.5218
  136RES   H18038250   5.530   0.137   1.119 -0.7812 -0.0241 -0.2727
  136RES   H18138251   5.282   0.214   0.980 -2.0955 -0.4063  3.3930
  136RES   H18238252   5.303   0.391   1.002 -0.1564  0.2434  2.4476
  136RES   H18338253   5.338   0.281   1.131  0.2045  0.8019  0.4830
  136RES   O18438254   5.731   0.165   0.851 -0.0211  0.0257 -0.1452
  136RES   C18538255   5.681   0.256   0.766  0.3252 -0.2687  0.1837
  136RES   C18638256   5.735   0.225   0.626 -0.3170 -0.1416 -0.5638
  136RES   C18738257   5.751   0.346   0.533  0.6220  0.0002  0.1641
  136RES   O18838258   5.820   0.316   0.411  0.3780  0.1917 -0.1293
  136RES   C18938259   5.814   0.419   0.307  0.5662  0.4211  0.5423
  136RES   H19038260   5.721   0.352   0.798 -1.8746 -0.0197  2.3988
  136RES   H19138261   5.572   0.259   0.761  0.3147 -1.0124 -0.1628
  136RES   H19238262   5.834   0.181   0.640 -0.0255  0.8164  0.4859
  136RES   H19338263   5.807   0.429   0.578  1.6796 -1.6089  1.8868
  136RES   H19438264   5.650   0.376   0.504  0.2874 -1.2313  0.0561
  136RES   H19538265   5.844   0.373   0.212  3.5262  0.0164  1.6064
  136RES   H19638266   5.717   0.465   0.289 -0.5107 -0.8707  2.7466
  136RES   H19738267   5.881   0.500   0.336 -0.2682  0.6589  1.8700
  136RES   O19838268   5.641   0.145   0.561  0.3331  0.5710  0.1680
  136RES   C19938269   5.634   7.815   0.577  0.5155 -0.4019 -0.2693
  136RES   C20038270   5.504   7.748   0.511 -0.0212  0.0398  0.6527
  136RES   C20138271   5.480   7.602   0.551 -0.2267  0.3529  0.5277
  136RES   O20238272   5.584   7.530   0.497 -0.1120  0.0512 -0.0361
  136RES   C20338273   5.584   7.391   0.518 -0.5940  0.5481  0.1756
  136RES   H20438274   5.632   7.798   0.684  0.6246  0.9008 -0.0478
  136RES   H20538275   5.721   7.774   0.525  0.8872 -1.3673  1.0905
  136RES   H20638276   5.414   7.797   0.549  0.3143  1.2812 -0.1342
  136RES   H20738277   5.487   7.583   0.659 -0.2821 -2.1100  0.1098
  136RES   H20838278   5.390   7.558   0.509 -0.8822  1.4451  0.7584
  136RES   H20938279   5.607   7.367   0.622  1.3174  3.7395  0.5759
  136RES   H21038280   5.667   7.352   0.459 -1.8421 -1.2859 -0.4014
  136RES   H21138281   5.494   7.349   0.473  0.3908 -1.1570 -0.2443
  136RES   O21238282   5.506   7.746   0.371  0.3663 -0.4381  0.0880
  136RES   C21338283   5.462   0.060   0.322  0.4087 -0.2388 -0.7663
  136RES   C21438284   5.478   0.055   0.172 -0.0965  0.1358 -1.1541
  136RES   C21538285   5.559   0.173   0.102  0.1720  0.2309  0.6631
  136RES   O21638286   5.645   0.104   0.005 -0.0488  0.0339 -0.2207
  136RES   C21738287   5.564   0.072   7.711 -0.7206 -0.1290  0.3221
  136RES   H21838288   5.523   0.141   0.362  2.3193 -3.2576  2.7121
  136RES   H21938289   5.363   0.077   0.364 -0.3738 -2.8796 -1.4304
  136RES   H22038290   5.532   7.782   0.143  1.2010  0.6521 -0.3721
  136RES   H22138291   5.489   0.244   0.060 -0.6685 -0.9088  0.1342
  136RES   H22238292   5.614   0.228   0.179 -0.9852 -1.9344  3.1105
  136RES   H22338293   5.503   7.805   7.744 -2.2692  0.9199  0.1845
  136RES   H22438294   5.628   0.043   7.628  2.2787 -0.3954  2.6251
  136RES   H22538295   5.502   0.154   7.674 -0.3131  0.7927  1.6478
  136RES   O22638296   5.347   0.065   0.106 -0.5917  0.0478  0.2963
  136RES   C22738297   5.279   7.758   0.076 -0.2341  0.1599 -0.0019
  136RES   C22838298   5.126   7.801   0.066 -0.1208  0.0565  0.0936
  136RES   C22938299   5.045   7.685   0.008 -0.2792 -0.2289 -0.0440
  136RES   O23038300   4.901   7.705   0.005 -0.1406 -0.5820 -0.4826
  136RES   C23138301   4.841   7.598   7.761 -0.3370  0.3205 -0.0678
  136RES   H23238302   5.303   7.679   0.147  4.1945  1.5978  0.2443
  136RES   H23338303   5.327   7.724   7.802 -1.1214 -2.0921  0.3425
  136RES   H23438304   5.108   0.074   0.008  2.2418 -0.4817 -1.5224
  136RES   H23538305   5.065   7.593   0.064 -0.4065  0.4366  1.1105
  136RES   H23638306   5.085   7.663   7.726 -1.4414  3.1453 -1.3159
  136RES   H23738307   4.864   7.584   7.656 -2.3608 -2.5478 -0.2078
  136RES   H23838308   4.733   7.609   7.768 -0.5864 -1.5978 -0.3789
  136RES   H23938309   4.860   7.502   7.810 -0.6421 -1.5922 -3.4925
  136RES   O24038310   5.071   7.803   0.196  0.6006 -0.4627 -0.2757
  136RES   C24138311   5.055   0.115   0.263 -0.4108  0.5461  0.2012
  136RES   C24238312   4.995   0.114   0.405 -0.2692  0.0065 -0.0985
  136RES   C24338313   5.060   0.220   0.489 -0.0054 -0.5110  0.0532
  136RES   O24438314   5.190   0.175   0.523 -0.2591 -0.1292  0.2230
  136RES   C24538315   5.263   0.277   0.589  0.1720  0.6032 -0.0564
  136RES   H24638316   4.994   0.185   0.207  0.0444  0.6880 -0.1107
  136RES   H24738317   5.150   0.167   0.262  0.5540 -1.1097  1.8523
  136RES   H24838318   5.021   0.021   0.456  0.2822  0.3173  0.1942
  136RES   H24938319   5.075   0.312   0.432  1.0742 -0.3278  0.6265
  136RES   H25038320   4.996   0.229   0.578  1.2629  0.4571  0.8803
  136RES   H25138321   5.217   0.299   0.685  2.2038  0.0484  1.0755
  136RES   H25238322   5.284   0.370   0.536  0.2687  0.8181  0.3596
  136RES   H25338323   5.363   0.238   0.607  0.3457  0.5600 -1.0511
  136RES   O25438324   4.853   0.136   0.390 -0.1506  1.2853 -0.8916
  136RES   C25538325   4.769   0.027   0.366 -0.1975 -0.3462  0.1771
  136RES   C25638326   4.619   0.072   0.387 -0.4844  0.6036 -0.3089
  136RES   C25738327   4.522   7.784   0.331 -0.3081  0.4079  0.1693
  136RES   O25838328   4.410   0.034   0.256 -0.1351 -0.0615 -0.3689
  136RES   C25938329   4.315   7.758   0.205 -0.5640  0.0271 -0.2267
  136RES   H26038330   4.779   7.811   0.262 -1.0058 -0.0779  0.0118
  136RES   H26138331   4.797   7.759   0.428 -0.9113 -0.6765  0.0614
  136RES   H26238332   4.606   0.172   0.346 -3.3962  0.0608 -0.8350
  136RES   H26338333   4.579   7.730   0.256  0.0813 -1.7965  1.9988
  136RES   H26438334   4.477   7.719   0.406 -0.4062  2.2573  1.7567
  136RES   H26538335   4.235   7.811   0.152 -1.1474  0.4444  1.0524
  136RES   H26638336   4.275   7.697   0.286  0.4747  1.5290  1.4481
  136RES   H26738337   4.371   7.694   0.137 -1.5554 -1.1352  0.0258
  136RES   O26838338   4.587   0.074   0.532 -0.5115  0.3725 -0.5768
  136RES   C26938339   4.526   0.193   0.584 -0.6157 -0.9344  0.1330
  136RES   C27038340   4.403   0.161   0.672 -0.1210 -0.0480 -0.1630
  136RES   C27138341   4.343   0.279   0.749 -0.3965 -0.4551  0.6748
  136RES   O27238342   4.218   0.254   0.812 -0.1694  0.1142  0.0996
  136RES   C27338343   4.176   0.364   0.886  0.1271 -0.3211 -0.4641
  136RES   H27438344   4.507   0.262   0.502  0.9004 -0.1850  0.3843
  136RES   H27538345   4.600   0.248   0.643  1.6711 -2.6689 -1.0500
  136RES   H27638346   4.324   0.108   0.618 -0.0908  1.4174 -1.6916
  136RES   H27738347   4.347   0.367   0.684  0.4463 -0.6893  0.4026
  136RES   H27838348   4.417   0.291   0.828 -0.3934 -0.9430  0.7439
  136RES   H27938349   4.084   0.352   0.943  0.1168  1.0827 -0.1662
  136RES   H28038350   4.175   0.455   0.827  2.0985  0.4636  0.6435
  136RES   H28138351   4.257   0.388   0.956 -0.1427 -0.3760 -0.1334
  136RES   H28238352   4.440   0.102   0.756  2.0480  1.0371 -0.3403
  137RES     O138353   5.651   4.511   7.201 -0.3761 -0.1458  0.6170
  137RES     C238354   5.694   4.432   7.311  0.4664 -0.4429 -0.1612
  137RES     C338355   5.578   4.366   7.402 -0.6490 -0.2153 -0.2064
  137RES     C438356   5.635   4.262   7.504 -0.5905  0.1574  0.4114
  137RES     O538357   5.544   4.168   7.559 -0.8000 -0.1193 -0.1824
  137RES     C638358   5.600   4.089   7.663  0.1512 -0.6002  0.2420
  137RES     H738359   5.756   4.348   7.281  1.6829  1.0948 -2.0181
  137RES     H838360   5.763   4.474   7.384  0.6761 -0.0162 -0.6094
  137RES     H938361   5.510   4.314   7.334  0.0920 -1.6720  0.1475
  137RES    H1038362   5.686   4.328   7.574 -0.7009  0.1218  0.5270
  137RES    H1138363   5.708   4.201   7.451 -0.7426  3.2013 -3.4787
  137RES    H1238364   5.657   4.009   7.615 -0.3056 -0.1806 -1.0141
  137RES    H1338365   5.666   4.154   7.721  0.3356  1.0468 -1.7373
  137RES    H1438366   5.526   4.028   7.715 -1.5443  0.7196 -0.5738
  137RES    H1538367   5.604   4.462   7.135  0.7406  0.9688 -1.0495
  137RES    O1638368   5.537   4.466   7.496 -0.3887 -0.2435  0.0869
  137RES    C1738369   5.412   4.524   7.477 -0.6446  0.7437 -0.2655
  137RES    C1838370   5.303   4.434   7.545  0.3921 -0.0953  0.8335
  137RES    C1938371   5.191   4.518   7.595  0.0726  0.5478  0.8235
  137RES    O2038372   5.102   4.467   7.691  0.4484  1.3070  0.0060
  137RES    C2138373   5.017   4.560   7.746 -0.7051 -0.4828 -0.1324
  137RES    H2238374   5.391   4.542   7.372 -1.6355 -3.2808 -0.8399
  137RES    H2338375   5.421   4.618   7.532 -3.2626  0.0618  1.4186
  137RES    H2438376   5.343   4.379   7.631  2.8406  0.3971  0.0243
  137RES    H2538377   5.241   4.607   7.634  0.6334  1.3325 -1.6467
  137RES    H2638378   5.133   4.555   7.511  1.5411  0.3148 -0.3186
  137RES    H2738379   4.965   4.610   7.664 -1.1752 -0.2200  0.3240
  137RES    H2838380   5.088   4.630   7.791  0.5474 -1.6869 -0.2002
  137RES    H2938381   4.942   4.526   7.817 -1.8108  0.1895 -0.9601
  137RES    O3038382   5.258   4.345   7.440  0.1110  0.6792  0.7488
  137RES    C3138383   5.210   4.219   7.494  0.4274  0.2430  0.3253
  137RES    C3238384   5.184   4.107   7.383  0.4821  0.3058 -0.1276
  137RES    C3338385   5.280   4.115   7.262  0.2704 -1.2554  0.1717
  137RES    O3438386   5.260   4.001   7.182 -0.2773 -0.3806  0.6339
  137RES    C3538387   5.325   4.003   7.054 -0.1570  0.5989  0.8866
  137RES    H3638388   5.282   4.171   7.561  0.9885  0.3601 -0.1840
  137RES    H3738389   5.122   4.238   7.555  0.7809  0.9835  0.6119
  137RES    H3838390   5.198   4.013   7.435 -2.0520  0.0209  0.0772
  137RES    H3938391   5.387   4.130   7.277  0.1217  0.7060 -0.6698
  137RES    H4038392   5.245   4.202   7.208 -0.0323 -1.1361  0.5503
  137RES    H4138393   5.255   4.055   6.989  0.1783  0.9485  0.8052
  137RES    H4238394   5.341   3.904   7.011 -1.5445  1.2196 -1.1580
  137RES    H4338395   5.420   4.056   7.047  0.2630 -0.4351 -1.7590
  137RES    O4438396   5.045   4.128   7.342 -0.4260 -0.7723 -0.1665
  137RES    C4538397   4.998   4.037   7.247  0.6113 -0.3916 -0.0210
  137RES    C4638398   4.837   4.032   7.251 -0.0202 -0.6464  0.4124
  137RES    C4738399   4.787   3.955   7.129 -0.2514  0.0773 -0.5957
  137RES    O4838400   4.663   3.981   7.087 -0.3467 -0.5182 -0.1406
  137RES    C4938401   4.621   3.928   6.959 -0.0473 -0.3490  0.7629
  137RES    H5038402   5.031   3.933   7.257  0.4020 -0.4320  0.2491
  137RES    H5138403   5.037   4.068   7.150 -0.9745 -1.2961 -0.9788
  137RES    H5238404   4.813   4.136   7.232 -0.7765 -0.9624 -0.4444
  137RES    H5338405   4.858   3.970   7.048  2.0763 -0.4534  1.2773
  137RES    H5438406   4.784   3.847   7.137  0.2186 -0.1186 -2.7538
  137RES    H5538407   4.647   3.822   6.967  1.0716 -0.1651 -0.3685
  137RES    H5638408   4.673   3.984   6.882 -1.6475  0.4775  0.2862
  137RES    H5738409   4.516   3.954   6.955 -0.0565 -0.6744 -2.0693
  137RES    O5838410   4.810   3.976   7.383 -0.4155  0.1196  0.0649
  137RES    C5938411   4.664   3.982   7.391  0.0052  0.0641 -0.1833
  137RES    C6038412   4.620   3.937   7.535  0.2223  0.0961  1.0076
  137RES    C6138413   4.518   3.822   7.536  0.0477 -0.0933  0.1490
  137RES    O6238414   4.487   3.779   7.665 -0.6005  0.1628  0.1794
  137RES    C6338415   4.571   3.687   7.723  0.1673 -0.2792 -0.2584
  137RES    H6438416   4.622   3.909   7.322  0.8883 -0.8065  0.1868
  137RES    H6538417   4.619   4.074   7.355  1.1093  0.9726  0.7281
  137RES    H6638418   4.712   3.913   7.589  0.4799  0.7395  0.8563
  137RES    H6738419   4.422   3.846   7.489 -0.5417 -0.0339  1.3764
  137RES    H6838420   4.560   3.737   7.483 -0.3931 -1.1233  1.4306
  137RES    H6938421   4.560   3.582   7.694  1.3167 -0.2129 -0.9648
  137RES    H7038422   4.568   3.703   0.013  0.6513 -2.8560  0.1701
  137RES    H7138423   4.674   3.717   7.708 -0.1754  0.7426 -0.6497
  137RES    O7238424   4.558   4.047   7.602  0.1382  0.5862  0.5068
  137RES    C7338425   4.603   4.063   7.735 -0.1106 -0.6342 -0.2873
  137RES    C7438426   4.524   4.187   7.809  0.0218 -0.4603 -0.4289
  137RES    C7538427   4.606   4.231   0.119 -0.5282  0.1358 -0.5075
  137RES    O7638428   4.572   4.361   0.165 -0.2440 -0.0234 -0.6483
  137RES    C7738429   4.603   4.376   0.298 -0.1335 -0.2911 -0.5605
  137RES    H7838430   4.607   3.973   7.796  1.5816 -0.0069  0.5574
  137RES    H7938431   4.705   4.100   7.739 -1.1365  2.3115  0.4963
  137RES    H8038432   4.518   4.269   7.738  0.5193 -0.0182  0.0407
  137RES    H8138433   4.711   4.229   0.087  0.3539 -2.3163  2.3062
  137RES    H8238434   4.601   4.143   0.182 -1.9785 -0.2456 -1.1360
  137RES    H8338435   4.709   4.359   0.320 -0.3246 -2.0701 -0.9219
  137RES    H8438436   4.551   4.309   0.366  0.9669 -1.1428 -0.5342
  137RES    H8538437   4.583   4.478   0.329  2.2338 -0.1846  0.7577
  137RES    O8638438   4.396   4.147   0.042  0.6148 -0.2036  0.1817
  137RES    C8738439   4.296   4.127   7.766  0.2143  0.1792  0.7676
  137RES    C8838440   4.159   4.092   0.022  0.1618 -0.3559  0.5083
  137RES    C8938441   4.040   4.077   7.748 -0.0343 -0.1076  0.3335
  137RES    O9038442   3.915   4.080   7.813  0.1702  0.0840  0.3317
  137RES    C9138443   3.881   3.968   0.074  0.1369 -0.7098  0.4872
  137RES    H9238444   4.282   4.219   7.709 -0.2146  0.1032  0.7505
  137RES    H9338445   4.318   4.049   7.693 -3.1820 -0.6516  0.5625
  137RES    H9438446   4.141   4.178   0.087  0.9562 -0.0329  0.3012
  137RES    H9538447   4.027   4.171   7.693  0.0456 -0.6352 -0.5984
  137RES    H9638448   4.048   4.008   7.664  2.4799  0.3788  0.1278
  137RES    H9738449   3.948   3.941   0.155  2.0712 -1.9905 -1.4823
  137RES    H9838450   3.781   3.977   0.117 -0.5385 -0.0587 -1.1825
  137RES    H9938451   3.863   3.877   0.016 -0.6261 -0.2404 -0.0257
  137RES   O10038452   4.182   3.975   0.103 -0.0265 -0.6613  0.2433
  137RES   C10138453   4.221   3.855   0.027  0.1117 -0.6364  0.2402
  137RES   C10238454   4.208   3.732   0.124 -0.3346  0.0989 -0.5712
  137RES   C10338455   4.212   3.599   0.042 -1.0261 -0.0470  0.4687
  137RES   O10438456   4.229   3.471   0.111 -0.0291 -0.0237  0.3164
  137RES   C10538457   4.241   3.362   0.029 -0.3636 -1.2074 -0.0667
  137RES   H10638458   4.326   3.867   7.816  0.4828 -2.5894  0.7205
  137RES   H10738459   4.162   3.831   7.756 -0.3166 -0.4901  0.4843
  137RES   H10838460   4.291   3.723   0.194 -0.3765  0.9932 -0.4009
  137RES   H10938461   4.290   3.609   7.785 -1.6257 -0.4544 -0.2252
  137RES   H11038462   4.114   3.589   7.812 -1.3688 -0.3414  1.2301
  137RES   H11138463   4.334   3.370   7.789 -0.2643 -0.3672  0.2092
  137RES   H11238464   4.162   3.352   7.772 -1.5223  0.8425  0.8664
  137RES   H11338465   4.246   3.270   0.086 -0.4587 -1.1756 -0.0080
  137RES   O11438466   4.083   3.731   0.195 -0.1277  0.0221 -0.2177
  137RES   C11538467   4.072   3.642   0.301 -0.1775  1.1845  0.0837
  137RES   C11638468   3.951   3.663   0.387  0.2159 -0.3516 -0.3544
  137RES   C11738469   3.826   3.622   0.309  0.1713 -0.0181  0.1337
  137RES   O11838470   3.713   3.658   0.370  0.2597  0.8746 -0.0422
  137RES   C11938471   3.595   3.657   0.281  1.1959 -0.2728 -0.5330
  137RES   H12038472   4.065   3.541   0.261  0.6594  1.5220 -0.9544
  137RES   H12138473   4.159   3.650   0.367 -0.7080  0.4073  0.8861
  137RES   H12238474   3.945   3.762   0.432  1.0706  0.0006 -1.0195
  137RES   H12338475   3.828   3.677   0.215 -0.4276 -0.5002 -0.1648
  137RES   H12438476   3.834   3.515   0.290  0.2308  0.1541 -0.8602
  137RES   H12538477   3.572   3.551   0.273 -1.1271 -0.0830  2.8814
  137RES   H12638478   3.606   3.696   0.180  1.5374 -1.0503 -0.7933
  137RES   H12738479   3.511   3.707   0.329  0.4240 -1.8352 -0.2436
  137RES   O12838480   3.980   3.581   0.503 -0.1302 -0.1891  0.4515
  137RES   C12938481   3.906   3.606   0.625  0.3746 -0.9146  0.3742
  137RES   C13038482   3.949   3.497   0.735  0.5423 -0.1751 -0.1188
  137RES   C13138483   3.857   3.509   0.853 -0.8050  0.0274  0.3828
  137RES   O13238484   3.867   3.391   0.940 -0.0513 -0.7217 -0.5572
  137RES   C13338485   3.776   3.288   0.913  0.4409 -0.1684 -0.1584
  137RES   H13438486   3.928   3.707   0.660  1.0598 -1.3481  1.2195
  137RES   H13538487   3.803   3.586   0.595  0.4809  0.7458 -1.1508
  137RES   H13638488   3.956   3.396   0.696 -0.6478 -0.7666  1.1369
  137RES   H13738489   3.755   3.529   0.821 -0.5414  1.7011  0.5502
  137RES   H13838490   3.884   3.605   0.898  1.6334 -0.1634 -0.5828
  137RES   H13938491   3.770   3.262   0.808 -1.7960 -0.3840  0.0085
  137RES   H14038492   3.795   3.197   0.971 -0.3862 -0.9588 -1.1170
  137RES   H14138493   3.684   3.334   0.947  1.0862 -0.0222  1.4777
  137RES   O14238494   4.080   3.533   0.778 -0.2006 -0.4467  0.4352
  137RES   C14338495   4.149   3.431   0.858  0.1614  0.4262  0.3456
  137RES   C14438496   4.295   3.406   0.828  0.8615 -0.5664 -0.1632
  137RES   C14538497   4.314   3.373   0.678  0.1124  0.0241  0.9446
  137RES   O14638498   4.456   3.374   0.629  0.7859  0.7763 -0.1349
  137RES   C14738499   4.510   3.509   0.608 -0.3403 -0.0262  0.0818
  137RES   H14838500   4.142   3.444   0.966 -0.9306  0.8957  0.2277
  137RES   H14938501   4.104   3.333   0.844  2.3830 -0.6289  0.4261
  137RES   H15038502   4.361   3.489   0.852 -0.1033  0.4883 -1.0951
  137RES   H15138503   4.260   3.440   0.611  1.8321 -0.4513 -0.9780
  137RES   H15238504   4.281   3.273   0.654 -1.1106  0.7317 -0.3937
  137RES   H15338505   4.608   3.494   0.563 -0.3683 -1.6860  0.5075
  137RES   H15438506   4.524   3.571   0.697  1.7678 -0.4935  0.1014
  137RES   H15538507   4.446   3.565   0.540  1.5246  2.8158  0.6048
  137RES   O15638508   4.343   3.301   0.911 -0.0467  0.4678 -0.2991
  137RES   C15738509   4.482   3.293   0.949 -0.3373  0.6255 -1.0686
  137RES   C15838510   4.498   3.146   0.995  0.0170 -0.5754  0.6479
  137RES   C15938511   4.619   3.119   1.089 -0.0776  0.2864 -0.5808
  137RES   O16038512   4.611   2.985   1.139 -0.1319 -0.1038 -0.0821
  137RES   C16138513   4.704   2.949   1.235 -0.1096  0.2589 -0.5508
  137RES   H16238514   4.549   3.309   0.865 -1.8196 -1.6583 -2.7415
  137RES   H16338515   4.493   3.356   1.037  0.4275  0.0953 -0.7868
  137RES   H16438516   4.411   3.115   1.054 -0.1917  2.4021  2.0098
  137RES   H16538517   4.712   3.127   1.032 -1.1205  0.7835 -2.2638
  137RES   H16638518   4.619   3.192   1.169 -0.4337 -0.9312  0.5320
  137RES   H16738519   4.685   3.019   1.316 -1.5496 -1.7320  0.9153
  137RES   H16838520   4.804   2.958   1.195 -0.5618 -1.3017 -2.0862
  137RES   H16938521   4.688   2.847   1.273 -0.1338 -0.1087 -1.5358
  137RES   O17038522   4.525   3.056   0.891  0.3749 -0.2079 -0.1387
  137RES   C17138523   4.405   3.018   0.827  0.1707  0.0349  0.1946
  137RES   C17238524   4.441   2.937   0.703  0.2695  0.0623  0.7759
  137RES   C17338525   4.481   3.035   0.585 -0.2516 -0.2333 -0.3160
  137RES   O17438526   4.594   2.994   0.508  0.1093  0.3069  0.0656
  137RES   C17538527   4.661   3.097   0.438  0.2034  0.2742 -0.2813
  137RES   H17638528   4.340   3.097   0.790  0.6401 -1.1841 -3.4431
  137RES   H17738529   4.347   2.957   0.897 -1.7289 -0.3318 -1.6456
  137RES   H17838530   4.528   2.875   0.726  1.4843  1.2564 -0.4320
  137RES   H17938531   4.391   3.059   0.528 -1.4154  2.6983  2.6114
  137RES   H18038532   4.506   3.135   0.618  0.1266 -0.2056 -0.6875
  137RES   H18138533   4.585   3.148   0.380  0.4526  0.8524 -0.0963
  137RES   H18238534   4.735   3.054   0.370 -2.0678 -1.5031 -1.7230
  137RES   H18338535   4.709   3.166   0.508  0.0747  0.8507 -0.7613
  137RES   O18438536   4.320   2.866   0.667 -0.2228  0.0004  0.1594
  137RES   C18538537   4.329   2.728   0.699  0.2450 -0.4394  0.4161
  137RES   C18638538   4.215   2.655   0.631 -0.3399  0.4194 -0.7061
  137RES   C18738539   4.184   2.526   0.697 -0.7227  0.2062  0.2400
  137RES   O18838540   4.288   2.429   0.714  0.0775  0.1091 -0.3646
  137RES   C18938541   4.297   2.324   0.616  0.6344  0.2701 -0.7748
  137RES   H19038542   4.339   2.710   0.806  0.3799 -0.5491  0.3856
  137RES   H19138543   4.423   2.689   0.660  1.6147  0.8852  2.3044
  137RES   H19238544   4.125   2.716   0.632 -0.4845  0.2139  2.8241
  137RES   H19338545   4.099   2.479   0.647  0.3592 -0.9684 -0.5052
  137RES   H19438546   4.157   2.554   0.799  1.6520 -0.7370  1.1708
  137RES   H19538547   4.206   2.264   0.622  0.3338  0.6423 -1.5669
  137RES   H19638548   4.310   2.369   0.517 -0.8463  0.9481 -0.6600
  137RES   H19738549   4.391   2.269   0.632  0.4972 -0.0428 -1.0303
  137RES   O19838550   4.241   2.617   0.497  0.1161 -0.2046 -0.0536
  137RES   C19938551   4.243   2.717   0.408 -0.6158  0.2905  0.0127
  137RES   C20038552   4.331   2.661   0.297 -0.6599 -0.2759  0.1615
  137RES   C20138553   4.467   2.719   0.337  0.8878 -0.2531  0.4041
  137RES   O20238554   4.571   2.683   0.238  0.1327  0.3586  0.2134
  137RES   C20338555   4.701   2.733   0.282 -0.5784 -0.3129 -0.3806
  137RES   H20438556   4.261   2.819   0.442 -1.9282  0.0082  1.6450
  137RES   H20538557   4.144   2.735   0.367 -0.0535 -1.7638 -2.3555
  137RES   H20638558   4.343   2.553   0.288  0.4080 -0.0808 -0.7747
  137RES   H20738559   4.466   2.828   0.337 -1.3591 -0.2306  1.0570
  137RES   H20838560   4.501   2.692   0.436  0.0493  0.9666  1.0422
  137RES   H20938561   4.771   2.717   0.199 -1.0230  1.3627 -1.0973
  137RES   H21038562   4.736   2.671   0.365  1.4884 -1.2457 -1.9020
  137RES   H21138563   4.700   2.839   0.310 -0.3681 -0.3823 -0.1010
  137RES   O21238564   4.270   2.705   0.171  0.2296 -0.6675 -0.1314
  137RES   C21338565   4.312   2.635   0.053  0.4868  0.7231  0.0359
  137RES   C21438566   4.196   2.522   0.027 -0.5966  0.2778  0.5090
  137RES   C21538567   4.245   2.401   7.762 -0.2435  0.6779 -0.3261
  137RES   O21638568   4.280   2.295   0.031  0.2295 -0.2235 -0.0740
  137RES   C21738569   4.177   2.219   0.093  0.2102  0.0636  0.1483
  137RES   H21838570   4.410   2.588   0.061  0.0295 -0.4606 -1.1225
  137RES   H21938571   4.313   2.710   7.791  1.0449  0.9292  0.2358
  137RES   H22038572   4.148   2.507   0.123  0.3786 -2.0934  0.6561
  137RES   H22138573   4.182   2.368   7.679  0.0143 -1.4703  0.3169
  137RES   H22238574   4.336   2.430   7.710 -0.8382  0.8025 -1.2966
  137RES   H22338575   4.104   2.189   0.018  1.8833 -1.4584 -0.9070
  137RES   H22438576   4.135   2.284   0.170 -0.0552  0.3400 -0.2234
  137RES   H22538577   4.202   2.132   0.152 -1.3803  0.7621  1.9033
  137RES   O22638578   4.107   2.589   7.756 -0.1092  0.2563 -0.5223
  137RES   C22738579   3.980   2.632   7.798 -0.5559 -0.0095  0.2709
  137RES   C22838580   3.912   2.688   7.679  0.6952  0.1279  0.6015
  137RES   C22938581   3.760   2.655   7.693  0.2075  0.5005 -0.3217
  137RES   O23038582   3.709   2.700   7.566  0.3731  0.0282 -0.4596
  137RES   C23138583   3.586   2.638   7.543  0.3068  0.5662  0.4469
  137RES   H23238584   3.991   2.701   0.064  2.0765 -3.2766  2.8127
  137RES   H23338585   3.933   2.542   0.022 -0.4599  1.1017  2.8874
  137RES   H23438586   3.954   2.638   7.591  1.7580 -0.7904  1.6120
  137RES   H23538587   3.723   2.705   7.782  2.3310  0.6413  0.5046
  137RES   H23638588   3.749   2.548   7.710  0.7348  0.6087  0.7588
  137RES   H23738589   3.521   2.685   7.469  1.0124 -0.0513 -0.5848
  137RES   H23838590   3.522   2.624   7.630 -1.8236 -1.4368 -1.3888
  137RES   H23938591   3.598   2.537   7.504  0.1047  0.7291 -0.0441
  137RES   O24038592   3.931   2.830   7.692  0.3704 -0.5988 -0.0327
  137RES   C24138593   4.036   2.881   7.617  0.6734  0.2275  0.6078
  137RES   C24238594   4.085   3.005   7.688  0.3894  0.8157 -0.7358
  137RES   C24338595   4.167   2.961   7.806  0.0873 -0.3061 -0.3853
  137RES   O24438596   4.177   3.063   0.085  0.4578  0.3976  0.5743
  137RES   C24538597   4.228   3.008   0.203 -0.3129 -0.3204 -0.3311
  137RES   H24638598   3.995   2.907   7.519  0.6992 -0.9067  0.2919
  137RES   H24738599   4.118   2.810   7.605  0.7836  0.2809  1.0361
  137RES   H24838600   3.997   3.059   7.724 -0.5297  0.1743 -1.9983
  137RES   H24938601   4.103   2.890   0.042  0.0260  0.1078  0.0940
  137RES   H25038602   4.263   2.913   7.785 -0.1521 -1.4521  1.0208
  137RES   H25138603   4.256   3.085   0.275  1.3181  0.9732 -2.2622
  137RES   H25238604   4.318   2.952   0.175 -0.4829 -0.0989 -1.3462
  137RES   H25338605   4.165   2.928   0.241 -0.5873 -0.5963 -1.3353
  137RES   O25438606   4.162   3.094   7.609  0.1205 -0.1076  0.0053
  137RES   C25538607   4.096   3.177   7.520  0.3198 -0.0882 -0.7310
  137RES   C25638608   4.181   3.223   7.399  0.8150 -0.0289  0.6368
  137RES   C25738609   4.090   3.285   7.295 -0.4329  0.6678 -0.8768
  137RES   O25838610   4.175   3.327   7.190  0.8338 -0.0790 -0.3357
  137RES   C25938611   4.102   3.419   7.105 -0.0249  0.1051  0.2961
  137RES   H26038612   4.003   3.121   7.505 -1.1558  1.8615  0.7183
  137RES   H26138613   4.062   3.263   7.578  0.0207 -0.0302 -0.9935
  137RES   H26238614   4.222   3.134   7.350 -0.2862 -0.2481  0.1129
  137RES   H26338615   4.016   3.215   7.258  1.4049 -1.6863 -0.2090
  137RES   H26438616   4.027   3.370   7.323 -0.8123  0.3264 -0.6981
  137RES   H26538617   4.016   3.381   7.049  1.7623 -0.0498 -2.3814
  137RES   H26638618   4.178   3.451   7.035 -1.8369 -1.0898 -2.3390
  137RES   H26738619   4.085   3.510   7.162  3.0253  1.0133 -0.1992
  137RES   O26838620   4.278   3.315   7.447 -0.4991  0.1937 -0.3992
  137RES   C26938621   4.407   3.250   7.480 -0.3421 -0.4734 -0.2694
  137RES   C27038622   4.505   3.347   7.535  0.4201 -0.3552  0.0888
  137RES   C27138623   4.620   3.290   7.618 -0.9000 -0.6078  0.3854
  137RES   O27238624   4.704   3.400   7.647 -0.1988 -0.4867  0.5029
  137RES   C27338625   4.824   3.352   7.708  0.3605  0.8645 -0.2848
  137RES   H27438626   4.446   3.186   7.401  0.5416 -0.5194  0.1989
  137RES   H27538627   4.392   3.168   7.550 -2.2114 -1.1376 -1.4094
  137RES   H27638628   4.553   3.399   7.452  0.7877  2.3020  1.8984
  137RES   H27738629   4.671   3.222   7.550 -1.0443  0.2271 -0.5672
  137RES   H27838630   4.591   3.237   7.709 -0.0233  0.5051  1.3405
  137RES   H27938631   4.889   3.439   7.703 -0.5992  1.6312  0.3828
  137RES   H28038632   4.868   3.266   7.657  1.0925  0.6059  0.7701
  137RES   H28138633   4.820   3.341   7.816  4.0124  4.7343  0.3946
  137RES   H28238634   4.441   3.411   7.597  0.3291  0.5799 -0.9576
  138RES     O138635   1.402   7.778   6.867 -0.0070 -0.2458 -0.6276
  138RES     C238636   1.435   7.646   6.828  0.0979 -0.1382 -0.5372
  138RES     C338637   1.378   7.550   6.939 -0.0735  0.0461  0.2465
  138RES     C438638   1.394   7.402   6.907 -0.1847 -0.7077  0.1655
  138RES     O538639   1.276   7.340   6.951  0.2918  0.0254  0.0853
  138RES     C638640   1.292   7.201   6.986  0.0786  0.0203 -0.6904
  138RES     H738641   1.389   7.598   6.741 -4.2492  0.9575  1.0657
  138RES     H838642   1.543   7.630   6.825 -0.0705 -1.4924  0.0393
  138RES     H938643   1.271   7.564   6.955  0.1761 -1.8459  4.4962
  138RES    H1038644   1.482   7.358   6.953  0.5503  0.1039 -0.4486
  138RES    H1138645   1.414   7.378   6.803  0.4385 -1.6014  0.4893
  138RES    H1238646   1.335   7.149   6.900 -0.6583 -0.5970 -0.6953
  138RES    H1338647   1.370   7.190   7.062 -0.5797  0.7373  0.0833
  138RES    H1438648   1.214   7.139   7.031  0.2356  0.9725  0.9533
  138RES    H1538649   1.395   7.770   6.961  0.4212 -2.3889 -0.7646
  138RES    O1638650   1.443   7.584   7.063  0.1168  0.2651 -0.5612
  138RES    C1738651   1.387   7.526   7.184  0.2486  0.0889 -0.1922
  138RES    C1838652   1.503   7.511   7.277 -0.0969 -0.2733 -0.3208
  138RES    C1938653   1.448   7.518   7.425  0.5603 -0.0429  0.0854
  138RES    O2038654   1.553   7.527   7.518 -0.2179  0.4288 -0.0756
  138RES    C2138655   1.512   7.528   7.657  0.7602 -0.3263 -0.2266
  138RES    H2238656   1.337   7.431   7.164  0.6295 -0.3929  1.0946
  138RES    H2338657   1.315   7.596   7.225  0.4149  0.8608 -1.2120
  138RES    H2438658   1.571   7.596   7.283 -1.1610  0.4469  1.8623
  138RES    H2538659   1.390   7.609   7.436 -1.5604 -1.2398 -0.8759
  138RES    H2638660   1.386   7.431   7.446  0.2167  0.6045  1.8166
  138RES    H2738661   1.494   7.432   7.705  2.2088  0.1334  1.2847
  138RES    H2838662   1.415   7.579   7.666  1.0272  0.2709 -0.6743
  138RES    H2938663   1.590   7.573   7.718  0.2819  0.2001  0.0005
  138RES    O3038664   1.574   7.393   7.262 -0.6387 -0.2660 -0.2138
  138RES    C3138665   1.687   7.385   7.178  0.3042 -0.3509 -0.6726
  138RES    C3238666   1.745   7.238   7.169 -0.3449  0.7355  0.2950
  138RES    C3338667   1.633   7.126   7.178  0.4053 -0.1675 -0.0608
  138RES    O3438668   1.616   7.056   7.052 -0.0670 -0.3693  0.4919
  138RES    C3538669   1.526   6.944   7.063 -1.0616 -0.2177  0.0261
  138RES    H3638670   1.660   7.410   7.075 -3.2623 -1.6129 -0.1079
  138RES    H3738671   1.773   7.452   7.187 -0.2794  0.3687 -0.4872
  138RES    H3838672   1.812   7.217   7.086 -1.0164  0.5908 -0.2175
  138RES    H3938673   1.540   7.169   7.215  0.1243 -0.2669 -0.6450
  138RES    H4038674   1.659   7.053   7.255  0.4066 -1.1125 -0.9518
  138RES    H4138675   1.542   6.878   6.978  0.2582 -0.7566  0.6931
  138RES    H4238676   1.423   6.980   7.074 -0.8533  0.1398  0.8153
  138RES    H4338677   1.555   6.879   7.145  3.1781  0.1416 -1.1132
  138RES    O4438678   1.835   7.212   7.281  0.1772 -0.8732  0.1930
  138RES    C4538679   1.796   7.269   7.411 -0.1370 -0.0934  0.1826
  138RES    C4638680   1.851   7.219   7.536  0.1390  0.5910  0.2784
  138RES    C4738681   1.812   7.306   7.663 -0.0145 -0.0710  0.6339
  138RES    O4838682   1.904   7.297   7.761  0.4255  0.2194  0.0690
  138RES    C4938683   1.874   7.359   0.071  0.2187 -0.1503  0.6266
  138RES    H5038684   1.688   7.255   7.422  0.0359 -0.7056  1.1236
  138RES    H5138685   1.816   7.376   7.408  1.9552 -0.4973 -0.8053
  138RES    H5238686   1.959   7.222   7.521 -0.0662  0.3020 -1.4566
  138RES    H5338687   1.809   7.410   7.632 -3.3768 -0.7183 -1.4934
  138RES    H5438688   1.709   7.288   7.690  0.1793  0.1188  1.5020
  138RES    H5538689   1.849   7.464   0.058  0.4186 -0.1217  0.4590
  138RES    H5638690   1.956   7.347   0.142  1.8040  2.6760 -0.6314
  138RES    H5738691   1.789   7.320   0.126  1.3208  1.6747  3.7760
  138RES    O5838692   1.799   7.087   7.542 -0.6556  0.2865 -0.8628
  138RES    C5938693   1.875   7.018   7.635 -0.1521 -0.3683  0.3317
  138RES    C6038694   1.837   6.870   7.639 -0.1129  0.5596 -0.3022
  138RES    C6138695   1.886   6.812   7.774 -0.5343  0.2197  0.3048
  138RES    O6238696   1.832   6.688   7.808  0.0981  0.1470 -0.5434
  138RES    C6338697   1.699   6.695   0.042 -0.7190  0.6162  0.0512
  138RES    H6438698   1.864   7.056   7.737 -1.2836 -1.6239  0.6882
  138RES    H6538699   1.983   7.029   7.624 -0.2046 -2.0361 -2.2365
  138RES    H6638700   1.728   6.860   7.641 -0.2902  2.0966 -1.4455
  138RES    H6738701   1.994   6.793   7.768 -0.5612  0.2989 -0.5187
  138RES    H6838702   1.865   6.881   0.038 -0.7030 -0.3750  0.7708
  138RES    H6938703   1.703   6.737   0.143  2.2738  0.3420  0.0934
  138RES    H7038704   1.658   6.598   0.069 -3.9494  1.9051  0.0004
  138RES    H7138705   1.629   6.744   7.792 -0.3228  1.3317  0.1553
  138RES    O7238706   1.887   6.799   7.524 -0.3081  0.8347  0.3094
  138RES    C7338707   1.819   6.815   7.397  0.1866  0.2539 -0.0255
  138RES    C7438708   1.849   6.689   7.307 -0.2484  0.1717  0.1211
  138RES    C7538709   1.853   6.733   7.160 -0.1583 -0.0727 -0.5124
  138RES    O7638710   1.936   6.646   7.081 -0.4882  0.6647  0.0321
  138RES    C7738711   1.954   6.709   6.948  0.4670 -0.4483  0.3912
  138RES    H7838712   1.711   6.825   7.401  0.2191  1.5476 -1.4535
  138RES    H7938713   1.840   6.911   7.349 -0.0207 -0.1330 -0.8834
  138RES    H8038714   1.948   6.647   7.327 -0.8268 -1.7217 -0.9454
  138RES    H8138715   1.885   6.837   7.152 -0.5657 -0.0386 -1.8743
  138RES    H8238716   1.751   6.738   7.124  0.0617  0.7278 -1.0418
  138RES    H8338717   1.861   6.727   6.893 -0.3309 -1.2794  1.4564
  138RES    H8438718   2.021   6.658   6.879 -1.3555  0.6449 -2.3129
  138RES    H8538719   1.994   6.810   6.961 -1.3983  0.1911  1.3784
  138RES    O8638720   1.741   6.590   7.325 -0.2470  0.5825 -0.2627
  138RES    C8738721   1.749   6.515   7.448 -0.3355 -0.2375 -0.2089
  138RES    C8838722   1.647   6.398   7.454  0.6762 -0.1535  0.1831
  138RES    C8938723   1.665   6.285   7.556 -0.0500 -0.0610  0.8908
  138RES    O9038724   1.578   6.184   7.508 -0.5752  0.5873  0.4467
  138RES    C9138725   1.602   6.052   7.556  0.1344  0.1122 -0.0819
  138RES    H9238726   1.844   6.462   7.444 -0.3354 -0.1484 -1.6140
  138RES    H9338727   1.751   6.583   7.532 -1.3571  0.8043 -1.0080
  138RES    H9438728   1.623   6.354   7.357  0.9790  2.2223 -1.0259
  138RES    H9538729   1.767   6.248   7.550  0.3408  1.0083  0.6838
  138RES    H9638730   1.646   6.310   7.661 -1.9189  1.8146  0.1462
  138RES    H9738731   1.529   5.988   7.506  2.4446 -2.1708 -0.6622
  138RES    H9838732   1.704   6.026   7.525  1.2792  0.1067  3.5070
  138RES    H9938733   1.596   6.040   7.664 -0.8958 -0.3397 -0.1893
  138RES   O10038734   1.532   6.472   7.513  0.4708  0.1636  0.3561
  138RES   C10138735   1.409   6.426   7.464  0.8775  0.2086  0.3566
  138RES   C10238736   1.296   6.530   7.487 -0.1692 -0.5184  0.6341
  138RES   C10338737   1.161   6.448   7.492  0.2328 -0.1145 -0.5153
  138RES   O10438738   1.056   6.543   7.514  0.6898  0.4443 -0.0912
  138RES   C10538739   0.941   6.502   7.451  0.2699  0.1622  0.1856
  138RES   H10638740   1.386   6.336   7.521  1.6313  0.1734  0.6150
  138RES   H10738741   1.415   6.413   7.356  1.6874 -0.2458  0.4539
  138RES   H10838742   1.309   6.589   7.578 -0.0520  0.7924 -0.2235
  138RES   H10938743   1.170   6.380   7.576  1.0653 -0.8830 -1.2074
  138RES   H11038744   1.144   6.386   7.404 -1.6200 -0.7246  0.2415
  138RES   H11138745   0.875   6.588   7.467 -0.8514 -0.8750  1.1886
  138RES   H11238746   0.888   6.416   7.492 -0.5298 -0.3045 -1.7952
  138RES   H11338747   0.951   6.510   7.343  0.8650 -2.1226  0.0430
  138RES   O11438748   1.282   6.611   7.370 -0.1353 -0.0606 -0.2390
  138RES   C11538749   1.377   6.718   7.358  0.6366  0.2812  0.4080
  138RES   C11638750   1.315   6.848   7.407 -0.2877 -0.1672 -0.3692
  138RES   C11738751   1.412   6.931   7.478 -0.0540 -0.3251 -0.0266
  138RES   O11838752   1.339   7.028   7.544  0.0965 -0.3141 -0.1625
  138RES   C11938753   1.404   7.151   7.579  0.6631 -0.0475 -0.1480
  138RES   H12038754   1.467   6.684   7.411 -1.2843 -4.9874  0.5382
  138RES   H12138755   1.396   6.736   7.253 -1.6547  2.5508  0.3400
  138RES   H12238756   1.236   6.835   7.481 -0.3040 -1.3803 -0.5872
  138RES   H12338757   1.457   6.864   7.551  0.6756  1.2277  0.9904
  138RES   H12438758   1.480   6.961   7.397 -1.1405 -1.3683 -1.3435
  138RES   H12538759   1.433   7.208   7.491 -1.2704  0.3390 -0.5583
  138RES   H12638760   1.488   7.128   7.645 -0.1837 -1.4269  0.4880
  138RES   H12738761   1.328   7.205   7.636  2.0973  0.3710  1.3888
  138RES   O12838762   1.267   6.918   7.287  0.0422  0.3991  0.2032
  138RES   C12938763   1.169   6.857   7.202 -0.0874  0.3796 -1.2345
  138RES   C13038764   1.032   6.896   7.261  0.4098 -0.4232 -0.6650
  138RES   C13138765   0.922   6.815   7.194 -0.4600 -0.3542 -0.4401
  138RES   O13238766   0.799   6.823   7.263 -0.4138 -0.7002  0.3137
  138RES   C13338767   0.685   6.787   7.185 -0.2236  0.2853  0.3441
  138RES   H13438768   1.186   6.868   7.095  0.0839  0.2841 -1.2187
  138RES   H13538769   1.165   6.748   7.200  0.9984  0.3295 -0.7689
  138RES   H13638770   1.030   6.871   7.367  0.5450  0.7812 -0.3761
  138RES   H13738771   0.941   6.708   7.189  0.4265 -0.1831 -1.0571
  138RES   H13838772   0.908   6.844   7.089  3.9192 -1.9251 -1.5985
  138RES   H13938773   0.671   6.873   7.120 -0.8560  0.5946  0.8942
  138RES   H14038774   0.701   6.691   7.135  0.2316  0.0431  0.9423
  138RES   H14138775   0.595   6.787   7.246 -1.3044  4.2363 -1.1341
  138RES   O14238776   0.986   7.038   7.234  0.2105  0.2056  0.2480
  138RES   C14338777   1.069   7.134   7.300 -0.5021  0.9948  0.0458
  138RES   C14438778   1.000   7.274   7.316  0.3952  0.6094  0.2739
  138RES   C14538779   0.856   7.251   7.373  0.1084  0.8594  0.3174
  138RES   O14638780   0.821   7.351   7.463 -0.1539  0.3132  0.3812
  138RES   C14738781   0.706   7.325   7.537  0.1075 -0.2787 -0.6461
  138RES   H14838782   1.075   7.087   7.398  0.8905  0.3701 -0.3235
  138RES   H14938783   1.171   7.137   7.261 -0.0865 -2.2362  0.8181
  138RES   H15038784   1.063   7.338   7.378  1.1685  1.9553 -1.8281
  138RES   H15138785   0.856   7.165   7.441 -1.1362 -1.2972 -2.3238
  138RES   H15238786   0.784   7.209   7.303 -0.5090 -1.3605  2.2140
  138RES   H15338787   0.719   7.237   7.600  1.9589  0.3036 -0.1803
  138RES   H15438788   0.628   7.310   7.462 -0.5734  1.8569 -0.4058
  138RES   H15538789   0.695   7.412   7.602  0.4153  1.2863 -2.6321
  138RES   O15638790   1.011   7.338   7.183  0.2021  0.3310 -0.2098
  138RES   C15738791   0.963   7.472   7.170 -0.3576 -0.2661  0.4015
  138RES   C15838792   0.953   7.517   7.020 -0.0622  0.7230 -0.6350
  138RES   C15938793   0.971   7.670   7.007  0.8758  0.5283  0.1395
  138RES   O16038794   1.013   7.705   6.874  0.3512  0.2562 -0.1138
  138RES   C16138795   1.051   0.022   6.861  0.6939  0.4879 -0.7548
  138RES   H16238796   0.863   7.482   7.213 -1.0169  0.4515 -1.2672
  138RES   H16338797   1.034   7.536   7.222  1.9757 -1.6027 -1.1035
  138RES   H16438798   1.041   7.470   6.978  1.6756  1.8841  1.5915
  138RES   H16538799   0.877   7.716   7.037  0.8290  0.4524  0.1092
  138RES   H16638800   1.054   7.702   7.070  2.0171 -2.9156  0.5356
  138RES   H16738801   0.963   0.080   6.887  0.3448 -1.0068  1.5833
  138RES   H16838802   1.082   0.046   6.760 -0.1644 -1.4631 -1.5036
  138RES   H16938803   1.135   0.043   6.928 -0.1536 -1.7710  1.1194
  138RES   O17038804   0.829   7.478   6.957  0.3359 -0.1010 -0.3451
  138RES   C17138805   0.795   7.335   6.984  0.6794  0.1022  0.6089
  138RES   C17238806   0.667   7.293   6.904  0.0201 -0.1652 -0.4860
  138RES   C17338807   0.627   7.150   6.953  0.0944 -0.3424 -0.0667
  138RES   O17438808   0.507   7.107   6.880  0.3562  0.0849  0.1907
  138RES   C17538809   0.434   7.000   6.930 -0.2626 -0.9947  0.1434
  138RES   H17638810   0.771   7.322   7.090  0.7901  2.2527  0.9211
  138RES   H17738811   0.875   7.266   6.958  0.3473  0.7717 -2.3441
  138RES   H17838812   0.589   7.365   6.930 -0.1200 -0.8408  1.0591
  138RES   H17938813   0.705   7.081   6.924 -1.1108 -2.1514  0.9362
  138RES   H18038814   0.608   7.136   7.059 -1.9084  2.8664  0.0958
  138RES   H18138815   0.348   6.973   6.868  0.2290  0.4706 -1.2265
  138RES   H18238816   0.390   7.021   7.028 -0.9551 -0.4000 -0.2819
  138RES   H18338817   0.497   6.916   6.957 -0.0679 -2.0188 -3.2474
  138RES   O18438818   0.704   7.284   6.764  0.1495  0.1559  0.1253
  138RES   C18538819   0.601   7.328   6.679  0.1649 -0.1596  0.2992
  138RES   C18638820   0.647   7.321   6.529  0.2968  0.1653  0.1214
  138RES   C18738821   0.576   7.422   6.440  0.9281 -0.0386 -0.1210
  138RES   O18838822   0.438   7.455   6.476 -0.2472 -0.7414  0.5469
  138RES   C18938823   0.376   7.555   6.402  0.2928 -0.0443  0.4902
  138RES   H19038824   0.580   7.433   6.699 -0.6246  0.0689 -1.6279
  138RES   H19138825   0.517   7.265   6.709  1.5518 -1.9817  0.4940
  138RES   H19238826   0.755   7.333   6.518  0.4253 -0.5962  0.4892
  138RES   H19338827   0.594   7.389   6.337 -0.9265 -1.4581 -0.0106
  138RES   H19438828   0.638   7.510   6.455 -0.1708  0.8385 -0.6401
  138RES   H19538829   0.271   7.559   6.432 -0.0913 -0.8108 -0.7276
  138RES   H19638830   0.415   7.655   6.422  0.1927  0.4182 -1.5188
  138RES   H19738831   0.375   7.550   6.293  1.4455 -0.1671  0.4812
  138RES   O19838832   0.607   7.197   6.467  0.1582 -0.3019  0.6199
  138RES   C19938833   0.679   7.072   6.494  1.1141 -0.5309 -0.0414
  138RES   C20038834   0.632   6.960   6.403  0.1962  0.2738 -0.6246
  138RES   C20138835   0.664   6.816   6.449  0.4300 -0.9847 -0.1602
  138RES   O20238836   0.587   6.728   6.370  0.3319 -0.7634  0.8362
  138RES   C20338837   0.625   6.597   6.401 -0.3236 -0.4339  0.0649
  138RES   H20438838   0.665   7.049   6.600 -2.8054  0.6686 -0.2136
  138RES   H20538839   0.787   7.083   6.488  0.9942  0.6020 -0.3092
  138RES   H20638840   0.525   6.973   6.386  0.1086 -1.4975 -1.4616
  138RES   H20738841   0.771   6.793   6.443  0.5254 -0.6519  0.2238
  138RES   H20838842   0.641   6.809   6.555 -1.5426  2.7576 -0.2746
  138RES   H20938843   0.733   6.584   6.394 -0.0643  1.5583  0.1264
  138RES   H21038844   0.592   6.522   6.329  0.0487  1.5475 -2.2244
  138RES   H21138845   0.614   6.567   6.505  0.0630 -0.0633  0.2137
  138RES   O21238846   0.701   6.971   6.287  0.0428  0.3235 -0.2079
  138RES   C21338847   0.633   6.961   6.166 -0.2009  0.2084  0.2592
  138RES   C21438848   0.738   7.008   6.052 -0.3159 -0.1232  0.3523
  138RES   C21538849   0.664   7.082   5.946  1.0264  0.7193 -0.7502
  138RES   O21638850   0.545   7.013   5.921  0.1015 -0.2529 -0.5840
  138RES   C21738851   0.466   7.092   5.839  0.3800 -0.5223  0.2343
  138RES   H21838852   0.554   7.034   6.182  2.2843  3.2019 -0.4601
  138RES   H21938853   0.583   6.865   6.152  2.8965 -1.4160 -0.1225
  138RES   H22038854   0.815   7.071   6.097 -1.2800  1.3838 -0.0925
  138RES   H22138855   0.651   7.185   5.978  0.0055  0.5654 -0.6330
  138RES   H22238856   0.717   7.066   5.852 -0.9101 -0.7165 -1.6529
  138RES   H22338857   0.508   7.094   5.738 -1.9029 -1.6892 -0.7630
  138RES   H22438858   0.466   7.198   5.864 -2.1852 -0.2973 -0.5870
  138RES   H22538859   0.367   7.047   5.836  1.0293 -1.9193 -1.7562
  138RES   O22638860   0.803   6.890   6.006 -0.0065 -0.5831  1.0369
  138RES   C22738861   0.928   6.863   6.083  0.6158 -0.2134  0.3526
  138RES   C22838862   1.049   6.908   6.003 -0.1894 -0.0473  0.2308
  138RES   C22938863   1.180   6.909   6.076 -0.0938 -0.1444 -0.2416
  138RES   O23038864   1.284   6.960   5.994 -0.0633 -0.1341  0.1415
  138RES   C23138865   1.399   7.011   6.059  0.4221  0.2799  0.3821
  138RES   H23238866   0.930   6.758   6.113  0.8125 -0.9406 -2.0316
  138RES   H23338867   0.931   6.911   6.180  0.8446  0.1388  0.1739
  138RES   H23438868   1.036   7.011   5.969 -0.0381 -0.1389 -0.1040
  138RES   H23538869   1.215   6.815   6.119  1.5795  1.2167  1.4832
  138RES   H23638870   1.174   6.975   6.163  1.9709 -1.5400  1.0069
  138RES   H23738871   1.445   6.925   6.108 -1.5640 -1.2754 -0.4179
  138RES   H23838872   1.357   7.088   6.124 -0.0646  2.1825 -2.1083
  138RES   H23938873   1.469   7.056   5.989  0.9557  1.1141  1.4394
  138RES   O24038874   1.062   6.822   5.885 -0.3914 -0.2948  0.3049
  138RES   C24138875   0.993   6.869   5.770 -1.2988  0.3638  1.4175
  138RES   C24238876   1.043   6.799   5.641  0.2381  0.1676  0.4028
  138RES   C24338877   1.196   6.827   5.613  0.2807 -0.7474 -0.3348
  138RES   O24438878   1.235   6.804   5.474  0.2648 -0.2727  0.2059
  138RES   C24538879   1.372   6.844   5.459  0.2728  0.0532 -0.2145
  138RES   H24638880   1.000   6.977   5.757 -1.2274  0.2800  0.7529
  138RES   H24738881   0.889   6.840   5.780 -1.8811  1.6667 -0.6024
  138RES   H24838882   0.979   6.836   5.561  1.1508 -1.3199 -1.0613
  138RES   H24938883   1.228   6.928   5.638 -3.1748  0.5200 -0.7448
  138RES   H25038884   1.245   6.766   5.689 -0.3770  2.3142  2.6857
  138RES   H25138885   1.397   6.950   5.463  0.1864  0.0487  0.5016
  138RES   H25238886   1.406   6.816   5.359  0.3105 -0.5619 -0.0355
  138RES   H25338887   1.432   6.804   5.542  0.0803 -1.9343 -1.0120
  138RES   O25438888   1.020   6.659   5.656 -0.3102  0.9350 -0.3968
  138RES   C25538889   1.057   6.571   5.550  0.7743 -0.5446  0.4840
  138RES   C25638890   0.950   6.447   5.549 -0.2777 -0.1330  0.1587
  138RES   C25738891   0.909   6.429   5.400 -0.0721 -0.6774 -0.0202
  138RES   O25838892   0.816   6.321   5.389  0.6640  0.0367  0.5797
  138RES   C25938893   0.782   6.292   5.253 -0.0491  0.0220 -0.3853
  138RES   H26038894   1.039   6.629   5.460 -1.8609 -0.0984  1.2549
  138RES   H26138895   1.160   6.535   5.551  0.4452 -1.5051  0.4083
  138RES   H26238896   0.857   6.475   5.598 -1.0024 -0.0863 -1.2085
  138RES   H26338897   0.853   6.515   5.364  4.2232  2.5067  0.5256
  138RES   H26438898   0.994   6.402   5.338 -0.1995 -0.6525 -0.2063
  138RES   H26538899   0.847   6.220   5.203 -0.8865 -0.8608 -0.2276
  138RES   H26638900   0.760   6.380   5.193 -1.1182 -1.3734 -2.0908
  138RES   H26738901   0.687   6.239   5.251  2.2022 -4.3388 -0.0618
  138RES   O26838902   1.003   6.326   5.601  0.4253 -0.3142 -0.0136
  138RES   C26938903   0.974   6.307   5.740  0.2421 -0.1645 -0.2016
  138RES   C27038904   1.048   6.183   5.797  0.0851  0.2266  0.4627
  138RES   C27138905   1.006   6.056   5.728 -0.3783 -0.1137  0.0436
  138RES   O27238906   1.078   5.958   5.799 -0.0502 -0.7061  0.4917
  138RES   C27338907   1.059   5.826   5.738  0.4190 -0.3238 -0.0256
  138RES   H27438908   0.866   6.297   5.755  0.4000  0.7631  1.6785
  138RES   H27538909   1.010   6.396   5.790  0.5173 -0.2720 -0.2068
  138RES   H27638910   1.155   6.196   5.782  0.1156 -2.1355 -1.6736
  138RES   H27738911   1.031   6.053   5.622  0.3286 -0.8426  0.2290
  138RES   H27838912   0.898   6.043   5.724 -0.5634  1.8106 -2.2871
  138RES   H27938913   0.969   5.776   5.773  1.4198 -2.1614  0.0111
  138RES   H28038914   1.147   5.768   5.768  2.1956  3.2472  1.9582
  138RES   H28138915   1.041   5.835   5.630  0.1451  0.6287  0.0957
  138RES   H28238916   1.038   6.173   5.905 -0.3726 -0.4356  0.3635
  139RES     O138917   6.755   1.158   6.878  0.2518 -0.3911  0.4207
  139RES     C238918   6.624   1.136   6.851 -0.0581  0.6040 -0.5708
  139RES     C338919   6.539   1.228   6.933  0.2075 -0.9080  0.5065
  139RES     C438920   6.390   1.223   6.916 -0.3237  0.0713  0.4631
  139RES     O538921   6.337   1.342   6.884 -0.1177  0.4558 -0.2134
  139RES     C638922   6.192   1.341   6.871 -0.0167 -0.2830  0.0829
  139RES     H738923   6.606   1.130   6.743 -0.9601 -0.9245 -0.3377
  139RES     H838924   6.598   1.034   6.878  0.2237  0.3807 -1.1246
  139RES     H938925   6.575   1.330   6.918  1.1715 -1.6469 -2.5239
  139RES    H1038926   6.342   1.185   7.006 -0.4798 -1.9722 -0.4515
  139RES    H1138927   6.368   1.141   6.848 -1.1256  0.5818  0.1039
  139RES    H1238928   6.162   1.444   6.849 -1.0728 -0.5508  0.2401
  139RES    H1338929   6.151   1.280   6.790 -0.0143  2.5394 -2.1344
  139RES    H1438930   6.162   1.309   6.971  0.0887  1.3566  0.6628
  139RES    H1538931   6.798   1.078   6.905  0.4430 -0.1467  0.8682
  139RES    O1638932   6.564   1.188   7.068  0.8063 -0.6063 -0.3857
  139RES    C1738933   6.544   1.287   7.170 -0.7122  0.6821 -0.0977
  139RES    C1838934   6.671   1.368   7.209  0.0516 -0.2852 -0.1748
  139RES    C1938935   6.646   1.486   7.307 -0.6213 -0.2190  0.2995
  139RES    O2038936   6.557   1.583   7.262 -0.1996  0.3455 -0.4439
  139RES    C2138937   6.567   1.715   7.315  0.2633  1.2791 -0.2556
  139RES    H2238938   6.506   1.230   7.254  0.3494 -0.1577 -0.1794
  139RES    H2338939   6.465   1.356   7.143  0.1675  1.1732 -1.4886
  139RES    H2438940   6.716   1.402   7.116  1.5628 -2.0891 -0.1142
  139RES    H2538941   6.615   1.440   7.401 -2.7456 -0.0960 -0.3228
  139RES    H2638942   6.742   1.534   7.327 -0.2360 -0.5902 -0.6225
  139RES    H2738943   6.481   1.771   7.278 -1.0644 -0.5066  0.0526
  139RES    H2838944   6.663   1.761   7.289 -0.5680  3.3751  0.2777
  139RES    H2938945   6.566   1.712   7.424 -0.4488  1.8530 -0.2453
  139RES    O3038946   6.766   1.276   7.262  0.0672 -0.2846  0.1414
  139RES    C3138947   6.907   1.304   7.253  0.8679 -0.4498  0.1510
  139RES    C3238948   6.993   1.192   7.315 -0.4572 -0.3061  0.2250
  139RES    C3338949   7.134   1.249   7.347 -0.1768  0.4241  0.0921
  139RES    O3438950   7.197   1.160   7.436  0.4565 -0.4407 -0.1049
  139RES    C3538951   7.338   1.160   7.460 -0.0304 -0.1967 -0.9924
  139RES    H3638952   6.937   1.330   7.151 -2.4029 -1.7724 -1.2103
  139RES    H3738953   6.927   1.390   7.317  2.1942  0.2010 -1.1050
  139RES    H3838954   6.948   1.148   7.404  0.9451 -2.0499  0.0812
  139RES    H3938955   7.121   1.350   7.386 -2.5325  0.6266 -1.1484
  139RES    H4038956   7.196   1.248   7.257 -0.5850 -1.3042 -0.1874
  139RES    H4138957   7.388   1.127   7.368 -0.9263  0.7543 -1.8399
  139RES    H4238958   7.366   1.097   7.544 -2.6786 -0.6255 -0.3846
  139RES    H4338959   7.385   1.258   7.474  0.0946 -0.2918 -0.7416
  139RES    O4438960   7.017   1.101   7.210  0.1820 -0.0666 -0.3037
  139RES    C4538961   6.909   1.019   7.185 -0.5049 -0.0064  0.2829
  139RES    C4638962   6.962   0.901   7.093  0.0059 -0.0723 -0.8620
  139RES    C4738963   6.909   0.760   7.151  0.7568 -0.1948 -0.5163
  139RES    O4838964   6.996   0.661   7.110  0.0388  0.3394  0.0845
  139RES    C4938965   6.985   0.539   7.169  0.4695  0.4443 -0.3020
  139RES    H5038966   6.834   1.070   7.124  0.7094  0.1413 -1.1052
  139RES    H5138967   6.855   0.983   7.273 -1.1577  0.0001 -0.1079
  139RES    H5238968   7.070   0.897   7.084  0.0696  0.2179 -0.1996
  139RES    H5338969   6.912   0.754   7.259  2.7796  1.3844 -0.4739
  139RES    H5438970   6.803   0.754   7.125  1.0863 -2.7670 -1.4302
  139RES    H5538971   7.068   0.476   7.136 -0.1191 -1.2085  1.2567
  139RES    H5638972   6.892   0.497   7.128  0.0014  0.9386  0.2495
  139RES    H5738973   6.988   0.532   7.278  1.4187 -0.7443 -0.3886
  139RES    O5838974   6.901   0.924   6.963 -0.0212 -0.5974 -0.4176
  139RES    C5938975   6.961   0.849   6.856  0.4073 -0.2011 -0.2882
  139RES    C6038976   6.918   0.912   6.724  0.3724  0.0511 -0.0199
  139RES    C6138977   6.932   0.800   6.621 -0.8835 -0.0887  0.6333
  139RES    O6238978   6.830   0.809   6.525 -0.6992 -0.1633 -0.1323
  139RES    C6338979   6.801   0.687   6.460 -0.2681  0.1344 -0.2618
  139RES    H6438980   6.926   0.747   6.870  0.6665 -0.1461  0.8192
  139RES    H6538981   7.070   0.843   6.859  0.4358  0.9493  1.7563
  139RES    H6638982   6.816   0.949   6.728  1.9269  4.5808  0.4927
  139RES    H6738983   7.028   0.807   6.570 -0.7172  2.3582  1.2485
  139RES    H6838984   6.941   0.704   6.673 -1.5139  0.8679  2.5688
  139RES    H6938985   6.883   0.665   6.391 -1.8646 -1.4518 -1.7063
  139RES    H7038986   6.711   0.688   6.398 -0.0911  0.5323 -0.5210
  139RES    H7138987   6.783   0.608   6.532 -1.3419  1.6558  1.1764
  139RES    O7238988   7.003   1.019   6.693 -0.2914  0.1632  0.2683
  139RES    C7338989   6.961   1.097   6.586  0.4402  0.3798 -0.1351
  139RES    C7438990   7.079   1.180   6.530 -0.0071  0.5933  0.0718
  139RES    C7538991   7.020   1.272   6.418 -0.1265 -0.4960 -0.6188
  139RES    O7638992   7.107   1.379   6.378  0.0729 -0.3853 -0.0684
  139RES    C7738993   7.105   1.410   6.235  0.5027 -0.1746 -0.4096
  139RES    H7838994   6.922   1.028   6.511  2.1888 -0.4384 -0.3164
  139RES    H7938995   6.879   1.158   6.622 -0.9344 -1.8379  0.6153
  139RES    H8038996   7.140   1.242   6.595  0.2797 -0.6173  0.9800
  139RES    H8138997   6.938   1.321   6.470  1.5291  0.0357  1.5551
  139RES    H8238998   6.981   1.217   6.332  1.1066 -0.8969 -0.9414
  139RES    H8338999   7.130   1.333   6.163  1.0588  1.3922 -1.9236
  139RES    H8439000   7.180   1.489   6.229 -1.9787  2.2411 -0.6573
  139RES    H8539001   7.005   1.448   6.215  0.4115 -0.7917 -1.1276
  139RES    O8639002   7.155   1.095   6.446 -0.3801 -0.0283 -0.1594
  139RES    C8739003   7.266   1.028   6.509 -0.1301  0.6196  0.5114
  139RES    C8839004   7.390   1.124   6.530  1.1617  0.9162  0.1862
  139RES    C8939005   7.497   1.043   6.605 -0.2985 -0.5644 -0.0785
  139RES    O9039006   7.586   1.139   6.643 -0.3275  0.0254  0.5692
  139RES    C9139007   7.710   1.086   6.679  0.3340 -0.0883  0.4646
  139RES    H9239008   7.228   0.979   6.599 -0.5080  1.3204  0.7444
  139RES    H9339009   7.293   0.944   6.445 -1.2670  0.2799  0.4624
  139RES    H9439010   7.370   1.222   6.574  0.5861  0.5796  0.6758
  139RES    H9539011   7.457   0.993   6.693  2.6322 -1.3566  0.8576
  139RES    H9639012   7.547   0.977   6.534 -2.1680  0.2030 -2.1726
  139RES    H9739013   7.705   1.020   6.765 -0.4038 -0.2643  0.2861
  139RES    H9839014   7.764   1.029   6.603  1.9614  1.6357  0.3016
  139RES    H9939015   7.778   1.164   6.712  1.2999  0.0260 -1.6656
  139RES   O10039016   7.443   1.144   6.398  0.3948 -0.5809  0.1927
  139RES   C10139017   7.467   1.280   6.361 -0.2058  0.9393  0.2952
  139RES   C10239018   7.543   1.286   6.230  0.2591 -0.9018 -0.3416
  139RES   C10339019   7.651   1.395   6.224 -0.1570  0.1274 -0.1730
  139RES   O10439020   7.602   1.520   6.263 -0.4576 -0.1525 -0.1250
  139RES   C10539021   7.703   1.629   6.263 -0.8085 -0.1487 -0.2783
  139RES   H10639022   7.517   1.347   6.431 -1.3181 -1.5200  3.5686
  139RES   H10739023   7.367   1.323   6.352 -1.1789 -1.3373 -0.1540
  139RES   H10839024   7.606   1.197   6.228  1.5211 -0.0078 -1.4488
  139RES   H10939025   7.689   1.389   6.122  1.9707 -0.2478  0.6253
  139RES   H11039026   7.717   1.360   6.302  0.7317  1.6266 -0.2328
  139RES   H11139027   7.683   1.719   6.205  1.3895  0.3593 -0.3011
  139RES   H11239028   7.805   1.594   6.243  0.3282  1.9183  1.6281
  139RES   H11339029   7.712   1.673   6.362  2.0914  1.4235 -1.1745
  139RES   O11439030   7.460   1.281   6.110  0.0462 -0.4941 -0.0244
  139RES   C11539031   7.404   1.163   6.069 -0.3366 -0.0787 -0.4589
  139RES   C11639032   7.395   1.144   5.912  0.0883 -0.6793  0.1089
  139RES   C11739033   7.303   1.252   5.848 -0.0745  0.3263  0.6112
  139RES   O11839034   7.304   1.245   5.707 -0.2044  0.5365 -0.0749
  139RES   C11939035   7.212   1.326   5.649 -0.0378  0.2928 -0.4715
  139RES   H12039036   7.471   1.086   6.109 -1.3692  0.0962  1.6628
  139RES   H12139037   7.312   1.133   6.119  0.8840 -2.8053  0.2357
  139RES   H12239038   7.356   1.043   5.895 -0.0736 -0.6170  0.1108
  139RES   H12339039   7.199   1.245   5.880 -0.3634 -3.9171 -0.9401
  139RES   H12439040   7.346   1.348   5.875  0.5186 -0.1612  1.4401
  139RES   H12539041   7.205   1.421   5.702 -1.0212 -0.4293  0.7111
  139RES   H12639042   7.127   1.259   5.664 -0.9183  1.6261  0.5443
  139RES   H12739043   7.229   1.342   5.542  1.9554 -1.2621 -0.4315
  139RES   O12839044   7.521   1.162   5.859 -0.6445  0.1505 -0.2656
  139RES   C12939045   7.585   1.042   5.824  0.2600 -0.0522  0.9281
  139RES   C13039046   7.727   1.074   5.781 -0.5592  0.9316 -0.3727
  139RES   C13139047   7.759   1.013   5.648 -0.8170  0.6250  0.4277
  139RES   O13239048   0.082   1.015   5.617 -0.3970 -0.5404  0.0815
  139RES   C13339049   0.144   0.885   5.618 -0.0849 -0.2547  0.0953
  139RES   H13439050   7.590   0.966   5.902  2.1697 -0.3689  0.5121
  139RES   H13539051   7.541   0.991   5.739 -0.8153  0.7753  0.9845
  139RES   H13639052   7.747   1.180   5.768 -0.3434  0.9631  0.1985
  139RES   H13739053   7.718   1.082   5.575  0.7271  0.3248 -0.7505
  139RES   H13839054   7.729   0.908   5.640 -1.3114  1.0141 -3.8292
  139RES   H13939055   0.106   0.818   5.540  1.6833  0.3867 -1.3478
  139RES   H14039056   0.250   0.891   5.593 -0.1439  0.8025  0.0920
  139RES   H14139057   0.123   0.843   5.716 -1.4615 -0.3755 -0.2406
  139RES   O14239058   0.001   1.021   5.875 -0.1408 -0.0041  0.1415
  139RES   C14339059   0.016   1.109   5.988  0.4110 -0.3431  0.0079
  139RES   C14439060   0.129   1.035   6.076  0.5279  0.1340  1.3382
  139RES   C14539061   0.111   1.095   6.220 -0.2014  0.7492  0.0912
  139RES   O14639062   7.799   1.062   6.273  0.3659 -0.3948 -0.2221
  139RES   C14739063   7.774   0.927   6.307 -0.0257  0.6821 -0.2192
  139RES   H14839064   0.045   1.213   5.976  0.1276 -0.2013  0.5507
  139RES   H14939065   7.738   1.116   6.040 -0.2602  1.6833 -1.4634
  139RES   H15039066   0.114   0.927   6.069  2.6255 -0.2183  1.9944
  139RES   H15139067   0.134   1.201   6.225  1.8871  0.3233 -0.0882
  139RES   H15239068   0.182   1.059   6.294  1.1028  0.8333 -1.0892
  139RES   H15339069   0.050   0.891   6.350 -0.3176  1.1054  0.7927
  139RES   H15439070   7.735   0.872   6.221  1.2801  1.0154 -1.0179
  139RES   H15539071   7.689   0.937   6.375  0.3915  0.2660  0.3753
  139RES   O15639072   0.254   1.083   6.029  0.6987 -0.4581 -0.2987
  139RES   C15739073   0.293   1.047   5.896  0.7435  0.2076 -1.4573
  139RES   C15839074   0.444   1.068   5.887 -0.1520  0.1948 -0.0386
  139RES   C15939075   0.491   1.059   5.741  0.5259  0.3709 -0.1074
  139RES   O16039076   0.601   1.141   5.709  0.0502 -0.2592 -0.4395
  139RES   C16139077   0.575   1.274   5.680  0.5314  0.0998 -0.0827
  139RES   H16239078   0.273   0.941   5.884 -0.9078  0.5424 -1.6920
  139RES   H16339079   0.231   1.107   5.829  0.2134 -0.4082 -1.5265
  139RES   H16439080   0.467   1.170   5.918  1.4485  0.0194 -0.5861
  139RES   H16539081   0.517   0.954   5.728  0.9401  0.4633 -0.0349
  139RES   H16639082   0.414   1.069   5.665 -0.2706 -1.0059  0.4894
  139RES   H16739083   0.540   1.299   5.580 -3.0030 -0.2297  1.0318
  139RES   H16839084   0.659   1.343   5.676 -0.0778  0.8537  0.0525
  139RES   H16939085   0.513   1.326   5.753  1.5397  1.1444  0.0461
  139RES   O17039086   0.522   0.966   5.946  0.5226  0.4509 -0.3268
  139RES   C17139087   0.632   1.019   6.019 -0.5730 -0.3665 -0.4368
  139RES   C17239088   0.715   0.922   6.102 -0.0960  0.0230  0.3349
  139RES   C17339089   0.794   0.993   6.219 -0.2963 -0.1076 -1.0772
  139RES   O17439090   0.837   0.885   6.305 -0.4195  0.3480  0.4257
  139RES   C17539091   0.939   0.912   6.396 -0.4676 -0.4206 -0.0047
  139RES   H17639092   0.586   1.083   6.095  1.8201 -1.1892  1.7806
  139RES   H17739093   0.685   1.089   5.955 -1.3202  0.0425 -0.6142
  139RES   H17839094   0.639   0.855   6.142 -0.1883 -0.3733 -0.4983
  139RES   H17939095   0.882   1.045   6.181 -0.3414 -0.3971 -1.5815
  139RES   H18039096   0.728   1.062   6.270 -1.7290 -2.1786 -0.0608
  139RES   H18139097   0.939   0.837   6.476 -0.3591 -1.4548 -0.9590
  139RES   H18239098   0.926   1.011   6.440  0.0743  0.6528 -2.2130
  139RES   H18339099   1.029   0.895   6.337  0.0255 -0.7702  0.8382
  139RES   O18439100   0.806   0.865   6.008  0.0842  0.2379 -0.2039
  139RES   C18539101   0.809   0.726   6.012  0.2114  0.1549  0.4291
  139RES   C18639102   0.719   0.653   5.909 -0.0553 -0.0300  0.3801
  139RES   C18739103   0.725   0.500   5.915  0.8746  0.5414 -0.6706
  139RES   O18839104   0.603   0.434   5.880 -0.0919 -0.6052 -0.2665
  139RES   C18939105   0.574   0.434   5.740 -0.7034  0.0410  0.1097
  139RES   H19039106   0.796   0.688   6.113  1.8132 -1.0351  0.1968
  139RES   H19139107   0.913   0.702   5.994 -0.0051 -0.0379 -0.6302
  139RES   H19239108   0.615   0.684   5.917 -0.3140 -0.5229 -0.9759
  139RES   H19339109   0.745   0.456   6.012 -3.6479  1.0849  0.6433
  139RES   H19439110   0.814   0.473   5.859  1.2658 -1.4425  0.8708
  139RES   H19539111   0.538   0.534   5.716  0.4152 -0.0418 -2.0123
  139RES   H19639112   0.666   0.432   5.682 -1.7393 -0.9519 -1.5282
  139RES   H19739113   0.520   0.343   5.712  1.0289 -0.8924 -0.2769
  139RES   O19839114   0.767   0.678   5.772 -0.0503  0.2018  0.1257
  139RES   C19939115   0.707   0.795   5.713 -0.7091 -0.2385 -0.1662
  139RES   C20039116   0.729   0.779   5.561 -0.0150  0.5921 -0.1289
  139RES   C20139117   0.662   0.889   5.482 -0.3292 -0.4937  0.1266
  139RES   O20239118   0.524   0.866   5.474 -0.0141  0.0306  0.5664
  139RES   C20339119   0.452   0.949   5.385 -0.2599  0.1380  0.5112
  139RES   H20439120   0.734   0.892   5.755  1.0799 -1.0384  0.5762
  139RES   H20539121   0.598   0.787   5.712 -0.6936 -0.3182 -1.7903
  139RES   H20639122   0.833   0.802   5.540  0.2223  0.3508  0.7720
  139RES   H20739123   0.688   0.985   5.526  0.2814  0.1174 -1.5362
  139RES   H20839124   0.703   0.893   5.381 -0.3860 -3.7008 -0.0972
  139RES   H20939125   0.495   0.934   5.286 -0.2437 -1.3206  0.7372
  139RES   H21039126   0.454   1.055   5.414 -1.8193  1.3111 -3.3747
  139RES   H21139127   0.350   0.912   5.389 -0.5452  0.6353 -1.4816
  139RES   O21239128   0.689   0.652   5.524 -0.3000 -1.1482  0.4759
  139RES   C21339129   0.755   0.598   5.409  0.1363 -0.0550 -0.4533
  139RES   C21439130   0.676   0.483   5.354  0.4145  0.4256  0.1142
  139RES   C21539131   0.760   0.396   5.258 -0.3883  1.0170  0.3707
  139RES   O21639132   0.692   0.279   5.220  0.0898  0.1608  0.4510
  139RES   C21739133   0.758   0.153   5.229  0.3392 -0.5780 -0.8347
  139RES   H21839134   0.854   0.564   5.439  1.0154  2.0262 -0.9436
  139RES   H21939135   0.758   0.670   5.328 -2.5722 -0.5205 -1.0318
  139RES   H22039136   0.655   0.413   5.435  0.4024 -0.0988 -0.3336
  139RES   H22139137   0.805   0.454   5.177 -0.5221 -1.7042 -1.7163
  139RES   H22239138   0.843   0.362   5.320 -0.2336  0.4253 -0.1574
  139RES   H22339139   0.768   0.133   5.336 -0.8414  0.5405 -0.4968
  139RES   H22439140   0.855   0.140   5.183  1.8495  1.8673  1.5379
  139RES   H22539141   0.681   0.080   5.203 -0.2950 -0.0459 -0.4657
  139RES   O22639142   0.564   0.524   5.290  0.6048  0.7297  0.5645
  139RES   C22739143   0.447   0.559   5.364 -0.4000  0.0493 -0.0200
  139RES   C22839144   0.370   0.438   5.419  0.5120 -0.0250 -0.3140
  139RES   C22939145   0.283   0.474   5.536  0.4592  0.1172  0.2936
  139RES   O23039146   0.219   0.360   5.584 -0.3211 -0.9866 -0.2102
  139RES   C23139147   0.127   0.390   5.690  0.4755  0.4037  0.3221
  139RES   H23239148   0.383   0.609   5.291 -0.4806  1.1790  0.8054
  139RES   H23339149   0.465   0.629   5.446  0.2911 -1.2376  0.9440
  139RES   H23439150   0.444   0.369   5.459  1.0151  2.0455  2.4711
  139RES   H23539151   0.215   0.556   5.510  2.5106  1.8550  0.2121
  139RES   H23639152   0.344   0.520   5.614  0.6836  1.0190 -0.4010
  139RES   H23739153   0.055   0.314   5.719 -0.9090  0.1792 -3.5392
  139RES   H23839154   0.064   0.472   5.655 -0.0629  0.0845  0.5414
  139RES   H23939155   0.174   0.424   5.783  0.8101  1.8768 -0.3744
  139RES   O24039156   0.292   0.370   5.319  0.0470  0.0049 -0.0029
  139RES   C24139157   0.377   0.286   5.228 -0.1420  0.1767  0.0084
  139RES   C24239158   0.291   0.193   5.148  0.1697 -0.6599 -0.0141
  139RES   C24339159   0.365   0.125   5.020  0.3087  0.2165  0.1140
  139RES   O24439160   0.272   0.076   4.924 -0.4062 -0.1405  0.0540
  139RES   C24539161   0.317   7.772   4.864  0.1200  0.5424 -0.6035
  139RES   H24639162   0.458   0.232   5.277  0.0545 -0.5108 -1.0601
  139RES   H24739163   0.407   0.368   5.162 -0.3714  0.7208  0.5730
  139RES   H24839164   0.206   0.251   5.114 -0.0970 -2.1429 -1.9891
  139RES   H24939165   0.446   0.186   4.980  0.6459  0.1442  0.6720
  139RES   H25039166   0.421   0.042   5.065 -0.2413 -0.7483 -0.9466
  139RES   H25139167   0.243   7.741   4.790 -0.0090  0.2355 -0.3463
  139RES   H25239168   0.331   7.694   4.939  0.2880  1.4815  0.3538
  139RES   H25339169   0.402   7.786   4.797  0.4439 -1.5999 -0.6646
  139RES   O25439170   0.240   0.092   5.233 -0.1139 -0.0038 -0.0157
  139RES   C25539171   0.123   0.114   5.311  0.0845 -0.3297  0.0276
  139RES   C25639172   0.058   7.802   5.366  0.6330 -0.1411 -0.3571
  139RES   C25739173   7.802   0.017   5.500  0.2219  0.3198  0.2214
  139RES   O25839174   7.701   0.108   5.478  0.4018 -0.4134 -0.0958
  139RES   C25939175   7.626   0.147   5.591  0.0641  0.1438 -0.1594
  139RES   H26039176   0.159   0.171   5.397 -1.6513  0.7599  0.0479
  139RES   H26139177   0.052   0.171   5.252 -1.5363  0.1545  2.3865
  139RES   H26239178   0.139   7.731   5.377  1.9237  1.8093  3.5091
  139RES   H26339179   7.756   7.749   5.550 -0.3310  0.3817 -0.1698
  139RES   H26439180   0.050   0.064   5.573  2.1249  0.9339 -1.8240
  139RES   H26539181   7.687   0.171   5.678  0.4071 -0.4832 -0.2248
  139RES   H26639182   7.563   0.064   5.623 -0.0165  1.0844  2.2588
  139RES   H26739183   7.563   0.233   5.566 -0.9774 -0.4949  0.2324
  139RES   O26839184   7.787   7.750   5.272 -0.5584 -0.4265  0.3535
  139RES   C26939185   0.029   7.705   5.153  0.0066  0.2151 -0.4363
  139RES   C27039186   7.746   7.605   5.091  0.6003  0.5254  0.5103
  139RES   C27139187   7.788   7.524   4.971  0.4649 -0.1272  0.2596
  139RES   O27239188   0.087   7.453   4.999 -0.2393 -0.5610  0.2548
  139RES   C27339189   0.099   7.338   4.925  0.1653 -0.0593  0.5771
  139RES   H27439190   0.125   7.657   5.173  1.0802  2.4469 -0.0940
  139RES   H27539191   0.056   7.791   5.092  0.2948  0.1082 -0.4618
  139RES   H27639192   7.729   7.532   5.170 -0.9668  0.2459 -0.0781
  139RES   H27739193   7.815   7.583   4.883 -0.1028  0.2694  0.3447
  139RES   H27839194   7.713   7.454   4.934  0.8738 -1.0774  1.2391
  139RES   H27939195   0.189   7.286   4.958 -0.2130  0.2832  2.2234
  139RES   H28039196   0.120   7.356   4.820 -0.8522 -0.6062  0.2723
  139RES   H28139197   0.014   7.275   4.953  0.3450  0.3634  2.1401
  139RES   H28239198   7.664   7.667   5.054  0.7952  0.3406 -0.2438
  140RES     O139199   5.093   3.221   3.748 -0.5157  0.2648 -0.7153
  140RES     C239200   4.967   3.169   3.714 -0.1481 -0.2627 -0.1918
  140RES     C339201   4.919   3.094   3.842 -0.0403 -0.6723  0.0391
  140RES     C439202   4.764   3.086   3.849  0.1139 -0.3865 -0.4131
  140RES     O539203   4.720   3.075   3.985 -0.1222  0.0748  0.2446
  140RES     C639204   4.578   3.066   3.996  0.2346  0.3029 -0.8344
  140RES     H739205   4.892   3.244   3.689  0.0450 -0.4908 -1.4588
  140RES     H839206   4.977   3.114   3.621  1.0819  1.5436 -1.1453
  140RES     H939207   4.942   3.153   3.931 -0.9869 -0.7392  0.3383
  140RES    H1039208   4.729   3.006   3.784  1.5066  0.7119 -2.5873
  140RES    H1139209   4.712   3.174   3.813  0.6850  0.2427  0.2915
  140RES    H1239210   4.546   2.974   3.947  0.6561  0.6407 -1.7541
  140RES    H1339211   4.546   3.056   4.100 -0.8599  2.2662 -0.9574
  140RES    H1439212   4.523   3.146   3.947  0.6916  1.3212  0.2776
  140RES    H1539213   5.145   3.147   3.774 -1.4811 -0.5389 -1.0524
  140RES    O1639214   4.981   2.971   3.825 -0.3733  0.4412  0.2135
  140RES    C1739215   5.095   2.948   3.911  0.6470 -0.0307 -0.1126
  140RES    C1839216   5.218   2.900   3.834  0.4233 -0.2035 -0.1903
  140RES    C1939217   5.179   2.791   3.731 -0.1154  0.4613  0.8440
  140RES    O2039218   5.290   2.717   3.685 -0.0544 -0.0332 -0.0037
  140RES    C2139219   5.325   2.607   3.765 -0.7759 -0.0071 -0.2875
  140RES    H2239220   5.058   2.880   3.987 -0.4385  1.5795  0.8432
  140RES    H2339221   5.115   3.038   3.969 -0.9914 -1.3618  2.6286
  140RES    H2439222   5.288   2.861   3.908  1.8356  2.0634 -0.3046
  140RES    H2539223   5.111   2.723   3.782 -0.5679  0.1390 -0.1799
  140RES    H2639224   5.135   2.824   3.637  2.8644  1.8806 -0.1079
  140RES    H2739225   5.246   2.541   3.800 -0.0069 -0.6267  0.3191
  140RES    H2839226   5.373   2.649   3.853  2.7270  1.7262 -2.9109
  140RES    H2939227   5.412   2.552   3.727 -1.2101 -1.6540  1.0364
  140RES    O3039228   5.268   3.014   3.764  0.1223  0.2545  0.2533
  140RES    C3139229   5.405   3.012   3.720  0.3433  0.3570  0.3045
  140RES    C3239230   5.453   3.153   3.678 -0.4352  0.3149 -0.1485
  140RES    C3339231   5.577   3.145   3.587  0.7759 -0.1067 -0.3118
  140RES    O3439232   5.585   3.271   3.519 -0.2171  0.6118  0.5797
  140RES    C3539233   5.699   3.261   3.436  1.3156 -0.3413  0.2440
  140RES    H3639234   5.466   2.966   3.797 -1.2368 -2.2615  0.0392
  140RES    H3739235   5.405   2.936   3.642  1.1463 -0.0615  0.7073
  140RES    H3839236   5.374   3.208   3.627 -0.1440  0.4639 -0.4412
  140RES    H3939237   5.565   3.062   3.517  0.6984 -0.4079  0.0620
  140RES    H4039238   5.659   3.132   3.657  1.0270  0.4831 -0.4906
  140RES    H4139239   5.694   3.171   3.375  0.7575  0.1936 -0.5146
  140RES    H4239240   5.791   3.262   3.493  0.8128  1.6770  1.0337
  140RES    H4339241   5.714   3.336   3.358  1.7642 -0.9535 -0.2688
  140RES    O4439242   5.484   3.227   3.800 -0.2832 -0.5522 -0.5291
  140RES    C4539243   5.511   3.361   3.774  0.1174  0.1909 -0.2418
  140RES    C4639244   5.480   3.438   3.900  0.7485 -0.0427  0.1138
  140RES    C4739245   5.584   3.411   4.009 -0.3073 -0.4398 -0.5335
  140RES    O4839246   5.567   3.491   4.129 -0.1097  0.3824 -0.0111
  140RES    C4939247   5.680   3.487   4.218  0.0229 -0.2275 -0.1495
  140RES    H5039248   5.446   3.400   3.695 -1.9846 -0.9012  0.8781
  140RES    H5139249   5.614   3.376   3.745 -0.3725  3.1241 -0.6691
  140RES    H5239250   5.382   3.405   3.934  0.8682 -0.8289 -0.2976
  140RES    H5339251   5.588   3.305   4.033 -0.5571 -0.5766 -1.0829
  140RES    H5439252   5.682   3.424   3.962  0.4462 -0.8440  0.8901
  140RES    H5539253   5.754   3.539   4.159 -1.3318  0.7287 -1.0196
  140RES    H5639254   5.700   3.381   4.235 -0.8562 -0.7938 -2.4634
  140RES    H5739255   5.644   3.525   4.314  0.2014 -1.8519  0.5831
  140RES    O5839256   5.512   3.567   3.857 -1.2274 -0.1656 -0.0730
  140RES    C5939257   5.430   3.665   3.917  0.3036  0.0796 -0.3722
  140RES    C6039258   5.476   3.813   3.894  0.2039 -1.6170 -0.3953
  140RES    C6139259   5.520   3.843   3.747 -0.5141 -0.6081  0.3422
  140RES    O6239260   5.478   3.977   3.706  0.1925  0.4930  0.3749
  140RES    C6339261   5.529   4.011   3.584 -0.5742 -0.4096 -0.3833
  140RES    H6439262   5.419   3.646   4.024  0.3515 -0.9272 -0.5455
  140RES    H6539263   5.331   3.655   3.870  0.5135 -0.7852 -0.6348
  140RES    H6639264   5.394   3.876   3.927  0.2535 -1.4583 -0.5682
  140RES    H6739265   5.622   3.808   3.734 -0.0604 -0.3764  3.1109
  140RES    H6839266   5.470   3.778   3.675  0.0275 -0.2234 -0.3894
  140RES    H6939267   5.476   4.099   3.548 -1.4434  0.2355  2.3801
  140RES    H7039268   5.524   3.928   3.513  3.4786 -1.0274 -0.1017
  140RES    H7139269   5.633   4.039   3.604 -0.3760 -2.3787  1.4670
  140RES    O7239270   5.578   3.836   3.989  0.1126 -0.5533 -0.3919
  140RES    C7339271   5.589   3.967   4.038  0.2506 -0.5985 -0.0727
  140RES    C7439272   5.702   3.982   4.132  0.7785  0.0397  0.3457
  140RES    C7539273   5.704   4.112   4.214  0.0586  0.1485 -0.3579
  140RES    O7639274   5.672   4.219   4.136 -0.0961  0.1778 -0.1065
  140RES    C7739275   5.794   4.289   4.089 -0.1150  0.0015  0.3288
  140RES    H7839276   5.582   4.039   3.957  0.7457 -1.1402 -0.6044
  140RES    H7939277   5.503   3.987   4.103  0.2099  0.7138 -0.5230
  140RES    H8039278   5.694   3.901   4.205  0.0184  1.6747  2.1098
  140RES    H8139279   5.802   4.121   4.261  0.2945  0.6610 -0.9469
  140RES    H8239280   5.631   4.113   4.295 -0.2843  0.6475 -0.6752
  140RES    H8339281   5.862   4.311   4.171 -0.0132  0.9062  0.0052
  140RES    H8439282   5.772   4.386   4.044  0.4830  0.2343  0.5378
  140RES    H8539283   5.843   4.222   4.019  0.2388 -1.0540  1.5759
  140RES    O8639284   5.823   3.987   4.059  0.2645  0.0243 -0.2304
  140RES    C8739285   5.870   3.857   4.022  0.7086 -0.4859 -0.5223
  140RES    C8839286   6.008   3.866   3.960 -0.4769  0.7233 -0.0079
  140RES    C8939287   6.102   3.742   3.987  0.6624 -0.0904  0.0847
  140RES    O9039288   6.160   3.748   4.114  0.6023 -0.1385 -0.1941
  140RES    C9139289   6.254   3.651   4.131  0.0530  0.2155 -0.1897
  140RES    H9239290   5.864   3.782   4.101 -1.5827 -0.6524 -0.8210
  140RES    H9339291   5.800   3.817   3.949  0.4669 -0.1313 -0.4833
  140RES    H9439292   6.067   3.955   3.981 -1.7908  2.0988 -1.9763
  140RES    H9539293   6.046   3.648   3.982  3.0381 -1.6616  1.7486
  140RES    H9639294   6.175   3.741   3.907  0.0685 -2.9810 -0.4961
  140RES    H9739295   6.210   3.551   4.133 -1.3105  0.7653 -1.7369
  140RES    H9839296   6.335   3.663   4.059  0.2382  0.9277  0.1311
  140RES    H9939297   6.297   3.667   4.230 -2.3268  1.0593  0.7408
  140RES   O10039298   5.982   3.853   3.821  0.2807 -0.0372 -0.2986
  140RES   C10139299   5.934   3.978   3.763 -0.2874 -0.1549  0.1593
  140RES   C10239300   5.936   3.955   3.612  0.6464  0.2506 -0.3429
  140RES   C10339301   5.919   4.093   3.544 -0.3802 -0.2417  0.2408
  140RES   O10439302   5.986   4.088   3.421 -0.1997 -0.1160 -0.1142
  140RES   C10539303   5.996   4.214   3.355 -0.5454 -0.0094  0.1813
  140RES   H10639304   5.998   4.063   3.791  1.5151 -2.1514  2.3457
  140RES   H10739305   5.835   4.013   3.790 -0.0041  2.6440 -2.1529
  140RES   H10839306   6.037   3.923   3.587  0.5162 -1.0331  0.7207
  140RES   H10939307   5.971   4.169   3.602  1.3616 -0.9542 -0.3728
  140RES   H11039308   5.811   4.107   3.539 -0.6395 -0.8311  2.9909
  140RES   H11139309   5.997   4.198   3.247 -3.0975 -0.2286  0.1746
  140RES   H11239310   6.085   4.273   3.376 -0.7458 -0.1752  1.5697
  140RES   H11339311   5.906   4.269   3.382  0.9294  1.4323  2.2921
  140RES   O11439312   5.832   3.866   3.575  0.0534 -0.1583 -0.7634
  140RES   C11539313   5.825   3.845   3.438 -0.3141 -0.0211  0.4378
  140RES   C11639314   5.760   3.701   3.423 -0.5425 -0.6171 -0.1876
  140RES   C11739315   5.712   3.672   3.283 -0.3387  0.1373 -0.5338
  140RES   O11839316   5.637   3.546   3.285 -0.1333 -0.0173  0.3835
  140RES   C11939317   5.578   3.520   3.163  0.5017 -0.0282  0.3236
  140RES   H12039318   5.750   3.903   3.385  0.7914 -0.2703 -1.4533
  140RES   H12139319   5.922   3.851   3.387 -1.4334 -2.7099 -2.1594
  140RES   H12239320   5.678   3.698   3.494 -0.3911  2.5262  0.2249
  140RES   H12339321   5.640   3.746   3.248 -1.9380 -0.8305  0.6988
  140RES   H12439322   5.794   3.659   3.212  0.7163 -0.4494  0.7762
  140RES   H12539323   5.630   3.562   3.077  2.1279 -1.3614  0.6277
  140RES   H12639324   5.475   3.554   3.171  0.8281  1.2454 -0.5278
  140RES   H12739325   5.577   3.412   3.150  0.4041  0.2832 -2.6733
  140RES   O12839326   5.863   3.595   3.451  0.3892  0.1434 -0.7802
  140RES   C12939327   5.875   3.543   3.585  0.1226  0.1174 -0.6369
  140RES   C13039328   5.997   3.450   3.595  0.3293  0.7374  0.1230
  140RES   C13139329   6.013   3.380   3.732 -0.1970 -0.4828 -0.1233
  140RES   O13239330   6.111   3.279   3.715  0.0738 -0.2485 -0.8239
  140RES   C13339331   6.197   3.245   3.829 -0.4634 -0.6065  0.3829
  140RES   H13439332   5.890   3.629   3.650 -0.4173  0.0785 -0.4629
  140RES   H13539333   5.788   3.501   3.633  0.3859 -0.3384 -0.5510
  140RES   H13639334   5.981   3.366   3.528 -0.7991  0.6035  0.5431
  140RES   H13739335   5.921   3.330   3.762 -0.4415 -0.1824 -0.3670
  140RES   H13839336   6.034   3.446   3.817 -2.6887 -3.6718  3.1372
  140RES   H13939337   6.270   3.167   3.807 -1.0024 -1.5509  1.8557
  140RES   H14039338   6.255   3.326   3.871  0.3576 -1.4217  0.8336
  140RES   H14139339   6.135   3.213   3.913 -1.1257  0.2824  0.2363
  140RES   O14239340   6.116   3.520   3.542  0.5749 -0.0460 -0.1023
  140RES   C14339341   6.163   3.635   3.606 -0.4371 -0.4139 -0.0998
  140RES   C14439342   6.308   3.677   3.560  0.3733 -0.8486 -0.4007
  140RES   C14539343   6.366   3.793   3.645  0.0090  0.0921 -0.1550
  140RES   O14639344   6.275   3.903   3.673 -0.1897  0.8023  0.4717
  140RES   C14739345   6.331   4.026   3.704 -0.0603 -0.4171 -0.0327
  140RES   H14839346   6.092   3.715   3.584 -0.0706 -0.1103 -0.1909
  140RES   H14939347   6.159   3.626   3.714  0.6761 -0.9490 -0.0953
  140RES   H15039348   6.368   3.587   3.566 -0.6776 -1.5716 -0.6939
  140RES   H15139349   6.454   3.832   3.594 -0.7849  2.9837  0.5960
  140RES   H15239350   6.412   3.762   3.739 -0.1283 -0.1250 -0.1582
  140RES   H15339351   6.255   4.105   3.706  0.4047  0.1140 -2.1555
  140RES   H15439352   6.392   4.069   3.625 -1.4460  1.9770  0.1471
  140RES   H15539353   6.381   4.024   3.801 -1.2705 -0.9828  0.5957
  140RES   O15639354   6.334   3.699   3.418  0.1113  0.9206  0.5265
  140RES   C15739355   6.258   3.801   3.360  0.2464 -0.9760 -0.4447
  140RES   C15839356   6.278   3.814   3.207 -0.2434  0.3606 -0.2518
  140RES   C15939357   6.199   3.936   3.154  0.8877  0.0035 -0.9464
  140RES   O16039358   6.240   3.970   3.026  0.0220 -0.5430 -0.4074
  140RES   C16139359   6.147   4.055   2.964 -0.2668  0.2201 -0.2179
  140RES   H16239360   6.154   3.771   3.373 -0.6167  1.9392 -0.3230
  140RES   H16339361   6.266   3.896   3.413  2.3838 -0.8577 -0.9650
  140RES   H16439362   6.382   3.832   3.178 -0.4565  2.9223  0.5329
  140RES   H16539363   6.092   3.924   3.165  0.6312  0.0791 -3.0854
  140RES   H16639364   6.237   4.014   3.219  0.2350 -0.3225 -0.1651
  140RES   H16739365   6.180   4.053   2.860  2.2108 -0.8045  0.5448
  140RES   H16839366   6.161   4.160   2.991  0.0644 -0.2952  1.6895
  140RES   H16939367   6.044   4.022   2.967 -0.1160 -0.2890 -0.4432
  140RES   O17039368   6.230   3.697   3.148 -0.0888 -0.0779  0.6707
  140RES   C17139369   6.317   3.593   3.119  0.3407 -0.2836  0.2000
  140RES   C17239370   6.264   3.506   3.006  0.1162 -0.2554  0.3553
  140RES   C17339371   6.308   3.360   2.997  0.0493  0.0124  0.4420
  140RES   O17439372   6.216   3.310   2.896 -0.1101 -0.3059  0.5640
  140RES   C17539373   6.252   3.191   2.832 -0.4590  0.0805 -0.8389
  140RES   H17639374   6.326   3.519   3.198  1.9899 -1.0323 -0.6788
  140RES   H17739375   6.422   3.618   3.110  0.1881  0.5363  0.6075
  140RES   H17839376   6.156   3.514   3.018  0.0900 -1.5594  1.0851
  140RES   H17939377   6.409   3.349   2.957  0.1593  0.4419  0.5981
  140RES   H18039378   6.294   3.306   3.090  0.7239  1.3455  1.3320
  140RES   H18139379   6.358   3.200   2.810  0.0625 -2.7554  0.2462
  140RES   H18239380   6.183   3.182   2.748 -0.1309 -1.9598 -0.9106
  140RES   H18339381   6.243   3.111   2.906 -2.6532  0.9644 -0.1055
  140RES   O18439382   6.315   3.556   2.881  0.4273  0.4911 -0.1751
  140RES   C18539383   6.232   3.660   2.823  0.7842  0.5084 -0.6479
  140RES   C18639384   6.292   3.700   2.691 -0.0278 -0.1616 -0.7435
  140RES   C18739385   6.208   3.817   2.636 -0.0504  0.1545  0.7722
  140RES   O18839386   6.261   3.887   2.527 -0.0569 -0.8031  0.3455
  140RES   C18939387   6.169   3.985   2.481  0.2864 -1.0009 -0.6676
  140RES   H19039388   6.218   3.735   2.901  1.2956  0.7747 -0.8162
  140RES   H19139389   6.130   3.623   2.808  0.0947  1.7437  0.7883
  140RES   H19239390   6.393   3.737   2.710  0.5706 -2.8700  1.6862
  140RES   H19339391   6.197   3.887   2.718  1.2461  1.9209 -0.5181
  140RES   H19439392   6.114   3.771   2.607 -0.1117  0.1315  1.0080
  140RES   H19539393   6.170   4.077   2.540  1.3248 -0.9142 -0.8056
  140RES   H19639394   6.209   4.018   2.385  0.1438 -1.0494 -0.7427
  140RES   H19739395   6.062   3.965   2.479 -0.6115  3.1657  0.3370
  140RES   O19839396   6.283   3.590   2.603  0.5181 -0.0765 -0.1209
  140RES   C19939397   6.413   3.533   2.569  0.7638 -0.9444 -0.6736
  140RES   C20039398   6.387   3.407   2.489  0.3580  0.7943  0.1567
  140RES   C20139399   6.514   3.322   2.465  0.1650  0.6998 -0.4610
  140RES   O20239400   6.581   3.296   2.582 -0.1204 -0.4191 -0.2951
  140RES   C20339401   6.718   3.260   2.565  0.1221 -0.3753  0.7000
  140RES   H20439402   6.475   3.509   2.656 -0.4406  0.6096  0.6573
  140RES   H20539403   6.476   3.598   2.508 -1.3614  1.9568  0.1131
  140RES   H20639404   6.319   3.338   2.541  1.1974 -0.5022 -0.4302
  140RES   H20739405   6.467   3.233   2.422 -0.4897  0.2224  1.2206
  140RES   H20839406   6.580   3.369   2.392  3.4447  0.9833  2.5376
  140RES   H20939407   6.768   3.242   2.660  0.6483 -0.1303  0.4705
  140RES   H21039408   6.769   3.343   2.516  0.9717 -2.3656 -1.8860
  140RES   H21139409   6.736   3.173   2.502 -0.2033 -0.1966  0.3631
  140RES   O21239410   6.353   3.443   2.354 -0.2942  0.7273 -0.0334
  140RES   C21339411   6.210   3.438   2.318 -0.0888 -0.4341 -0.0849
  140RES   C21439412   6.197   3.496   2.180  0.2162 -0.1755  0.2436
  140RES   C21539413   6.049   3.481   2.135 -0.1632  0.0355 -0.2596
  140RES   O21639414   6.005   3.604   2.078  0.7420 -0.2863 -0.0649
  140RES   C21739415   5.895   3.591   1.991  0.4235 -0.3138 -0.4205
  140RES   H21839416   6.154   3.495   2.392  1.2835  0.7425  0.0545
  140RES   H21939417   6.180   3.333   2.319  0.2433 -0.5516 -1.7987
  140RES   H22039418   6.228   3.601   2.182  0.6621 -0.2833 -0.9400
  140RES   H22139419   6.048   3.407   2.055  1.6806  0.4850 -0.7197
  140RES   H22239420   5.980   3.454   2.215  0.2622  1.6503  0.6625
  140RES   H22339421   5.810   3.546   2.042  1.4339 -2.3989 -0.5059
  140RES   H22439422   5.918   3.520   1.912 -1.8484 -1.9684  0.3441
  140RES   H22539423   5.873   3.690   1.951  0.7982 -0.3761 -0.7821
  140RES   O22639424   6.282   3.427   2.099 -0.0285  0.4577  0.8487
  140RES   C22739425   6.337   3.502   1.987 -0.2918  0.2368  0.7988
  140RES   C22839426   6.467   3.570   2.026 -0.1132  0.2285  0.2911
  140RES   C22939427   6.566   3.612   1.910 -0.2561  0.6242  0.2564
  140RES   O23039428   6.499   3.673   1.803  0.3661 -0.0883  0.3937
  140RES   C23139429   6.584   3.759   1.718 -0.6895 -0.5414  0.4257
  140RES   H23239430   6.278   3.579   1.939  0.0002 -0.6930 -1.1021
  140RES   H23339431   6.372   3.436   1.907 -1.6984  1.3599 -0.7617
  140RES   H23439432   6.516   3.499   2.093 -2.1747  0.8568  2.5774
  140RES   H23539433   6.616   3.520   1.880 -0.2628  0.2021  1.4857
  140RES   H23639434   6.652   3.660   1.957 -0.3636 -1.3126  2.5387
  140RES   H23739435   6.532   3.781   1.625 -0.6337  0.7885  0.7032
  140RES   H23839436   6.678   3.707   1.698 -1.3139 -1.5440  0.0777
  140RES   H23939437   6.610   3.854   1.765  0.9555 -1.1089  0.6784
  140RES   O24039438   6.437   3.692   2.094  0.2970  0.3513 -0.0363
  140RES   C24139439   6.512   3.715   2.213 -0.6530  0.8004 -0.2533
  140RES   C24239440   6.486   3.856   2.276  0.5547 -0.3391  0.3880
  140RES   C24339441   6.546   3.891   2.410  0.2918  0.4161 -0.3225
  140RES   O24439442   6.676   3.836   2.424 -0.3745  0.3556 -0.9550
  140RES   C24539443   6.732   3.868   2.552  0.2609 -0.8491 -0.3713
  140RES   H24639444   6.619   3.702   2.195 -0.4616 -0.3909  1.6093
  140RES   H24739445   6.485   3.635   2.282  0.9227 -1.5993 -2.3493
  140RES   H24839446   6.378   3.869   2.284  1.0024  3.0341  1.3798
  140RES   H24939447   6.548   3.999   2.427 -3.1386  0.4010  0.4905
  140RES   H25039448   6.490   3.843   2.490  0.5859  0.1584 -0.2700
  140RES   H25139449   6.819   3.803   2.563  0.0051 -1.0412  0.5922
  140RES   H25239450   6.666   3.848   2.636 -0.9632  1.4887 -0.7440
  140RES   H25339451   6.764   3.972   2.555 -0.7838 -0.5755  1.6954
  140RES   O25439452   6.539   3.957   2.188 -0.5354 -0.8255 -0.2028
  140RES   C25539453   6.453   3.984   2.076 -0.4077 -0.2787  0.2069
  140RES   C25639454   6.447   4.135   2.038  0.0903  0.4578 -0.2902
  140RES   C25739455   6.411   4.170   1.893  0.4709 -0.1912  0.1349
  140RES   O25839456   6.493   4.096   1.803  0.6066 -0.0592  0.0878
  140RES   C25939457   6.450   4.104   1.660 -0.0292  0.0626 -0.2240
  140RES   H26039458   6.484   3.918   1.995 -0.1155  0.1124  0.0032
  140RES   H26139459   6.354   3.956   2.111 -0.4589 -1.2435 -0.6854
  140RES   H26239460   6.545   4.179   2.058  0.9775 -1.3083 -0.6250
  140RES   H26339461   6.305   4.155   1.870  0.2591  2.3346 -0.7385
  140RES   H26439462   6.431   4.276   1.873  1.1795 -0.4722 -0.6638
  140RES   H26539463   6.530   4.072   1.593  0.9812 -0.8828  1.3963
  140RES   H26639464   6.417   4.204   1.634 -0.4758  0.1771  0.7757
  140RES   H26739465   6.369   4.033   1.644 -1.9564  2.1208  0.1474
  140RES   O26839466   6.355   4.207   2.124 -0.0142  0.7364  0.3920
  140RES   C26939467   6.397   4.230   2.255 -0.3833  0.1508 -0.9785
  140RES   C27039468   6.313   4.342   2.315  0.6248 -0.5446  0.3399
  140RES   C27139469   6.364   4.382   2.451 -0.4369 -0.3865  0.1496
  140RES   O27239470   6.278   4.472   2.518  0.0454 -0.0860 -0.0754
  140RES   C27339471   6.338   4.517   2.641 -0.1684 -0.5534  0.6380
  140RES   H27439472   6.499   4.267   2.249 -0.4381  0.1312 -2.0423
  140RES   H27539473   6.400   4.142   2.320  2.1579  1.0613  0.2036
  140RES   H27639474   6.304   4.426   2.247  0.1234 -0.9510 -0.0972
  140RES   H27739475   6.465   4.422   2.436 -0.6989  0.4901  0.7196
  140RES   H27839476   6.381   4.294   2.514  1.0671 -0.6966 -0.6510
  140RES   H27939477   6.410   4.595   2.622 -1.7764  0.6003 -0.8813
  140RES   H28039478   6.370   4.439   2.710  2.4915 -1.2840 -1.3776
  140RES   H28139479   6.270   4.583   2.695 -1.4446 -1.5711  0.3220
  140RES   H28239480   6.211   4.310   2.334  0.4611  0.4778  1.1986
  141RES     O139481   7.511   3.452   6.193  0.3361 -0.3512 -0.1278
  141RES     C239482   7.429   3.568   6.222 -0.2482 -0.1832 -0.1131
  141RES     C339483   7.415   3.658   6.095 -1.0555 -0.1490 -0.0313
  141RES     C439484   7.309   3.767   6.136  0.2628 -0.6943  0.5373
  141RES     O539485   7.272   3.841   6.020  0.3150 -0.2698 -0.5490
  141RES     C639486   7.160   3.921   6.042 -1.0891 -0.1827  0.6976
  141RES     H739487   7.329   3.547   6.263  0.6813 -1.1131  1.7512
  141RES     H839488   7.475   3.620   6.306  3.0865 -2.1737 -0.6544
  141RES     H939489   7.376   3.595   6.015 -1.3798 -0.4591  0.3659
  141RES    H1039490   7.347   3.837   6.211  1.7856  0.3999 -1.1969
  141RES    H1139491   7.222   3.712   6.171 -2.4600  3.0240 -0.1101
  141RES    H1239492   7.117   3.963   5.951 -0.9062  0.6247  0.9820
  141RES    H1339493   7.081   3.857   6.080 -0.8382 -0.9091  0.0062
  141RES    H1439494   7.178   4.009   6.104  0.6479 -0.7942  1.1005
  141RES    H1539495   7.553   3.470   6.111 -1.2403 -0.8445 -1.0667
  141RES    O1639496   7.551   3.696   6.072  0.3405 -0.2652  0.1672
  141RES    C1739497   7.571   3.808   5.985  0.2946 -0.2692  0.5418
  141RES    C1839498   7.714   3.828   5.942  0.1186 -0.5348 -0.4724
  141RES    C1939499   7.731   3.930   5.826  0.5047  0.5854  0.7387
  141RES    O2039500   0.050   3.950   5.786  0.0889  0.3296  0.2303
  141RES    C2139501   0.075   4.031   5.676 -0.7060  0.1975 -0.7937
  141RES    H2239502   7.536   3.907   6.012 -0.0353  0.1400 -1.2789
  141RES    H2339503   7.525   3.794   5.886  0.0607  0.3914  0.5568
  141RES    H2439504   7.754   3.729   5.918  0.4927 -0.0662 -1.8249
  141RES    H2539505   7.669   3.904   5.740  3.5425  0.3207 -1.4189
  141RES    H2639506   7.680   4.023   5.852 -1.3274  0.3010 -1.6629
  141RES    H2739507   0.050   3.986   5.580 -1.4255 -0.8303 -0.1314
  141RES    H2839508   0.182   4.052   5.684 -0.3275 -1.7841 -0.3836
  141RES    H2939509   0.033   4.131   5.685 -0.6315  0.1559  0.0268
  141RES    O3039510   7.781   3.881   6.056  0.1439  0.1830  0.0995
  141RES    C3139511   0.097   3.830   6.060  0.5016 -0.0372 -0.0441
  141RES    C3239512   0.151   3.856   6.202  0.0014 -0.7657  0.4094
  141RES    C3339513   0.296   3.902   6.195  0.8923  0.3138  0.1801
  141RES    O3439514   0.338   3.979   6.308 -0.1397 -0.0444 -0.1173
  141RES    C3539515   0.465   4.042   6.293  0.6951  0.0053  0.0980
  141RES    H3639516   0.097   3.723   6.041 -1.0949  0.2260 -1.6121
  141RES    H3739517   0.157   3.892   5.994  1.4578 -1.7610 -0.8470
  141RES    H3839518   0.099   3.933   6.260 -0.4066  0.3994 -1.4455
  141RES    H3939519   0.305   3.970   6.110 -1.8955  0.9189  0.3180
  141RES    H4039520   0.366   3.824   6.165  1.3371  1.2934 -1.3818
  141RES    H4139521   0.459   4.114   6.211  3.0103  0.1309  0.0177
  141RES    H4239522   0.547   3.975   6.272 -0.3157 -1.1944 -0.0567
  141RES    H4339523   0.479   4.100   6.385  3.0375 -1.2482  0.5590
  141RES    O4439524   0.159   3.738   6.280  0.0295 -0.2519  0.1883
  141RES    C4539525   0.034   3.688   6.312  0.0670  0.3808  0.2543
  141RES    C4639526   0.056   3.557   6.386 -0.3044 -0.2836 -0.4709
  141RES    C4739527   7.736   3.496   6.433  0.4134 -1.0942 -0.5863
  141RES    O4839528   7.736   3.404   6.542  0.0897 -0.4309  0.7816
  141RES    C4939529   7.643   3.298   6.536  0.4100 -0.0133  0.8862
  141RES    H5039530   7.788   3.669   6.225 -1.3232 -1.7871  1.6943
  141RES    H5139531   7.802   3.758   6.379  2.0127  1.5339  0.5143
  141RES    H5239532   0.110   3.573   6.479 -1.5728  0.4393  0.1469
  141RES    H5339533   7.675   3.580   6.462 -0.3555 -1.2399 -1.7338
  141RES    H5439534   7.687   3.459   6.343 -1.5098  0.6183 -0.2542
  141RES    H5539535   7.663   3.227   6.455 -1.1313 -2.1790  2.3253
  141RES    H5639536   7.541   3.333   6.521  1.2714  3.0509  1.8961
  141RES    H5739537   7.653   3.242   6.629 -0.1924  1.2748  1.7376
  141RES    O5839538   0.112   3.462   6.288 -0.0646  0.7287  0.0963
  141RES    C5939539   0.203   3.372   6.347 -0.9550  0.5024  0.2284
  141RES    C6039540   0.205   3.229   6.286 -1.0056  0.0699  0.2861
  141RES    C6139541   0.207   3.117   6.396  0.0105 -0.9977 -0.4993
  141RES    O6239542   0.139   2.999   6.346  0.0173 -0.1633 -0.3452
  141RES    C6339543   0.159   2.883   6.421  0.2492  0.4752  0.2311
  141RES    H6439544   0.172   3.361   6.451  2.0195  0.4157  1.1290
  141RES    H6539545   0.303   3.415   6.346 -0.5410 -0.4682 -0.2341
  141RES    H6639546   0.102   3.233   6.248 -0.9075  1.6382  0.1393
  141RES    H6739547   0.301   3.096   6.447 -1.1447 -0.7413  1.7707
  141RES    H6839548   0.168   3.159   6.488 -0.4080 -2.0122 -0.2075
  141RES    H6939549   0.130   2.895   6.525  2.1661  0.7863  0.7402
  141RES    H7039550   0.259   2.841   6.424  0.6008  1.2964  0.1208
  141RES    H7139551   0.093   2.813   6.370 -0.6610  1.0771  0.5753
  141RES    O7239552   0.300   3.211   6.178  0.3593  0.3567 -0.4592
  141RES    C7339553   0.265   3.270   6.052 -0.0569  0.0967 -0.4555
  141RES    C7439554   0.341   3.400   6.034 -1.4692 -0.0514 -0.4264
  141RES    C7539555   0.315   3.459   5.891 -0.0750 -0.0793  0.2807
  141RES    O7639556   0.336   3.598   5.903 -0.4849 -0.1783 -0.3502
  141RES    C7739557   0.335   3.669   5.778 -0.4328 -0.2276 -0.4267
  141RES    H7839558   0.298   3.203   5.972  1.9360  0.0691  0.3572
  141RES    H7939559   0.157   3.277   6.041 -0.4762  3.0246  4.3513
  141RES    H8039560   0.304   3.477   6.102  1.3458  0.2879  0.7901
  141RES    H8139561   0.212   3.452   5.858  0.1397  1.8266 -0.8712
  141RES    H8239562   0.380   3.406   5.821 -1.9514 -0.2279 -1.3998
  141RES    H8339563   0.409   3.632   5.708 -0.5062 -2.2426  0.5290
  141RES    H8439564   0.347   3.773   5.807 -0.6187 -0.3449  0.0816
  141RES    H8539565   0.239   3.649   5.730  0.1667  2.0764 -2.6818
  141RES    O8639566   0.477   3.396   6.073 -0.1456  0.0547 -0.3307
  141RES    C8739567   0.564   3.295   6.024 -0.0465 -0.0012 -0.1522
  141RES    C8839568   0.714   3.339   6.046  0.5819 -0.1074  0.4580
  141RES    C8939569   0.805   3.225   5.990  0.1138  0.9603  0.2423
  141RES    O9039570   0.896   3.190   6.087 -0.3622 -0.4429 -0.6460
  141RES    C9139571   0.990   3.098   6.045  0.2295 -0.6399 -0.2365
  141RES    H9239572   0.553   3.197   6.070  0.2407  0.8593  1.8023
  141RES    H9339573   0.551   3.267   5.919  3.0808 -0.4814 -0.4792
  141RES    H9439574   0.727   3.344   6.154  1.3955  1.4879  0.3045
  141RES    H9539575   0.748   3.136   5.967  0.7309  0.8774 -1.0466
  141RES    H9639576   0.857   3.266   5.903  1.8441  0.9485  1.2417
  141RES    H9739577   0.965   3.039   5.956 -1.9649 -1.5020  0.9034
  141RES    H9839578   1.088   3.144   6.035  1.4970 -3.3207 -0.7195
  141RES    H9939579   1.004   3.030   6.129  0.0954  0.5942  0.7975
  141RES   O10039580   0.740   3.466   5.978 -0.2412 -0.1701  0.1060
  141RES   C10139581   0.808   3.556   6.067  0.3580  0.2711  0.0217
  141RES   C10239582   0.862   3.678   5.989  0.0962  0.3579 -0.3510
  141RES   C10339583   0.973   3.756   6.051 -0.7593 -0.3899  0.1943
  141RES   O10439584   0.956   3.769   6.198 -0.4708 -0.3260  0.5625
  141RES   C10539585   0.867   3.866   6.241 -0.3311  0.5553  0.5841
  141RES   H10639586   0.888   3.498   6.113  0.0645 -0.7401 -0.7222
  141RES   H10739587   0.745   3.583   6.152  0.6823  2.4422 -0.3920
  141RES   H10839588   0.909   3.650   5.895  1.5419 -0.5942  0.6389
  141RES   H10939589   0.993   3.850   6.000 -2.0196 -1.5799 -2.6072
  141RES   H11039590   1.059   3.691   6.035  0.8521  2.0013 -1.0982
  141RES   H11139591   0.766   3.833   6.264  0.1416 -0.6158  1.0399
  141RES   H11239592   0.867   3.945   6.166  0.9570 -0.4121 -0.4476
  141RES   H11339593   0.888   3.923   6.331 -0.7613  0.8623  0.4928
  141RES   O11439594   0.758   3.768   5.960 -0.0786  0.1113 -0.3400
  141RES   C11539595   0.677   3.740   5.854  0.2338 -0.4224  0.1747
  141RES   C11639596   0.643   3.871   5.776 -0.5923  0.6292 -0.0803
  141RES   C11739597   0.585   3.988   5.857  0.5871 -0.2071  0.2273
  141RES   O11839598   0.505   4.068   5.776 -0.0382  0.1506 -0.1560
  141RES   C11939599   0.414   4.156   5.849 -0.5396  0.0019 -0.2108
  141RES   H12039600   0.716   3.662   5.788 -1.5960  1.3570 -3.1276
  141RES   H12139601   0.588   3.683   5.882 -0.1889  0.4919  0.6911
  141RES   H12239602   0.569   3.834   5.705  0.2245  1.4245 -1.3789
  141RES   H12339603   0.525   3.953   5.941 -0.8254  2.8900  0.5886
  141RES   H12439604   0.667   4.046   5.901  0.0010  0.4925  0.4013
  141RES   H12539605   0.333   4.101   5.898  1.4583 -1.3580  1.6368
  141RES   H12639606   0.369   4.231   5.784  0.9910  0.9785 -0.1610
  141RES   H12739607   0.474   4.217   5.916 -0.1244 -0.4160 -0.1976
  141RES   O12839608   0.768   3.911   5.712  0.6907 -0.1811 -0.0021
  141RES   C12939609   0.763   3.895   5.570  0.3347 -0.0261  0.7761
  141RES   C13039610   0.895   3.956   5.510  0.2300  0.7629  0.0733
  141RES   C13139611   0.877   3.978   5.357  0.3670 -0.4660  0.2738
  141RES   O13239612   0.990   4.051   5.309  0.0314  0.9035  0.1901
  141RES   C13339613   0.981   4.102   5.174  0.7748  0.4784 -0.2622
  141RES   H13439614   0.752   3.791   5.541  0.8233 -0.2901  1.5091
  141RES   H13539615   0.676   3.945   5.527  0.8158  0.6538  0.5787
  141RES   H13639616   0.910   4.051   5.561  0.3559  0.4386  0.6446
  141RES   H13739617   0.779   4.019   5.333 -0.0041 -2.7424 -2.3926
  141RES   H13839618   0.873   3.876   5.317 -0.3413  0.0010 -0.8472
  141RES   H13939619   0.930   4.198   5.172  1.8374  1.0368 -0.7415
  141RES   H14039620   1.084   4.106   5.141  1.0804  0.0284  0.6169
  141RES   H14139621   0.934   4.024   5.114  2.9388 -1.5287  0.5827
  141RES   O14239622   0.995   3.859   5.525  0.3152 -0.1157 -0.3470
  141RES   C14339623   1.072   3.896   5.634 -0.4214  0.1653  0.7808
  141RES   C14439624   1.203   3.812   5.634  0.0530 -0.1297  1.0695
  141RES   C14539625   1.241   3.768   5.778  0.1429  0.1785  0.1849
  141RES   O14639626   1.359   3.679   5.789  0.2243  0.2637 -0.5403
  141RES   C14739627   1.395   3.649   5.925  1.0472 -0.0552 -0.0592
  141RES   H14839628   1.103   4.001   5.639 -1.3275  0.4147  1.2841
  141RES   H14939629   1.011   3.881   5.723  0.2820 -0.3078  1.1894
  141RES   H15039630   1.194   3.716   5.583 -1.0264  0.5172  0.0092
  141RES   H15139631   1.162   3.696   5.801  0.3327 -0.7737 -2.0287
  141RES   H15239632   1.230   3.854   5.844  0.5502 -0.9977  1.8149
  141RES   H15339633   1.403   3.743   5.980 -2.7353  0.7746 -0.8033
  141RES   H15439634   1.482   3.585   5.935  1.5645  0.6004 -0.3589
  141RES   H15539635   1.320   3.588   5.976  1.4660  1.0135  1.9151
  141RES   O15639636   1.307   3.888   5.576 -0.0107 -0.1236 -0.6600
  141RES   C15739637   1.283   3.932   5.444  0.1865  0.2974 -0.1073
  141RES   C15839638   1.417   3.953   5.376  0.0376 -0.0925 -0.4400
  141RES   C15939639   1.504   3.831   5.381 -0.7554  0.4536  0.6219
  141RES   O16039640   1.607   3.830   5.276  0.1058  0.1795  0.0925
  141RES   C16139641   1.736   3.866   5.317  0.2289  0.5404  0.7135
  141RES   H16239642   1.222   3.864   5.385 -0.3569  2.9925 -2.7399
  141RES   H16339643   1.229   4.027   5.442 -3.5536 -1.7277  0.1537
  141RES   H16439644   1.396   3.977   5.272 -0.3102 -0.3175 -0.4214
  141RES   H16539645   1.552   3.827   5.479  0.7418  0.4517 -0.0981
  141RES   H16639646   1.436   3.747   5.372 -0.4246  0.3584 -1.2634
  141RES   H16739647   1.731   3.935   5.402  1.7268  0.3749  0.9505
  141RES   H16839648   1.791   3.908   5.233  3.1962 -2.1825  1.1911
  141RES   H16939649   1.782   3.773   5.351 -1.8189 -1.1515 -0.9981
  141RES   O17039650   1.489   4.062   5.431 -0.3057  0.3657 -0.0870
  141RES   C17139651   1.453   4.194   5.390  0.0708  0.6580  0.1761
  141RES   C17239652   1.566   4.300   5.413 -0.3454  0.5667 -0.0497
  141RES   C17339653   1.507   4.438   5.400 -0.4249 -0.1822  0.2284
  141RES   O17439654   1.581   4.547   5.450  0.1329 -0.4999  0.6486
  141RES   C17539655   1.509   4.671   5.425 -0.0850 -0.2912  0.0132
  141RES   H17639656   1.367   4.216   5.452  0.6120  0.2747  1.0620
  141RES   H17739657   1.428   4.201   5.284  1.9191 -0.7114 -0.3874
  141RES   H17839658   1.614   4.290   5.510 -1.8802 -0.7041  0.6068
  141RES   H17939659   1.480   4.464   5.298  0.8110  1.1220  0.2030
  141RES   H18039660   1.411   4.439   5.451  0.8394  0.2650  2.7047
  141RES   H18139661   1.404   4.653   5.447  0.5471 -1.3994  2.1915
  141RES   H18239662   1.505   4.706   5.321  0.8696 -1.6226 -0.4805
  141RES   H18339663   1.561   4.757   5.468 -0.3699  0.2111 -0.6401
  141RES   O18439664   1.654   4.284   5.299 -0.2951  0.1175 -0.2100
  141RES   C18539665   1.782   4.239   5.342  0.7733 -0.5297 -0.2739
  141RES   C18639666   1.873   4.217   5.220 -0.1132  0.1075  0.3840
  141RES   C18739667   2.008   4.146   5.252 -0.8086  0.2933  0.2827
  141RES   O18839668   2.072   4.211   5.359 -0.2421 -0.0234 -0.1191
  141RES   C18939669   2.208   4.169   5.380 -0.0790  0.1453  0.2311
  141RES   H19039670   1.772   4.148   5.400 -2.8256 -0.3115 -0.4940
  141RES   H19139671   1.830   4.305   5.415 -0.0494  0.0917 -0.2941
  141RES   H19239672   1.818   4.149   5.156  0.4585 -1.0699  1.1345
  141RES   H19339673   2.074   4.144   5.166 -1.1336  2.2001 -0.0305
  141RES   H19439674   1.990   4.044   5.285 -0.9892 -0.1257 -1.1111
  141RES   H19539675   2.222   4.065   5.409  2.4624  0.5720  0.7025
  141RES   H19639676   2.262   4.180   5.286  0.2906 -0.6099  0.3470
  141RES   H19739677   2.251   4.243   5.448 -1.5961 -0.2347  1.6240
  141RES   O19839678   1.899   4.347   5.162  0.4061 -0.1272 -0.3650
  141RES   C19939679   1.793   4.398   5.077  0.3925  0.3983 -0.0481
  141RES   C20039680   1.832   4.540   5.035  0.2121  0.2165  0.5273
  141RES   C20139681   1.812   4.634   5.155  0.0531  0.8414 -0.2370
  141RES   O20239682   1.881   4.755   5.128 -0.0793 -0.3318 -0.2287
  141RES   C20339683   1.925   4.830   5.240  0.6386 -0.6674  0.5817
  141RES   H20439684   1.692   4.391   5.116  0.7862 -1.2772  0.6892
  141RES   H20539685   1.783   4.340   4.986 -3.2230 -1.2435  1.3165
  141RES   H20639686   1.937   4.544   5.006  1.0214 -0.1397  3.2392
  141RES   H20739687   1.708   4.646   5.183 -0.0545  0.4736 -0.4706
  141RES   H20839688   1.865   4.585   5.237 -0.4522 -1.9658 -1.5247
  141RES   H20939689   1.847   4.862   5.308  0.4713 -1.8136  0.9328
  141RES   H21039690   1.962   4.926   5.203 -0.5057 -0.7088 -0.6802
  141RES   H21139691   2.001   4.781   5.302 -0.1756  0.5309  2.5626
  141RES   O21239692   1.756   4.573   4.917  0.6240  0.7203  0.7931
  141RES   C21339693   1.769   4.706   4.867 -0.0063 -0.4912  0.4392
  141RES   C21439694   1.681   4.710   4.743 -0.5981  0.7348  0.2486
  141RES   C21539695   1.683   4.848   4.676  0.8559 -0.4187 -0.1908
  141RES   O21639696   1.621   4.864   4.549 -0.4557  0.0466  0.1498
  141RES   C21739697   1.583   4.993   4.516  0.5370 -0.1732  0.6753
  141RES   H21839698   1.874   4.721   4.842 -0.2291 -0.5893 -0.5790
  141RES   H21939699   1.724   4.785   4.928  1.0430  1.0734 -0.7984
  141RES   H22039700   1.703   4.639   4.662  0.2974  2.1227 -0.7427
  141RES   H22139701   1.641   4.915   4.751 -0.9529  1.3263 -2.6440
  141RES   H22239702   1.787   4.869   4.650  0.6659 -1.8403 -2.1830
  141RES   H22339703   1.553   4.984   4.411  2.0130  2.1490  0.0058
  141RES   H22439704   1.666   5.063   4.508  0.0446  0.3321 -0.0868
  141RES   H22539705   1.503   5.013   4.587  0.0668 -0.1557  0.1488
  141RES   O22639706   1.544   4.682   4.788 -0.0672  0.4485 -0.2322
  141RES   C22739707   1.510   4.550   4.756 -0.1706 -0.2632 -1.0128
  141RES   C22839708   1.383   4.500   4.833  0.4722  0.9414  0.3561
  141RES   C22939709   1.408   4.481   4.988 -0.4281 -0.1428  0.0485
  141RES   O23039710   1.340   4.371   5.045  0.0453 -0.4181 -0.2033
  141RES   C23139711   1.383   4.240   5.009 -0.6024  1.0605 -0.4306
  141RES   H23239712   1.589   4.477   4.772 -0.5389 -0.5671 -0.5669
  141RES   H23339713   1.496   4.543   4.648 -0.8291  4.9689 -1.3933
  141RES   H23439714   1.353   4.405   4.790 -0.0973  0.9282  0.7757
  141RES   H23539715   1.377   4.574   5.034  0.3830  0.2089 -0.1017
  141RES   H23639716   1.512   4.469   5.019 -0.6875  0.7665  1.2997
  141RES   H23739717   1.372   4.221   4.902 -0.9841  2.0195 -0.5720
  141RES   H23839718   1.329   4.157   5.055  0.5314 -0.2979 -1.5373
  141RES   H23939719   1.489   4.230   5.032 -0.6352 -0.8460 -1.0456
  141RES   O24039720   1.269   4.587   4.815  0.4942  0.3025  0.3668
  141RES   C24139721   1.239   4.610   4.678  0.0112 -0.4254 -0.1456
  141RES   C24239722   1.117   4.704   4.674  0.7839  0.5801  0.1193
  141RES   C24339723   1.112   4.774   4.539  0.3744  0.4661 -0.8263
  141RES   O24439724   1.110   4.908   4.567 -0.1883  0.0595 -0.3033
  141RES   C24539725   1.103   4.996   4.457 -0.5793  0.4813 -0.3283
  141RES   H24639726   1.223   4.513   4.630 -1.7476 -0.2421  0.0254
  141RES   H24739727   1.319   4.659   4.623  2.8152 -1.6021  2.7112
  141RES   H24839728   1.136   4.783   4.746  2.1386  1.2033 -0.9125
  141RES   H24939729   1.205   4.760   4.485  0.7815  1.4739 -0.4150
  141RES   H25039730   1.026   4.745   4.479  0.1980  1.6520 -1.1633
  141RES   H25139731   1.004   4.985   4.415 -0.4854  1.1827 -0.7310
  141RES   H25239732   1.180   4.967   4.385 -0.9360 -0.7620 -0.2281
  141RES   H25339733   1.125   5.097   4.493  1.9188  0.9427 -2.9623
  141RES   O25439734   1.004   4.638   4.714  0.2023 -0.2314 -0.7240
  141RES   C25539735   0.888   4.708   4.755 -0.6666  0.0766 -0.6175
  141RES   C25639736   0.757   4.638   4.728 -0.6532 -0.7081  0.6811
  141RES   C25739737   0.636   4.703   4.789  0.1133 -0.7568  0.1707
  141RES   O25839738   0.540   4.600   4.791 -0.2914  0.9660 -0.5219
  141RES   C25939739   0.414   4.625   4.860 -0.2469 -0.2277  0.5503
  141RES   H26039740   0.893   4.717   4.863  0.0452  1.0295 -0.7227
  141RES   H26139741   0.885   4.809   4.714  1.2035  0.2615 -0.3423
  141RES   H26239742   0.754   4.536   4.765 -0.9331 -0.3739  1.5896
  141RES   H26339743   0.651   4.741   4.890 -1.8909  1.9619 -0.4912
  141RES   H26439744   0.606   4.790   4.731 -2.4277 -1.8124 -0.1541
  141RES   H26539745   0.337   4.556   4.824  0.3855  0.2772 -1.8608
  141RES   H26639746   0.369   4.724   4.849  1.5821  0.5479 -0.0867
  141RES   H26739747   0.440   4.604   4.964  1.4047 -0.9067  0.0115
  141RES   O26839748   0.734   4.642   4.591 -0.5559 -0.2771 -0.6285
  141RES   C26939749   0.770   4.532   4.516  0.0650  0.1282 -0.0603
  141RES   C27039750   0.734   4.545   4.371  0.4673 -0.0579 -0.4446
  141RES   C27139751   0.774   4.421   4.295  0.1260 -0.8024  0.2575
  141RES   O27239752   0.762   4.433   4.154 -0.3577 -0.3386 -0.0941
  141RES   C27339753   0.630   4.409   4.107 -0.0909  0.3037  0.0245
  141RES   H27439754   0.711   4.454   4.565 -0.9728  1.4131  0.7622
  141RES   H27539755   0.876   4.510   4.530  0.0585  0.9835  1.4196
  141RES   H27639756   0.630   4.572   4.348  0.7082  0.4856 -0.9033
  141RES   H27739757   0.726   4.334   4.340  0.0366 -0.6287  0.4973
  141RES   H27839758   0.880   4.404   4.317  0.2308  0.9849  1.2373
  141RES   H27939759   0.609   4.308   4.141 -0.3094 -0.0624 -1.1644
  141RES   H28039760   0.619   4.429   4.000 -1.8070  0.8007  0.2848
  141RES   H28139761   0.559   4.471   4.161 -0.6276 -0.4130  0.1435
  141RES   H28239762   0.792   4.628   4.331  1.0992  0.1804  0.9430
  142RES     O139763   0.746   0.652   0.437  0.4069  0.2921 -0.2926
  142RES     C239764   0.634   0.723   0.477  0.3757  0.0551 -0.4593
  142RES     C339765   0.517   0.657   0.401 -0.0305 -0.0345 -0.5711
  142RES     C439766   0.393   0.661   0.483  0.1710  1.3661 -0.4829
  142RES     O539767   0.298   0.566   0.427  0.4138 -0.3759 -0.1925
  142RES     C639768   0.168   0.571   0.477 -0.4265 -0.5893 -0.2196
  142RES     H739769   0.607   0.693   0.578 -0.3201  1.4096 -0.2303
  142RES     H839770   0.640   0.831   0.464  0.9665  0.5094  3.1229
  142RES     H939771   0.534   0.555   0.368  2.6695  0.2303 -0.0936
  142RES    H1039772   0.346   0.759   0.491  0.4423  1.4594 -0.0659
  142RES    H1139773   0.414   0.627   0.584 -0.7838  2.1409 -0.0105
  142RES    H1239774   0.125   0.671   0.467 -1.4454 -0.8212  1.6492
  142RES    H1339775   0.099   0.523   0.408  0.5545 -1.0580 -0.8833
  142RES    H1439776   0.153   0.537   0.580  1.7968  0.1391  0.3722
  142RES    H1539777   0.764   0.660   0.344  2.4403 -1.9234 -0.1525
  142RES    O1639778   0.494   0.746   0.286 -0.3260 -0.4727  0.1664
  142RES    C1739779   0.441   0.681   0.169 -0.6170 -0.0378  0.4854
  142RES    C1839780   0.548   0.607   0.084 -0.2323  0.4678 -0.0224
  142RES    C1939781   0.484   0.549   7.772 -0.0253 -0.1808  0.6410
  142RES    O2039782   0.567   0.434   7.743 -0.3881 -0.0793  0.3279
  142RES    C2139783   0.507   0.370   7.637  0.0931  0.5646  1.0421
  142RES    H2239784   0.404   0.757   0.101  1.0213 -0.0223 -0.3952
  142RES    H2339785   0.357   0.616   0.193 -1.5192 -0.1002 -2.6825
  142RES    H2439786   0.575   0.519   0.142  0.0277  1.1188  0.8611
  142RES    H2539787   0.387   0.513   7.807  0.2687 -0.0406  1.6220
  142RES    H2639788   0.463   0.613   7.686  2.2964  1.0042  0.9257
  142RES    H2739789   0.399   0.365   7.655 -0.0614  3.0161  0.8756
  142RES    H2839790   0.546   0.268   7.633  0.7442  0.8107  1.1320
  142RES    H2939791   0.520   0.413   7.538  1.3940  3.3572  2.3767
  142RES    O3039792   0.648   0.706   0.056  0.1779 -0.1149  0.1745
  142RES    C3139793   0.788   0.666   0.038  0.1820 -0.3575 -0.0827
  142RES    C3239794   0.884   0.785   0.012 -0.0788  0.0868 -0.4162
  142RES    C3339795   0.990   0.753   7.726 -0.3370 -1.0883 -0.7352
  142RES    O3439796   1.077   0.646   7.766  0.1209  0.3712  0.1396
  142RES    C3539797   1.205   0.650   7.702  0.0800  0.5607  0.3134
  142RES    H3639798   0.821   0.604   0.121 -0.3925 -0.4101  0.1082
  142RES    H3739799   0.787   0.594   7.773  0.3096 -2.1532  1.4429
  142RES    H3839800   0.819   0.864   7.791  0.9033  0.1641 -2.0058
  142RES    H3939801   1.040   0.846   7.699 -2.3961  0.3506  0.3395
  142RES    H4039802   0.942   0.723   7.633 -1.6382 -0.6214 -0.2263
  142RES    H4139803   1.188   0.669   7.596 -0.4203 -2.0537 -0.0948
  142RES    H4239804   1.264   0.559   7.708  0.3214  0.6320 -0.9728
  142RES    H4339805   1.260   0.729   7.755 -1.4373  2.0396 -0.2716
  142RES    O4439806   0.954   0.819   0.133  0.2587  0.0612 -0.3429
  142RES    C4539807   0.868   0.888   0.228 -0.3092  0.6242  0.0891
  142RES    C4639808   0.873   1.037   0.209  0.2879 -0.0561  0.0881
  142RES    C4739809   0.778   1.105   0.304 -0.0987 -0.4319 -0.2407
  142RES    O4839810   0.710   1.214   0.234 -0.5594  0.4398 -0.6004
  142RES    C4939811   0.619   1.285   0.315 -0.2475 -0.4458  0.6657
  142RES    H5039812   0.906   0.864   0.328  3.8633  0.4377 -1.4354
  142RES    H5139813   0.768   0.846   0.218 -0.4703  0.4592  2.1289
  142RES    H5239814   0.850   1.060   0.105 -1.6820  0.1559  0.5471
  142RES    H5339815   0.704   1.034   0.341 -1.0381  0.7120  0.1197
  142RES    H5439816   0.835   1.140   0.390  1.6336 -2.8139 -0.3693
  142RES    H5539817   0.574   1.365   0.256  0.2749 -2.2339 -2.2191
  142RES    H5639818   0.671   1.338   0.395 -0.1287  2.6786 -1.4034
  142RES    H5739819   0.543   1.216   0.350  0.6880 -3.0888 -2.3286
  142RES    O5839820   1.009   1.070   0.253  0.2052  0.4446 -0.0913
  142RES    C5939821   1.060   1.182   0.181 -0.2298  0.6684  0.3609
  142RES    C6039822   1.195   1.209   0.248  0.6302  0.0693 -0.6239
  142RES    C6139823   1.245   1.350   0.221 -0.3560  0.5172 -0.6096
  142RES    O6239824   1.345   1.370   0.323 -0.5341 -0.2034 -0.1342
  142RES    C6339825   1.444   1.460   0.284 -0.8511 -0.3406 -0.6284
  142RES    H6439826   0.992   1.264   0.203 -2.5723 -0.2319 -3.0148
  142RES    H6539827   1.075   1.175   0.073 -0.0786  0.2114  0.4107
  142RES    H6639828   1.191   1.186   0.354  0.6632 -0.0963 -0.6584
  142RES    H6739829   1.281   1.352   0.119 -2.6068  3.7484 -1.4352
  142RES    H6839830   1.164   1.423   0.234 -0.6148  0.3512 -1.3027
  142RES    H6939831   1.468   1.443   0.179  2.1367  1.1490 -0.2180
  142RES    H7039832   1.539   1.450   0.335 -1.4892  2.3081  1.2037
  142RES    H7139833   1.419   1.565   0.303  0.6461 -0.3530  1.5370
  142RES    O7239834   1.295   1.135   0.195  0.0753  0.2422  0.0435
  142RES    C7339835   1.287   0.998   0.225 -0.9456  0.5921  0.1079
  142RES    C7439836   1.426   0.925   0.202 -0.2236 -0.2530  0.3655
  142RES    C7539837   1.409   0.779   0.229  0.4742 -0.5347  0.4942
  142RES    O7639838   1.501   0.687   0.172  0.0121 -0.1970  0.7344
  142RES    C7739839   1.626   0.683   0.237 -0.8369  0.1106 -0.2220
  142RES    H7839840   1.252   0.982   0.327 -0.4948 -1.4409 -0.0331
  142RES    H7939841   1.211   0.954   0.160 -1.1835  0.1647  0.6700
  142RES    H8039842   1.445   0.955   0.099 -0.7180  0.1946  0.3996
  142RES    H8139843   1.322   0.747   0.172 -0.6314 -0.9954  2.3689
  142RES    H8239844   1.396   0.749   0.333 -0.7199  0.8994  0.7703
  142RES    H8339845   1.687   0.603   0.194 -1.4762 -0.4789 -0.0417
  142RES    H8439846   1.605   0.664   0.342 -0.0874  0.4685 -0.0013
  142RES    H8539847   1.678   0.779   0.235 -0.7937  0.1208  1.1069
  142RES    O8639848   1.524   0.960   0.297  0.3365 -0.1504 -0.2712
  142RES    C8739849   1.569   1.095   0.292  0.0938  0.6706  0.8305
  142RES    C8839850   1.693   1.112   0.388  0.5863  0.4451  1.1363
  142RES    C8939851   1.774   1.229   0.337 -0.3387 -0.3091 -0.4689
  142RES    O9039852   1.899   1.230   0.402  0.2412 -0.0952 -0.0216
  142RES    C9139853   1.996   1.292   0.331 -0.7630 -0.0656 -0.3401
  142RES    H9239854   1.585   1.117   0.187 -0.5905 -0.9370  0.3808
  142RES    H9339855   1.488   1.164   0.316 -1.0269 -0.8222  1.3955
  142RES    H9439856   1.753   1.021   0.387 -0.5564 -0.3246 -0.8531
  142RES    H9539857   1.789   1.232   0.229  0.5371 -1.3613 -0.3811
  142RES    H9639858   1.724   1.323   0.359 -0.9527 -1.2213  2.2234
  142RES    H9739859   2.082   1.292   0.397 -0.3022  0.6121 -0.9290
  142RES    H9839860   2.018   1.239   0.238 -2.1852 -4.0756  1.4604
  142RES    H9939861   1.983   1.398   0.313  0.4793  0.8365  3.6851
  142RES   O10039862   1.631   1.143   0.515 -0.0014  0.2730  0.2318
  142RES   C10139863   1.717   1.111   0.629 -0.8433  0.2869 -0.5071
  142RES   C10239864   1.647   1.147   0.762  0.6939  0.2839  0.4787
  142RES   C10339865   1.750   1.159   0.873 -0.0079  0.5792 -0.4564
  142RES   O10439866   1.704   1.225   0.996 -0.1457  0.0792 -0.1123
  142RES   C10539867   1.638   1.134   1.079  0.1976 -0.3095 -0.3788
  142RES   H10639868   1.814   1.160   0.628 -0.2693 -0.7983  0.7052
  142RES   H10739869   1.732   1.003   0.626  1.8749  0.6559 -0.9956
  142RES   H10839870   1.599   1.244   0.756 -0.2530  0.0063  2.9107
  142RES   H10939871   1.829   1.227   0.842 -0.2719  1.4442  0.7364
  142RES   H11039872   1.806   1.066   0.884 -0.9071 -0.2657 -2.6954
  142RES   H11139873   1.537   1.107   1.048 -0.1665 -0.5691  1.0140
  142RES   H11239874   1.620   1.195   1.168  1.1471  1.4169 -1.3416
  142RES   H11339875   1.693   1.044   1.107 -2.6180 -2.4610 -1.4926
  142RES   O11439876   1.554   1.039   0.799  0.0695  0.2311  0.3869
  142RES   C11539877   1.457   1.003   0.697  0.0361  0.1439 -0.2324
  142RES   C11639878   1.327   0.956   0.768  0.7893  0.0253 -0.4253
  142RES   C11739879   1.215   0.922   0.669  0.4674  0.4600  0.3272
  142RES   O11839880   1.100   0.888   0.746 -0.0650  0.1303  0.7999
  142RES   C11939881   0.983   0.859   0.664 -0.6127  0.1447 -0.1461
  142RES   H12039882   1.436   1.094   0.640 -0.7117  0.8931  1.2145
  142RES   H12139883   1.500   0.934   0.624 -0.6897 -0.8518  0.2619
  142RES   H12239884   1.307   1.036   0.839 -0.6704 -0.4739 -0.2607
  142RES   H12339885   1.199   1.005   0.601 -1.4508  1.9419  2.5356
  142RES   H12439886   1.254   0.844   0.602  2.2814  0.7310  1.0432
  142RES   H12539887   0.910   0.790   0.708 -0.4098 -0.0314 -0.0860
  142RES   H12639888   1.021   0.810   0.575  1.4017  3.1749 -1.0313
  142RES   H12739889   0.933   0.951   0.632 -1.5444  0.0323  0.9453
  142RES   O12839890   1.351   0.835   0.841  0.1455 -0.3877  0.5039
  142RES   C12939891   1.323   0.844   0.983  0.3926  0.0690 -0.3642
  142RES   C13039892   1.375   0.731   1.074  1.0464  0.3551  0.3683
  142RES   C13139893   1.296   0.720   1.205  0.0002  0.2730  0.5132
  142RES   O13239894   1.302   0.594   1.258 -0.2041 -0.1374  0.0573
  142RES   C13339895   1.429   0.540   1.291  0.5001 -0.0256  0.1265
  142RES   H13439896   1.359   0.938   1.024 -3.1377  1.7800 -0.9579
  142RES   H13539897   1.215   0.835   0.974  0.0973 -0.2945  2.9992
  142RES   H13639898   1.372   0.638   1.018  0.1335  2.2191 -2.7523
  142RES   H13739899   1.193   0.747   1.182 -0.5596 -1.7148  0.5630
  142RES   H13839900   1.333   0.795   1.274 -1.0900  0.5616  0.7992
  142RES   H13939901   1.412   0.469   1.372  0.4158  0.0804  0.2017
  142RES   H14039902   1.477   0.508   1.198 -0.4293  0.6263 -0.5820
  142RES   H14139903   1.500   0.613   1.329 -1.9657  2.0813  0.8134
  142RES   O14239904   1.509   0.753   1.108 -0.1634 -0.1835  0.2642
  142RES   C14339905   1.594   0.733   0.999  0.1177  0.1372  0.2572
  142RES   C14439906   1.746   0.719   1.031 -0.0948 -0.6307 -0.1446
  142RES   C14539907   1.830   0.775   0.911  0.5185  0.8587  1.3723
  142RES   O14639908   1.956   0.818   0.957  0.0183 -0.6332 -0.6463
  142RES   C14739909   2.027   0.888   0.863  1.1869  0.7051  0.0384
  142RES   H14839910   1.566   0.646   0.940 -3.0614  2.0555 -1.1536
  142RES   H14939911   1.581   0.818   0.932 -1.9117 -1.1254 -0.9981
  142RES   H15039912   1.760   0.788   1.114 -2.4352  1.0869 -1.0872
  142RES   H15139913   1.776   0.849   0.852  0.0049  0.4079  1.2683
  142RES   H15239914   1.838   0.692   0.841 -2.1802  0.8106  1.0431
  142RES   H15339915   2.100   0.953   0.911 -0.4923  2.0790  0.8344
  142RES   H15439916   1.967   0.939   0.787  0.3165 -1.3911 -0.7239
  142RES   H15539917   2.084   0.810   0.813 -2.9988 -0.6559 -2.9918
  142RES   O15639918   1.772   0.592   1.083  0.7489 -0.0472 -0.4346
  142RES   C15739919   1.908   0.558   1.109 -0.2913  0.0758  0.4207
  142RES   C15839920   1.908   0.429   1.183 -0.1344  0.3165 -0.1209
  142RES   C15939921   2.045   0.395   1.238 -0.9334  0.1077 -0.1782
  142RES   O16039922   2.018   0.298   1.332 -0.7509  0.6476 -0.1709
  142RES   C16139923   2.136   0.258   1.397 -0.2813  0.2024 -0.1109
  142RES   H16239924   1.957   0.542   1.012  0.7387 -0.2827  0.9942
  142RES   H16339925   1.960   0.629   1.173 -0.0775  2.0669 -1.8957
  142RES   H16439926   1.833   0.440   1.262 -2.2680 -2.2812 -1.6822
  142RES   H16539927   2.111   0.364   1.157  1.7620  1.1248  1.5826
  142RES   H16639928   2.082   0.487   1.283 -2.1724  1.0783 -1.0869
  142RES   H16739929   2.108   0.192   1.479  0.3828  0.4579  0.3233
  142RES   H16839930   2.191   0.348   1.426 -0.3435 -0.3734  1.9241
  142RES   H16939931   2.204   0.207   1.330 -0.8502 -1.6458  0.6629
  142RES   O17039932   1.858   0.330   1.089  0.2394  0.4262 -0.6045
  142RES   C17139933   1.778   0.231   1.142 -0.0248 -0.6825 -0.4733
  142RES   C17239934   1.667   0.192   1.040 -0.0754 -0.0770  0.3668
  142RES   C17339935   1.541   0.286   1.035 -0.4057 -0.3468  0.0843
  142RES   O17439936   1.479   0.281   0.908 -0.1473  0.3192  0.2167
  142RES   C17539937   1.344   0.297   0.911  0.6488 -0.4733 -0.5602
  142RES   H17639938   1.729   0.250   1.237  1.7605 -0.0080  0.3269
  142RES   H17739939   1.833   0.144   1.178  1.1992  0.9737  1.7612
  142RES   H17839940   1.726   0.206   0.950  0.3067  1.0145  0.7772
  142RES   H17939941   1.481   0.274   1.125 -1.4572  3.7070  0.0123
  142RES   H18039942   1.579   0.387   1.024  1.9296 -1.3129 -1.0922
  142RES   H18139943   1.318   0.394   0.955 -0.3693 -0.9182 -0.1755
  142RES   H18239944   1.302   0.213   0.966 -1.9768  1.3934  0.4004
  142RES   H18339945   1.303   0.307   0.811 -2.8806 -3.3815  0.5050
  142RES   O18439946   1.632   0.056   1.071 -0.2178 -0.7623  0.2815
  142RES   C18539947   1.599   7.785   0.959  0.2841 -0.2393 -0.1942
  142RES   C18639948   1.612   7.642   1.017  0.2871  0.2713  0.1251
  142RES   C18739949   1.671   7.549   0.909 -0.3157  0.3496 -0.9436
  142RES   O18839950   1.696   7.420   0.969 -0.3355 -0.0838 -0.0029
  142RES   C18939951   1.739   7.325   0.870  0.1298 -0.1226  0.3671
  142RES   H19039952   1.662   7.798   0.870 -2.1437  1.0302 -1.7680
  142RES   H19139953   1.502   7.809   0.916 -0.3332 -0.8137  0.8667
  142RES   H19239954   1.680   7.633   1.102 -1.6130  0.2361  1.6881
  142RES   H19339955   1.761   7.603   0.878  0.3715  0.4719  1.1532
  142RES   H19439956   1.605   7.540   0.823 -2.5358  1.8212  0.5518
  142RES   H19539957   1.710   7.224   0.898  1.7535 -0.0951  2.2050
  142RES   H19639958   1.706   7.346   0.768 -0.3844 -0.2370  0.5099
  142RES   H19739959   1.847   7.337   0.874  0.2162 -1.3091  2.0265
  142RES   O19839960   1.482   7.597   1.046  0.3437  0.2597  0.1402
  142RES   C19939961   1.457   7.577   1.184 -0.4452  0.6924  0.1830
  142RES   C20039962   1.425   7.705   1.260  0.2266 -0.2760  0.5227
  142RES   C20139963   1.498   7.704   1.391 -0.2965 -0.5923 -0.5568
  142RES   O20239964   1.496   0.022   1.433  0.2827 -0.4406 -0.1926
  142RES   C20339965   1.580   0.053   1.544 -0.4482  0.3424  0.6765
  142RES   H20439966   1.547   7.525   1.217  0.5513  3.2027  1.5138
  142RES   H20539967   1.379   7.505   1.209 -0.2754 -0.8150 -3.3340
  142RES   H20639968   1.462   7.785   1.197 -1.5568 -0.0005 -0.2155
  142RES   H20739969   1.464   7.640   1.473  0.5075  0.0634  0.2921
  142RES   H20839970   1.605   7.687   1.384  0.1372  0.7991  2.1025
  142RES   H20939971   1.570   0.158   1.571  1.0333  0.8880 -0.8091
  142RES   H21039972   1.682   0.034   1.511 -1.0381 -0.5103 -0.7236
  142RES   H21139973   1.552   7.805   1.627  0.0694 -1.7816 -0.7701
  142RES   O21239974   1.281   7.724   1.284 -0.4279  0.0356  0.3530
  142RES   C21339975   1.244   0.041   1.257  0.1331  0.4244 -0.4579
  142RES   C21439976   1.097   0.091   1.283  0.0710  0.0734  0.0089
  142RES   C21539977   1.054   0.037   1.414 -0.1882 -0.2470  0.1504
  142RES   O21639978   0.952   0.111   1.479 -0.5719  0.0669  0.0122
  142RES   C21739979   0.947   0.103   1.622 -0.1100 -0.4013 -0.6179
  142RES   H21839980   1.267   0.070   1.154  2.5742 -0.7228 -0.2750
  142RES   H21939981   1.306   0.102   1.323  0.6098 -1.1470  0.5640
  142RES   H22039982   1.094   0.200   1.285 -0.0121  0.1197 -1.7357
  142RES   H22139983   1.029   7.750   1.399 -1.5859 -0.1164  1.4938
  142RES   H22239984   1.141   0.038   1.480 -0.0300 -0.5520 -0.0502
  142RES   H22339985   0.864   0.163   1.658  0.9695  0.7405 -0.0191
  142RES   H22439986   1.033   0.152   1.668 -0.7100 -0.2356  0.3322
  142RES   H22539987   0.942   7.816   1.655  0.7325 -0.9651 -2.1941
  142RES   O22639988   1.011   0.052   1.175  0.4188 -0.8913 -0.4205
  142RES   C22739989   0.878   0.104   1.186 -0.0047  0.5355  0.2361
  142RES   C22839990   0.815   0.127   1.044  0.6721 -0.2861  0.4446
  142RES   C22939991   0.659   0.115   1.047  0.2106 -0.5595  0.7533
  142RES   O23039992   0.613   0.011   0.970 -0.7799  0.0766  0.2398
  142RES   C23139993   0.474   7.807   0.992 -0.1344 -0.4186 -0.7327
  142RES   H23239994   0.871   0.198   1.241 -1.0792 -0.7056  2.2755
  142RES   H23339995   0.827   0.028   1.244 -0.5093  0.4094 -0.3631
  142RES   H23439996   0.866   0.060   0.974  0.6731 -0.7068  0.8451
  142RES   H23539997   0.611   0.205   1.008 -0.4952 -0.2485  2.2821
  142RES   H23639998   0.622   0.102   1.149  1.1095  0.8255  1.2631
  142RES   H23739999   0.448   7.763   1.088  2.3616 -1.3002 -0.4396
  142RES   H23840000   0.442   7.736   0.915 -1.5244 -1.2205  0.5548
  142RES   H23940001   0.405   0.074   0.991  0.3952  0.0138 -0.4500
  142RES   O24040002   0.840   0.257   0.996  0.4428 -0.2359  0.4467
  142RES   C24140003   0.986   0.297   0.980  0.3785 -0.0470  0.6346
  142RES   C24240004   0.969   0.425   0.892 -0.1071 -1.2459 -0.5068
  142RES   C24340005   0.998   0.556   0.969  0.0510 -0.5477  0.4506
  142RES   O24440006   0.908   0.652   0.928 -0.1848  0.5937  0.0179
  142RES   C24540007   0.923   0.777   0.995 -0.4205 -0.0474 -0.2906
  142RES   H24640008   1.044   0.216   0.937 -1.3806  1.0171 -4.0933
  142RES   H24740009   1.038   0.323   1.072  2.0014 -2.6758  0.4903
  142RES   H24840010   0.873   0.421   0.840 -1.2418 -1.7264  1.5978
  142RES   H24940011   0.994   0.543   1.077  2.2278  0.6364  0.7068
  142RES   H25040012   1.098   0.589   0.940 -0.5961  1.2763  0.2106
  142RES   H25140013   0.831   0.828   0.967  0.7996  0.7599 -3.0187
  142RES   H25240014   1.008   0.834   0.956  0.2854 -0.2022  1.0122
  142RES   H25340015   0.918   0.760   1.102 -0.1969 -0.9978 -0.4230
  142RES   O25440016   1.068   0.415   0.786 -0.1729  0.4263 -0.2484
  142RES   C25540017   1.059   0.502   0.678 -0.5549  0.4218  0.5088
  142RES   C25640018   1.163   0.474   0.571 -0.2176  0.1707 -0.7011
  142RES   C25740019   1.125   0.527   0.429 -0.0072 -0.0285  0.1994
  142RES   O25840020   1.182   0.437   0.334  0.3470 -0.1755  0.1867
  142RES   C25940021   1.145   0.472   0.209 -0.6660  0.9152 -0.1963
  142RES   H26040022   0.959   0.483   0.637 -0.3867 -0.7806  0.6394
  142RES   H26140023   1.063   0.607   0.707  0.8318  0.6034 -0.3249
  142RES   H26240024   1.171   0.365   0.577 -0.0906  0.1846 -0.6336
  142RES   H26340025   1.017   0.535   0.423 -0.1057 -0.1166  1.7894
  142RES   H26440026   1.166   0.628   0.422 -1.0894  0.4132  0.2065
  142RES   H26540027   1.039   0.483   0.186 -0.9103 -1.1539 -0.1428
  142RES   H26640028   1.186   0.404   0.134  0.0290  0.0696  0.9457
  142RES   H26740029   1.190   0.570   0.191  0.3319  0.3354 -0.9444
  142RES   O26840030   1.283   0.534   0.624  0.2631 -0.2835 -0.3022
  142RES   C26940031   1.405   0.485   0.571 -0.7203  0.0386 -0.4924
  142RES   C27040032   1.536   0.554   0.620  0.0802 -0.3820  0.8543
  142RES   C27140033   1.665   0.462   0.610  0.5132 -0.4066 -0.2897
  142RES   O27240034   1.778   0.543   0.596 -0.6054  0.2260 -0.7419
  142RES   C27340035   1.895   0.459   0.584 -0.1149  0.1051 -0.5346
  142RES   H27440036   1.408   0.479   0.462  0.8059 -0.0849 -0.4601
  142RES   H27540037   1.402   0.380   0.601 -5.8821  0.6699  1.6506
  142RES   H27640038   1.545   0.645   0.561 -1.1507  0.0289  1.2925
  142RES   H27740039   1.648   0.388   0.532 -0.1935 -0.5125 -0.0419
  142RES   H27840040   1.665   0.413   0.707  0.3647 -0.0617 -0.1146
  142RES   H27940041   1.906   0.393   0.670 -0.8223  1.5850  0.6993
  142RES   H28040042   1.977   0.530   0.575  0.9634 -0.4785  3.7866
  142RES   H28140043   1.881   0.400   0.492 -0.4410 -0.2723 -0.2467
  142RES   H28240044   1.520   0.592   0.721 -1.4408 -0.6268  0.7061
  143RES     O140045   6.581   6.827   5.437 -0.6678  0.1961  0.0383
  143RES     C240046   6.486   6.830   5.544  0.6623  0.3816  0.3835
  143RES     C340047   6.547   6.746   5.659 -0.0667  0.2806  0.2526
  143RES     C440048   6.440   6.710   5.769 -0.0611  0.4019 -0.9125
  143RES     O540049   6.323   6.655   5.706 -1.4193 -0.3329 -0.0899
  143RES     C640050   6.221   6.632   5.798 -0.8346 -0.1491  0.3004
  143RES     H740051   6.460   6.933   5.568  0.2064  0.4768 -0.5150
  143RES     H840052   6.397   6.776   5.511 -0.0658  0.2134  2.5531
  143RES     H940053   6.617   6.811   5.711 -1.3344  1.9516 -0.0748
  143RES    H1040054   6.420   6.806   5.819  0.4159  0.7273 -1.3468
  143RES    H1140055   6.484   6.654   5.851  0.9089  2.7147  0.1944
  143RES    H1240056   6.126   6.616   5.748 -0.0841 -0.7779 -0.9609
  143RES    H1340057   6.258   6.545   5.854  0.2619 -0.8872 -1.5168
  143RES    H1440058   6.196   6.713   5.865 -1.7538  0.7804 -1.1487
  143RES    H1540059   6.617   6.741   5.423 -0.7220  0.3874 -1.3311
  143RES    O1640060   6.606   6.627   5.615 -0.0756  0.0194  0.5594
  143RES    C1740061   6.745   6.611   5.655 -0.1562 -0.5041  0.7974
  143RES    C1840062   6.777   6.461   5.654  0.3644  0.2049  0.7648
  143RES    C1940063   6.910   6.418   5.720 -0.4925  0.4446 -0.3015
  143RES    O2040064   6.960   6.514   5.806  0.2176  0.2918 -0.4056
  143RES    C2140065   7.068   6.462   5.883  0.3884  0.6800  0.6181
  143RES    H2240066   6.758   6.639   5.759 -0.9496  0.2897  0.6856
  143RES    H2340067   6.808   6.667   5.587 -0.9975 -0.9317 -0.3523
  143RES    H2440068   6.767   6.431   5.550  1.6019 -0.2028  0.7503
  143RES    H2540069   6.924   6.314   5.750 -1.9543 -0.2013 -1.7392
  143RES    H2640070   6.986   6.435   5.643  0.9895  3.2696  1.7164
  143RES    H2740071   7.094   6.534   5.961  1.4906  1.8987 -0.8272
  143RES    H2840072   7.152   6.443   5.816 -0.1085  0.3305  0.0947
  143RES    H2940073   7.043   6.365   5.926  1.7867  1.2001  2.6775
  143RES    O3040074   6.692   6.399   5.750  0.0366 -0.5749 -0.0366
  143RES    C3140075   6.636   6.276   5.710  0.3460  0.5032 -0.0899
  143RES    C3240076   6.497   6.295   5.651  0.4324 -0.4003 -0.6274
  143RES    C3340077   6.426   6.160   5.658  0.2677 -0.2848 -0.2237
  143RES    O3440078   6.288   6.164   5.621 -0.0329 -0.1218  0.3017
  143RES    C3540079   6.201   6.217   5.721  0.4558  0.4138 -0.8249
  143RES    H3640080   6.707   6.222   5.647  2.0670  1.1382  1.2347
  143RES    H3740081   6.633   6.224   5.806  1.4949  0.3672 -0.1215
  143RES    H3840082   6.425   6.354   5.707 -2.4835 -2.1660 -2.4259
  143RES    H3940083   6.447   6.110   5.753 -0.5757 -3.3956 -1.6373
  143RES    H4040084   6.473   6.108   5.575  0.2826 -0.1510 -0.2989
  143RES    H4140085   6.232   6.308   5.772  3.1016 -0.3917 -0.8996
  143RES    H4240086   6.190   6.134   5.790 -0.5641  0.5207 -0.8586
  143RES    H4340087   6.107   6.241   5.672 -0.8509  0.9362  1.9010
  143RES    O4440088   6.506   6.354   5.520  0.3601 -0.1311  0.1974
  143RES    C4540089   6.389   6.402   5.459 -0.5682  0.3166  0.4413
  143RES    C4640090   6.385   6.370   5.309  0.9447  0.2345 -0.0315
  143RES    C4740091   6.244   6.387   5.248 -0.0416 -0.3456 -0.4743
  143RES    O4840092   6.210   6.272   5.163 -0.4092  0.2697 -0.3974
  143RES    C4940093   6.278   6.271   5.041  0.1115 -0.5548  0.3864
  143RES    H5040094   6.381   6.510   5.462 -1.7336  0.3180 -1.7606
  143RES    H5140095   6.295   6.362   5.498  0.5914 -1.8315  1.1333
  143RES    H5240096   6.420   6.267   5.316  1.9292  0.5245 -0.5462
  143RES    H5340097   6.171   6.390   5.329 -0.6797  0.7886 -1.0749
  143RES    H5440098   6.229   6.485   5.201 -1.2077 -0.6710 -0.7927
  143RES    H5540099   6.380   6.246   5.069  0.5989  0.0729 -0.8396
  143RES    H5640100   6.261   6.358   4.979  0.6296 -2.1076 -1.9867
  143RES    H5740101   6.262   6.190   4.971  2.5032 -0.4994 -0.2504
  143RES    O5840102   6.479   6.454   5.240 -0.3264  0.3740 -0.5466
  143RES    C5940103   6.606   6.400   5.226 -0.0273  0.5373 -0.1467
  143RES    C6040104   6.699   6.505   5.159 -0.1900  0.7867  0.2990
  143RES    C6140105   6.826   6.430   5.110 -0.0286  0.2878 -0.2851
  143RES    O6240106   6.866   6.345   5.213 -0.2789 -0.2097 -0.8503
  143RES    C6340107   6.992   6.286   5.189  0.4457 -0.5922  0.7101
  143RES    H6440108   6.599   6.312   5.162  1.8145  1.1377 -1.1970
  143RES    H6540109   6.655   6.375   5.320  0.2285  0.4403 -0.3081
  143RES    H6640110   6.652   6.562   5.078  0.5589  0.6838 -0.2154
  143RES    H6740111   6.799   6.375   5.020  1.0637  0.5464 -0.7864
  143RES    H6840112   6.902   6.505   5.084 -1.1954  1.7999  0.5890
  143RES    H6940113   7.079   6.351   5.187 -0.4823  0.6865  0.4626
  143RES    H7040114   6.987   6.244   5.089  1.6060  1.0758 -0.0735
  143RES    H7140115   7.010   6.197   5.249 -1.2155 -2.4740 -1.4523
  143RES    O7240116   6.747   6.606   5.252 -0.6950 -0.7449  0.0633
  143RES    C7340117   6.767   6.739   5.192 -0.0586  0.7542 -0.4988
  143RES    C7440118   6.855   6.841   5.274  0.1740  0.2897  0.6824
  143RES    C7540119   6.808   6.982   5.241 -0.2057  0.2162  1.3754
  143RES    O7640120   6.901   7.084   5.291  0.2511 -0.0477 -0.5067
  143RES    C7740121   6.883   7.087   5.432  0.0315  0.0471  0.3624
  143RES    H7840122   6.827   6.710   5.106  0.2846  2.5478 -0.8868
  143RES    H7940123   6.673   6.780   5.154 -0.3286 -1.0618 -1.8892
  143RES    H8040124   6.855   6.822   5.382  0.8971 -1.7463  0.3379
  143RES    H8140125   6.714   6.991   5.294  0.5432  0.8916  2.5954
  143RES    H8240126   6.784   6.982   5.134 -0.6983 -1.8889  1.4717
  143RES    H8340127   6.916   7.183   5.471  0.6934 -0.1614  0.3122
  143RES    H8440128   6.936   7.015   5.494  1.8381  2.4902  1.7399
  143RES    H8540129   6.780   7.080   5.468  0.4325 -2.3917  1.1439
  143RES    O8640130   6.987   6.815   5.225  0.3373 -0.1578  0.1029
  143RES    C8740131   7.075   6.751   5.319  0.6127 -0.2748 -0.3453
  143RES    C8840132   7.206   6.707   5.241 -0.5443  0.2913 -0.1510
  143RES    C8940133   7.316   6.643   5.334 -0.6005 -0.4557 -0.2300
  143RES    O9040134   7.381   6.751   5.404 -0.5846  0.1684 -0.1005
  143RES    C9140135   7.506   6.699   5.443 -0.4503 -0.9071  0.5372
  143RES    H9240136   7.102   6.815   5.402 -2.5284  0.1156  0.4146
  143RES    H9340137   7.020   6.665   5.357  1.1009 -1.1136 -1.4981
  143RES    H9440138   7.254   6.798   5.205 -2.9348  2.0187  0.8545
  143RES    H9540139   7.276   6.570   5.403  1.6207 -1.4279  0.0545
  143RES    H9640140   7.385   6.582   5.276 -0.2130  0.7938 -1.1070
  143RES    H9740141   7.491   6.621   5.518 -2.3904 -0.0246  1.1072
  143RES    H9840142   7.565   6.657   5.362  2.2265  0.2704  1.8016
  143RES    H9940143   7.556   6.783   5.491  0.0913 -0.7161 -0.3556
  143RES   O10040144   7.188   6.613   5.136 -0.3612  0.5892  0.5804
  143RES   C10140145   7.202   6.667   4.999 -1.5150  0.2631  0.6152
  143RES   C10240146   7.281   6.567   4.922  0.0557  0.1381  0.3294
  143RES   C10340147   7.207   6.429   4.925 -0.2269 -0.0267  0.1374
  143RES   O10440148   7.247   6.356   4.804 -0.4468 -0.0338  0.4036
  143RES   C10540149   7.149   6.262   4.761  0.1770 -0.2904  0.5614
  143RES   H10640150   7.238   6.770   4.993  3.2048 -1.4150 -1.8645
  143RES   H10740151   7.104   6.663   4.952 -2.0059  1.2442  1.5232
  143RES   H10840152   7.278   6.603   4.818  1.0417 -1.2865 -0.1957
  143RES   H10940153   7.100   6.450   4.920 -0.2042  0.6288  2.0199
  143RES   H11040154   7.230   6.376   5.017  0.3755 -0.6770 -0.3840
  143RES   H11140155   7.131   6.179   4.829 -0.9507 -0.2115  0.3603
  143RES   H11240156   7.187   6.218   4.669  3.2668 -0.5082  1.8625
  143RES   H11340157   7.054   6.310   4.740  1.4050  2.9997  2.1654
  143RES   O11440158   7.420   6.572   4.968  0.2196  0.4960  0.0883
  143RES   C11540159   7.520   6.503   4.896 -0.0551  0.0156  0.8557
  143RES   C11640160   7.654   6.485   4.978 -0.3524  0.5492  0.5485
  143RES   C11740161   7.736   6.365   4.932 -0.0688  0.6089  0.4074
  143RES   O11840162   0.033   6.350   5.009 -0.1666  0.1509 -0.5047
  143RES   C11940163   0.111   6.241   4.966 -0.6540  0.3981 -0.1319
  143RES   H12040164   7.484   6.401   4.881  1.6385 -0.2652 -1.5647
  143RES   H12140165   7.531   6.548   4.798  0.6612 -2.3892 -0.2029
  143RES   H12240166   7.630   6.471   5.083 -0.2533  1.0434  0.6359
  143RES   H12340167   7.678   6.273   4.942  0.9332 -0.0208  0.4225
  143RES   H12440168   7.760   6.373   4.826  2.6051  0.8247  1.0057
  143RES   H12540169   0.197   6.239   5.033 -0.0438 -0.3672 -0.9289
  143RES   H12640170   0.160   6.236   4.869 -0.0279 -2.0181  0.2754
  143RES   H12740171   0.050   6.151   4.975  2.1914 -1.5828 -0.0557
  143RES   O12840172   7.734   6.605   4.944  0.2840  0.5615 -0.3236
  143RES   C12940173   7.799   6.666   5.050 -0.4223  0.0319 -0.3438
  143RES   C13040174   0.017   6.808   5.007  0.0365  0.7684 -0.0099
  143RES   C13140175   7.720   6.898   4.958  0.4676  0.8672  0.5734
  143RES   O13240176   7.735   7.034   4.985 -0.4747 -0.1738  0.0970
  143RES   C13340177   7.609   7.093   4.977 -0.1499  0.2264  0.2881
  143RES   H13440178   7.735   6.670   5.138  1.6402  2.6185  1.1449
  143RES   H13540179   0.072   6.611   5.080 -0.4839 -0.1010 -0.4070
  143RES   H13640180   0.046   6.854   5.101 -2.9907 -2.1236  2.4698
  143RES   H13740181   7.630   6.857   5.004  0.5876  0.9539  0.8883
  143RES   H13840182   7.710   6.880   4.851  0.9053  0.1138  0.6526
  143RES   H13940183   7.536   7.046   5.044  1.6363 -0.8286  1.5229
  143RES   H14040184   7.618   7.196   5.010  0.2346  0.5787 -0.8961
  143RES   H14140185   7.565   7.085   4.878  0.5891  3.0843 -0.2953
  143RES   O14240186   0.113   6.818   4.906  0.4171 -0.4291 -0.1194
  143RES   C14340187   0.247   6.828   4.960 -0.1922  0.3829 -0.4079
  143RES   C14440188   0.346   6.876   4.847  0.6427 -0.1448 -0.2224
  143RES   C14540189   0.478   6.800   4.818 -0.6833  0.2122  0.1274
  143RES   O14640190   0.512   6.780   4.682 -0.0213  0.0648  0.0619
  143RES   C14740191   0.430   6.682   4.620  0.2460 -0.2250 -0.1319
  143RES   H14840192   0.244   6.908   5.034  0.6317  2.5156 -2.5993
  143RES   H14940193   0.283   6.734   5.003 -0.2881 -0.5599 -2.3326
  143RES   H15040194   0.286   6.866   4.757  3.0594  0.4620 -1.9634
  143RES   H15140195   0.478   6.704   4.869 -1.2441 -0.1740 -0.5775
  143RES   H15240196   0.554   6.851   4.877  0.3952 -0.6125 -0.5280
  143RES   H15340197   0.412   6.590   4.676  0.1870 -0.0698  0.1055
  143RES   H15440198   0.471   6.651   4.524  0.9784 -0.0652  0.1313
  143RES   H15540199   0.331   6.728   4.619 -0.6098 -2.0177 -2.6287
  143RES   O15640200   0.361   7.020   4.861  0.2713 -0.0154 -0.2228
  143RES   C15740201   0.437   7.086   4.759 -0.8124 -0.2172 -0.1362
  143RES   C15840202   0.429   7.241   4.773  0.8633  0.3216  0.9674
  143RES   C15940203   0.483   7.307   4.649  0.1640  0.6502  0.4180
  143RES   O16040204   0.429   7.437   4.659  0.0437  0.3841  0.2421
  143RES   C16140205   0.495   7.524   4.561  0.3970  0.1160 -0.7940
  143RES   H16240206   0.544   7.071   4.751 -0.9098 -0.6352 -0.6598
  143RES   H16340207   0.393   7.062   4.662 -1.5993  0.2316  0.1050
  143RES   H16440208   0.325   7.267   4.791  0.5820  0.5231 -0.9144
  143RES   H16540209   0.592   7.295   4.649  0.4508  3.0002  0.9864
  143RES   H16640210   0.443   7.247   4.568  1.1393  0.0079  0.3966
  143RES   H16740211   0.462   7.506   4.459 -2.1392  1.1769 -0.2096
  143RES   H16840212   0.599   7.496   4.573  0.0385 -1.2642 -0.8325
  143RES   H16940213   0.482   7.627   4.593  0.6638 -0.1858  0.2922
  143RES   O17040214   0.500   7.268   4.893 -0.3203 -0.4103 -0.4665
  143RES   C17140215   0.479   7.402   4.943  0.2696  0.6991  0.2740
  143RES   C17240216   0.550   7.421   5.079  0.3011  0.2195 -0.4731
  143RES   C17340217   0.494   7.540   5.152 -0.0313 -0.1437  0.6446
  143RES   O17440218   0.553   7.559   5.277  0.3964  0.0415 -0.2192
  143RES   C17540219   0.511   7.669   5.350  0.8851 -0.2206 -0.1716
  143RES   H17640220   0.373   7.426   4.952 -0.2472 -0.7251 -1.7644
  143RES   H17740221   0.528   7.472   4.875 -1.6879  1.3723 -0.4636
  143RES   H17840222   0.528   7.343   5.152  0.9616 -1.0219 -1.5780
  143RES   H17940223   0.501   7.633   5.096 -2.4723 -0.9868 -1.1726
  143RES   H18040224   0.386   7.530   5.167 -0.2034  0.7327  0.0082
  143RES   H18140225   0.559   7.676   5.447 -1.0686 -0.8071  0.8510
  143RES   H18240226   0.403   7.679   5.362  1.0168  0.9534  0.0948
  143RES   H18340227   0.548   7.757   5.296  0.2404 -0.3680 -0.8559
  143RES   O18440228   0.690   7.435   5.075  0.0712 -0.1749  0.5016
  143RES   C18540229   0.769   7.317   5.089 -0.7203  0.5111 -0.2425
  143RES   C18640230   0.895   7.320   5.002  0.3020 -0.2183 -0.0090
  143RES   C18740231   0.858   7.327   4.854  0.1836 -0.2194  0.2648
  143RES   O18840232   0.977   7.336   4.776 -0.3329 -0.4903  0.0101
  143RES   C18940233   0.945   7.327   4.638 -0.3513  0.1640 -0.8108
  143RES   H19040234   0.708   7.230   5.066 -1.4468  1.0250 -0.2543
  143RES   H19140235   0.809   7.312   5.191  0.0962  1.5320 -0.5118
  143RES   H19240236   0.956   7.403   5.037  2.5437 -1.5766 -0.6064
  143RES   H19340237   0.787   7.405   4.826 -0.3322 -1.0253 -0.7260
  143RES   H19440238   0.807   7.232   4.837 -0.4443  0.1372  0.1468
  143RES   H19540239   0.956   7.224   4.606  0.7304 -0.7708  2.3726
  143RES   H19640240   0.842   7.358   4.622 -0.2196  0.5339 -0.9571
  143RES   H19740241   1.013   7.388   4.578  0.2927 -0.0269 -0.2863
  143RES   O19840242   0.964   7.201   5.027  0.1025 -0.0581 -0.0776
  143RES   C19940243   1.108   7.197   5.007 -1.1045  0.3539 -0.1462
  143RES   C20040244   1.166   7.056   5.007 -0.3835  0.2498  0.1943
  143RES   C20140245   1.317   7.067   5.038 -0.6347 -0.1241 -0.1457
  143RES   O20240246   1.373   6.937   5.069 -0.3885 -0.8059 -1.1884
  143RES   C20340247   1.512   6.932   5.078 -0.3743  1.0637 -0.5115
  143RES   H20440248   1.141   7.245   5.099 -0.3566 -0.2543 -0.0901
  143RES   H20540249   1.142   7.258   4.923  1.5630 -0.5265  0.2476
  143RES   H20640250   1.114   6.994   5.080  0.9675 -2.1356 -0.8183
  143RES   H20740251   1.359   7.117   4.951 -3.1613  1.5280 -0.4608
  143RES   H20840252   1.340   7.126   5.127  2.7476 -1.8024  0.1764
  143RES   H20940253   1.548   6.837   5.117 -1.0328 -0.6353 -3.8454
  143RES   H21040254   1.541   7.008   5.150  1.4237  0.3360 -0.4430
  143RES   H21140255   1.560   6.939   4.980  1.1013  1.7008  0.2439
  143RES   O21240256   1.160   6.998   4.871  0.0340  0.1046 -0.2446
  143RES   C21340257   1.020   6.968   4.833 -0.0010  0.4441 -0.7729
  143RES   C21440258   1.008   6.907   4.692  0.6960  0.5320 -0.0367
  143RES   C21540259   0.867   6.946   4.645  0.1950  0.1335  0.9316
  143RES   O21640260   0.848   6.917   4.507 -0.1808  0.6009 -0.1573
  143RES   C21740261   0.719   6.858   4.475 -0.2669  0.6256  0.2142
  143RES   H21840262   0.965   7.062   4.835  1.4387  1.3230 -1.8999
  143RES   H21940263   0.990   6.898   4.911  0.9124 -1.0604 -1.7631
  143RES   H22040264   1.086   6.955   4.634  0.2009 -0.4177 -1.5439
  143RES   H22140265   0.801   6.878   4.698  0.0448 -0.7356 -0.3613
  143RES   H22240266   0.833   7.045   4.675 -1.4128 -0.5804  1.4787
  143RES   H22340267   0.725   6.751   4.496 -1.0078  0.2456 -1.4063
  143RES   H22440268   0.687   6.884   4.374 -1.3610  0.0518  0.3978
  143RES   H22540269   0.639   6.895   4.538  0.9755 -1.1030  2.8828
  143RES   O22640270   1.022   6.771   4.708  0.6756 -0.2662  0.3045
  143RES   C22740271   1.098   6.710   4.607 -0.2172 -0.5811  0.0992
  143RES   C22840272   1.107   6.563   4.645 -0.2510 -0.1689  0.6426
  143RES   C22940273   1.139   6.487   4.511 -0.7608  0.5513  0.4252
  143RES   O23040274   1.074   6.359   4.517  0.1906  0.5992  0.3318
  143RES   C23140275   1.114   6.272   4.618 -0.1447  0.3486  0.1021
  143RES   H23240276   1.197   6.757   4.605 -0.4383  0.0949  2.8006
  143RES   H23340277   1.049   6.735   4.513 -1.0736 -0.4624  0.5683
  143RES   H23440278   1.023   6.523   4.701 -1.3237  1.0360 -0.0712
  143RES   H23540279   1.247   6.473   4.498 -0.7671 -1.3743  2.3004
  143RES   H23640280   1.090   6.531   4.424 -1.0378 -2.3841 -0.9331
  143RES   H23740281   1.219   6.247   4.604  0.2933  1.1425  1.8165
  143RES   H23840282   1.060   6.178   4.608 -0.5080  0.3902  1.4760
  143RES   H23940283   1.087   6.317   4.714 -0.1700  1.4378 -0.4140
  143RES   O24040284   1.218   6.538   4.738  0.1550  0.6763  0.9048
  143RES   C24140285   1.196   6.566   4.870 -0.7484  0.1351  0.2906
  143RES   C24240286   1.296   6.487   4.962  0.2237 -0.5216  0.2321
  143RES   C24340287   1.295   6.532   5.106 -1.2430  0.0199  0.1111
  143RES   O24440288   1.366   6.441   5.189  0.1580 -0.2356 -0.0696
  143RES   C24540289   1.376   6.490   5.321 -0.3143  0.2960 -0.2677
  143RES   H24640290   1.101   6.532   4.911 -0.1824  0.7731  2.2097
  143RES   H24740291   1.214   6.672   4.885  0.5213 -0.2465  1.7442
  143RES   H24840292   1.399   6.494   4.927  0.7829 -0.7368  1.7769
  143RES   H24940293   1.353   6.624   5.098  1.7202 -1.7445  0.5540
  143RES   H25040294   1.195   6.544   5.147 -0.0159 -1.1203  3.6128
  143RES   H25140295   1.285   6.470   5.378  0.3821 -1.2003  0.3411
  143RES   H25240296   1.406   6.594   5.335 -1.3519  0.5093  0.3998
  143RES   H25340297   1.453   6.427   5.364 -1.0831  1.5426  3.0701
  143RES   O25440298   1.255   6.348   4.956 -0.2849  0.2038 -0.2260
  143RES   C25540299   1.358   6.254   4.947 -0.8029 -0.4709 -1.0058
  143RES   C25640300   1.315   6.111   5.002 -0.0651 -0.8383 -0.2315
  143RES   C25740301   1.235   6.131   5.129 -0.2836 -0.0795  0.3829
  143RES   O25840302   1.216   6.009   5.200  0.0886 -0.1800 -0.0697
  143RES   C25940303   1.105   6.015   5.295  0.4060  0.0022  0.0683
  143RES   H26040304   1.395   6.260   4.844  1.1347  1.5443 -0.2301
  143RES   H26140305   1.439   6.283   5.013 -0.3566 -0.0900 -1.7105
  143RES   H26240306   1.400   6.051   5.033  0.1760  0.7524  2.3341
  143RES   H26340307   1.283   6.210   5.186  0.6879 -0.3278 -0.0970
  143RES   H26440308   1.131   6.156   5.105  0.2689  0.4971 -1.4488
  143RES   H26540309   1.008   6.024   5.245 -0.4593  3.2133  2.1914
  143RES   H26640310   1.111   6.100   5.362 -0.4717  0.7219 -0.7446
  143RES   H26740311   1.107   5.917   5.343  0.9027 -0.1756 -0.3150
  143RES   O26840312   1.233   6.054   4.902 -0.3598 -0.4499 -0.4551
  143RES   C26940313   1.190   5.918   4.928 -0.0332 -0.7010  0.4529
  143RES   C27040314   1.123   5.866   4.797  0.4839  0.1559  1.1385
  143RES   C27140315   1.067   5.724   4.810 -0.1089  0.0869 -0.5257
  143RES   O27240316   1.027   5.668   4.689 -0.0272  0.9599 -0.4201
  143RES   C27340317   0.984   5.531   4.702  0.6171  0.2958 -0.3067
  143RES   H27440318   1.119   5.917   5.010 -0.4065 -2.4735  0.1279
  143RES   H27540319   1.277   5.856   4.950 -1.8425 -2.9493  1.4479
  143RES   H27640320   1.048   5.938   4.767 -1.0662 -1.2760  1.4755
  143RES   H27740321   0.983   5.711   4.878  0.1378 -0.1839 -0.2699
  143RES   H27840322   1.143   5.664   4.861 -1.2500 -0.5701  0.4237
  143RES   H27940323   0.967   5.490   4.602  0.4044  1.7786 -0.8869
  143RES   H28040324   0.904   5.508   4.772  0.4677 -1.6043 -1.0737
  143RES   H28140325   1.062   5.471   4.750 -0.5539  0.4988  1.8960
  143RES   H28240326   1.190   5.865   4.711 -0.0501  0.8794  0.7085
  144RES     O140327   2.317   7.591   0.502 -0.2846 -0.0658 -0.3222
  144RES     C240328   2.364   7.498   0.405 -0.6018 -0.3999 -0.0446
  144RES     C340329   2.415   7.556   0.269 -0.1145  0.2931  0.0983
  144RES     C440330   2.466   7.450   0.169  0.3744 -0.1160 -0.6095
  144RES     O540331   2.561   7.509   0.084  0.4841 -0.1366 -0.0124
  144RES     C640332   2.596   7.428   7.796  0.1223 -0.5987  0.2389
  144RES     H740333   2.428   7.428   0.457  0.2129  1.9817  2.2843
  144RES     H840334   2.282   7.430   0.383 -3.1056  1.2620  3.5995
  144RES     H940335   2.491   7.627   0.300  1.9028 -1.7968  0.1134
  144RES    H1040336   2.381   7.412   0.111 -1.1372 -1.5003  2.3667
  144RES    H1140337   2.520   7.373   0.223 -0.2306  0.9154  1.5313
  144RES    H1240338   2.635   7.333   0.017  2.9419 -0.1613 -1.3712
  144RES    H1340339   2.509   7.422   7.731  0.8977  3.5808 -1.3072
  144RES    H1440340   2.678   7.473   7.740  0.7127 -2.5071 -0.4703
  144RES    H1540341   2.291   7.669   0.455 -2.4344 -0.1448  0.6679
  144RES    O1640342   2.302   7.619   0.205  0.1161  0.2107  0.2651
  144RES    C1740343   2.322   7.752   0.158 -0.0634  0.1873 -0.7419
  144RES    C1840344   2.213   7.795   0.069  0.0222 -0.0616  0.3083
  144RES    C1940345   2.215   0.135   0.057  0.1696 -0.1954  0.2762
  144RES    O2040346   2.085   0.176   0.025  0.3779  0.6225 -0.1260
  144RES    C2140347   2.065   0.309   0.064 -0.5956  0.3319  0.1820
  144RES    H2240348   2.417   7.757   0.105  1.0918 -1.4242  1.1249
  144RES    H2340349   2.329   0.004   0.242 -2.7544  0.8594 -1.0312
  144RES    H2440350   2.113   7.759   0.093 -0.8446  0.6879 -2.0828
  144RES    H2540351   2.239   0.168   0.158  0.0129 -0.3281  0.3565
  144RES    H2640352   2.302   0.170   0.001  1.7126 -1.2951  1.9441
  144RES    H2740353   2.121   0.371   7.811 -0.1542  0.2009  0.4177
  144RES    H2840354   2.081   0.325   0.170 -1.2367  0.3174  0.2854
  144RES    H2940355   1.963   0.344   0.048 -0.5212 -0.1911 -1.6250
  144RES    O3040356   2.234   7.753   7.753 -0.3452  0.5449  0.3332
  144RES    C3140357   2.246   7.616   7.729  0.1621 -0.9193 -0.3312
  144RES    C3240358   2.224   7.599   7.573  0.2064  0.5737 -0.1634
  144RES    C3340359   2.193   7.442   7.536  1.1367  0.6900 -0.4827
  144RES    O3440360   2.110   7.427   7.416  0.7574  0.4391 -0.2849
  144RES    C3540361   2.175   7.431   7.293 -0.1934 -0.2961 -0.8326
  144RES    H3640362   2.346   7.587   7.762  0.3263 -1.1825 -1.0629
  144RES    H3740363   2.161   7.568   7.777 -1.2648  3.3026  1.6175
  144RES    H3840364   2.136   7.658   7.551  1.2557  1.6591 -1.5658
  144RES    H3940365   2.134   7.414   7.624  0.4389  2.0515 -0.4878
  144RES    H4040366   2.277   7.374   7.542 -0.5313 -1.3223  1.0626
  144RES    H4140367   2.265   7.371   7.296 -0.4714 -0.6797  0.1210
  144RES    H4240368   2.205   7.532   7.263  1.4815 -0.8371 -1.0091
  144RES    H4340369   2.101   7.391   7.225  2.6563 -1.6717 -3.2165
  144RES    O4440370   2.341   7.625   7.484  0.2605 -0.0833  0.2073
  144RES    C4540371   2.393   7.754   7.475 -0.1658  0.9748  0.9097
  144RES    C4640372   2.303   0.035   7.409  0.4998  0.2524  0.4355
  144RES    C4740373   2.344   0.179   7.442  0.2041  0.2940  0.2747
  144RES    O4840374   2.249   0.273   7.400  0.1494 -0.3449 -0.4291
  144RES    C4940375   2.172   0.313   7.511 -0.0649  0.8288 -0.4207
  144RES    H5040376   2.494   7.758   7.435  0.4199  0.5364  2.3053
  144RES    H5140377   2.408   7.793   7.576  3.5716 -1.2457  1.2983
  144RES    H5240378   2.202   0.015   7.445 -0.6664  2.3853 -1.5200
  144RES    H5340379   2.361   0.176   7.549 -0.6378 -2.4189  0.3829
  144RES    H5440380   2.445   0.194   7.403 -0.5998  0.1728 -1.9451
  144RES    H5540381   2.127   0.230   7.565  0.1069 -1.2004 -3.2672
  144RES    H5640382   2.086   0.371   7.480 -1.3125 -0.7990 -0.0428
  144RES    H5740383   2.218   0.383   7.581 -1.3832  2.3135 -1.0138
  144RES    O5840384   2.310   0.024   7.266 -0.1926 -0.4132  0.9794
  144RES    C5940385   2.194   0.036   7.202  0.2351 -0.0939 -0.2156
  144RES    C6040386   2.226   7.811   7.053 -0.2664  0.0399  0.4241
  144RES    C6140387   2.205   0.129   6.968 -0.3855 -0.5086  0.3190
  144RES    O6240388   2.294   0.122   6.854  0.3474  0.4406  0.0696
  144RES    C6340389   2.284   0.231   6.761  0.3220 -0.4465  0.2621
  144RES    H6440390   2.145   0.133   7.207  0.4726  0.1396 -2.0425
  144RES    H6540391   2.123   7.788   7.252  0.8473 -1.6573 -1.3109
  144RES    H6640392   2.326   7.771   7.039 -0.4798  0.5412 -2.9249
  144RES    H6740393   2.097   0.139   6.962 -0.5748 -1.3729  1.9917
  144RES    H6840394   2.234   0.218   7.024  1.2802  0.7832 -2.4570
  144RES    H6940395   2.357   0.234   6.680  0.3568 -0.6526  0.2838
  144RES    H7040396   2.299   0.323   6.816  1.6552 -0.2002 -0.4960
  144RES    H7140397   2.183   0.241   6.721  1.0568 -0.2482 -1.5829
  144RES    O7240398   2.137   7.704   7.022  0.3026 -0.8358 -0.6572
  144RES    C7340399   2.123   7.675   6.883  0.1063 -0.2346 -0.0016
  144RES    C7440400   2.052   7.536   6.863 -0.1576  0.7029  0.5246
  144RES    C7540401   1.909   7.529   6.932  0.2674 -0.3851  0.6452
  144RES    O7640402   1.841   7.418   6.873 -0.4580 -0.1824  0.2563
  144RES    C7740403   1.794   7.441   6.736  0.7203 -0.4549  0.2109
  144RES    H7840404   2.065   7.754   6.835 -2.0444 -1.7327  0.0701
  144RES    H7940405   2.221   7.667   6.835 -0.0468  0.1099 -0.3784
  144RES    H8040406   2.054   7.524   6.754  0.2592  0.1676  0.5869
  144RES    H8140407   1.846   7.614   6.905  0.5956  0.4373  2.3673
  144RES    H8240408   1.915   7.544   7.040  0.5779  0.1621  0.5515
  144RES    H8340409   1.868   7.489   6.671 -0.3392 -0.3760 -0.9741
  144RES    H8440410   1.718   7.519   6.745  0.1419 -0.6915 -2.2581
  144RES    H8540411   1.758   7.347   6.696 -1.0104  0.4541 -0.4303
  144RES    O8640412   2.133   7.433   6.928  0.0259  0.6924 -0.2060
  144RES    C8740413   2.192   7.346   6.839 -0.6499  0.5222 -0.5285
  144RES    C8840414   2.307   7.273   6.909  0.5740  0.1081 -0.6069
  144RES    C8940415   2.324   7.133   6.837 -0.4293 -0.1559 -0.0740
  144RES    O9040416   2.301   7.130   6.700  0.2112  0.1932 -0.0740
  144RES    C9140417   2.413   7.181   6.626  1.1282 -0.0030 -0.1268
  144RES    H9240418   2.117   7.272   6.813 -2.7336  2.4291 -0.0848
  144RES    H9340419   2.227   7.390   6.746  0.6430 -0.0135 -0.3029
  144RES    H9440420   2.290   7.253   7.014  0.8992 -1.2940 -0.8098
  144RES    H9540421   2.425   7.095   6.857 -0.1162  0.2112 -0.9295
  144RES    H9640422   2.254   7.064   6.883  0.6426 -0.0816  1.7683
  144RES    H9740423   2.394   7.152   6.523  0.4412  1.4120 -0.4041
  144RES    H9840424   2.421   7.288   6.646 -0.7237  0.6099 -2.4720
  144RES    H9940425   2.509   7.135   6.653  1.3395  0.3190 -0.3356
  144RES   O10040426   2.434   7.342   6.893 -0.2494  0.1320  0.8350
  144RES   C10140427   2.441   7.446   6.991  0.5367 -0.1236  0.1839
  144RES   C10240428   2.563   7.533   6.983 -0.0855 -0.1353  0.0798
  144RES   C10340429   2.597   7.614   7.103 -0.1946  0.2311  0.1396
  144RES   O10440430   2.730   7.650   7.113  1.1555  0.4029  0.0435
  144RES   C10540431   2.753   7.757   7.205  0.3390  0.2805  0.4063
  144RES   H10640432   2.452   7.399   7.089 -2.1057 -1.9474 -0.3502
  144RES   H10740433   2.359   7.517   7.000  0.6926 -0.1336  1.7775
  144RES   H10840434   2.641   7.462   6.957  1.5019  1.7120 -0.3195
  144RES   H10940435   2.585   7.560   7.197 -2.7393 -0.0844 -0.3422
  144RES   H11040436   2.529   7.699   7.110 -1.3244 -0.6492 -0.0984
  144RES   H11140437   2.711   7.741   7.304 -2.2003  0.1912 -0.6664
  144RES   H11240438   2.729   0.037   7.163  0.2924  0.3206  0.5280
  144RES   H11340439   2.860   7.750   7.224  0.5196 -1.9789 -1.1637
  144RES   O11440440   2.542   7.613   6.870  0.6648 -0.1480 -0.2158
  144RES   C11540441   2.651   7.695   6.837 -0.1227 -0.4268  0.1084
  144RES   C11640442   2.627   7.756   6.700  0.2209  0.0668 -0.1820
  144RES   C11740443   2.712   0.066   6.664  0.6270 -0.3656  0.3867
  144RES   O11840444   2.849   0.044   6.689 -0.3005 -0.3090 -0.5349
  144RES   C11940445   2.933   0.138   6.627 -0.2820 -0.0729  0.0809
  144RES   H12040446   2.659   7.775   6.910 -2.0913 -0.1528  0.0360
  144RES   H12140447   2.747   7.645   6.825  1.5480  2.4487  0.9887
  144RES   H12240448   2.521   7.783   6.697 -0.2451 -1.6585  0.0405
  144RES   H12340449   2.699   0.108   6.564 -0.7977  1.2550  1.2078
  144RES   H12440450   2.678   0.142   6.735  0.6508  0.4685 -0.4836
  144RES   H12540451   2.895   0.235   6.659  2.4891  1.2244 -0.4414
  144RES   H12640452   2.940   0.148   6.518  2.6582  0.4948  0.2759
  144RES   H12740453   3.034   0.126   6.665 -0.6412  2.4539  1.9734
  144RES   O12840454   2.647   7.674   6.582 -0.0035  0.2913  0.1558
  144RES   C12940455   2.537   7.585   6.568  0.4635 -0.3977  0.6172
  144RES   C13040456   2.484   7.593   6.426 -0.0186  0.3298  0.1012
  144RES   C13140457   2.597   7.611   6.322 -0.7896  0.2704 -0.3364
  144RES   O13240458   2.552   7.577   6.197 -0.0343  0.2509 -0.1549
  144RES   C13340459   2.501   7.673   6.107  1.0623  0.0738 -0.6136
  144RES   H13440460   2.582   7.487   6.582  1.6231 -0.3343 -2.3152
  144RES   H13540461   2.454   7.589   6.639  0.7827 -1.4852  1.0482
  144RES   H13640462   2.443   7.495   6.403  1.7865 -0.3953 -0.0717
  144RES   H13740463   2.679   7.542   6.346 -0.8803 -0.3331 -1.7331
  144RES   H13840464   2.646   7.708   6.331 -1.7213  0.7832 -0.7235
  144RES   H13940465   2.570   7.749   6.070  0.5445  1.7074  1.6288
  144RES   H14040466   2.467   7.624   6.016  0.1527  2.1103 -1.4254
  144RES   H14140467   2.408   7.723   6.137  0.6594 -1.0710  0.0785
  144RES   O14240468   2.390   7.702   6.406  0.3244  0.1119 -0.2643
  144RES   C14340469   2.256   7.703   6.460 -0.0758 -0.7645 -0.0772
  144RES   C14440470   2.204   0.026   6.421  0.2669 -0.3996  0.2214
  144RES   C14540471   2.061   0.038   6.476 -0.5118  0.2670  0.1090
  144RES   O14640472   2.056   0.058   6.620 -0.2492  0.4266 -0.3326
  144RES   C14740473   1.938   0.132   6.663  0.4812 -0.1133  0.2070
  144RES   H14840474   2.189   7.631   6.414 -0.0929 -1.3516  0.8625
  144RES   H14940475   2.264   7.687   6.567 -0.8304  2.3556  0.5129
  144RES   H15040476   2.267   0.097   6.476 -1.2627  0.3616  1.0332
  144RES   H15140477   1.995   7.770   6.459 -1.6745  1.1679 -0.0165
  144RES   H15240478   1.999   0.113   6.426 -1.2174  2.0595  3.4716
  144RES   H15340479   1.853   0.079   6.621 -0.4467  3.7748 -3.0778
  144RES   H15440480   1.937   0.234   6.624 -0.7498 -0.7167 -1.4140
  144RES   H15540481   1.941   0.140   6.771  1.9810  0.3479  0.1483
  144RES   O15640482   2.198   0.047   6.283  0.0066  0.0329 -0.2748
  144RES   C15740483   2.196   0.182   6.242 -0.2942 -0.4312  0.2499
  144RES   C15840484   2.217   0.188   6.087 -0.7030 -0.6664  0.4085
  144RES   C15940485   2.256   0.330   6.044  0.0314 -0.2506  0.6513
  144RES   O16040486   2.313   0.314   5.911  0.2467  0.1546 -0.0555
  144RES   C16140487   2.337   0.441   5.862 -0.1845  0.0032  0.0617
  144RES   H16240488   2.107   0.240   6.265  0.7150  1.2069  0.0912
  144RES   H16340489   2.281   0.226   6.294 -2.0238  0.9934  1.9289
  144RES   H16440490   2.300   0.121   6.062 -0.5323  0.1270 -1.1997
  144RES   H16540491   2.165   0.391   6.046 -0.4359 -0.8120 -1.8335
  144RES   H16640492   2.331   0.365   6.115  0.3143  0.6503 -0.0808
  144RES   H16740493   2.245   0.499   5.859  0.5711  1.4211  2.6398
  144RES   H16840494   2.375   0.427   5.760 -2.6646  0.0418 -0.9073
  144RES   H16940495   2.414   0.499   5.912 -1.5360  1.4905  0.4398
  144RES   O17040496   2.097   0.152   6.026 -0.1740  0.0867  0.1330
  144RES   C17140497   2.102   0.077   5.900  0.3659  0.3078 -0.9896
  144RES   C17240498   2.126   7.751   5.934 -0.5559 -0.3989 -0.0673
  144RES   C17340499   2.179   7.663   5.823 -0.5473 -0.1689 -0.3653
  144RES   O17440500   2.200   7.527   5.871  0.4721 -0.2528 -0.3220
  144RES   C17540501   2.268   7.441   5.785 -0.2815 -0.1311  0.2284
  144RES   H17640502   2.183   0.120   5.841  1.0567 -0.2773 -0.4935
  144RES   H17740503   2.013   0.087   5.839 -0.0780  1.4624 -0.1662
  144RES   H17840504   2.195   7.754   6.019  0.7850  2.5617 -1.1712
  144RES   H17940505   2.106   7.662   5.742 -0.6250 -0.2598 -0.2934
  144RES   H18040506   2.273   7.703   5.785  0.3241 -0.1590  1.7563
  144RES   H18140507   2.216   7.421   5.692 -1.4233 -0.6511  0.9732
  144RES   H18240508   2.277   7.345   5.835  1.5218 -0.3719 -0.5083
  144RES   H18340509   2.369   7.471   5.756 -0.8996 -0.1754 -2.0589
  144RES   O18440510   1.999   7.699   5.966 -0.5607  0.0938 -0.1534
  144RES   C18540511   1.967   7.709   6.102 -0.5514  0.1015  0.0878
  144RES   C18640512   1.881   7.585   6.141 -0.6151  0.0465  0.2652
  144RES   C18740513   1.748   7.621   6.211  0.4666  0.2242 -0.3095
  144RES   O18840514   1.767   7.705   6.319 -0.2632  0.4099  0.0205
  144RES   C18940515   1.647   7.723   6.394 -0.3821  0.1266 -0.5255
  144RES   H19040516   1.913   7.800   6.129  1.3598  1.0910  0.6809
  144RES   H19140517   2.053   7.706   6.170 -0.3590  1.0359 -0.1071
  144RES   H19240518   1.852   7.539   6.046 -2.0511  0.8794  0.2964
  144RES   H19340519   1.697   7.529   6.236  1.3007 -0.4700 -1.1026
  144RES   H19440520   1.677   7.667   6.142  2.1385  0.9292 -1.5902
  144RES   H19540521   1.660   7.810   6.457  0.4251 -0.6449  0.4025
  144RES   H19640522   1.553   7.723   6.339 -0.7040  0.2041  0.0233
  144RES   H19740523   1.635   7.641   6.465 -3.0141 -0.0833 -1.1854
  144RES   O19840524   1.942   7.484   6.225 -0.0568 -0.0494  0.2509
  144RES   C19940525   2.034   7.409   6.143 -0.0496 -0.1643  0.5452
  144RES   C20040526   2.132   7.335   6.246 -0.1287  0.3340 -0.8172
  144RES   C20140527   2.260   7.287   6.171  0.1963  0.0018  0.0868
  144RES   O20240528   2.358   7.267   6.270 -0.4220  0.2402  0.0984
  144RES   C20340529   2.468   7.187   6.228 -0.9009 -0.5129  0.3414
  144RES   H20440530   2.085   7.470   6.069 -0.4687  1.8037  1.8429
  144RES   H20540531   1.971   7.338   6.090 -0.5041  2.2735 -2.2924
  144RES   H20640532   2.167   7.395   6.331 -0.4492 -0.9478  0.2452
  144RES   H20740533   2.245   7.207   6.098 -0.2094  0.9459 -0.8892
  144RES   H20840534   2.297   7.375   6.119 -0.3152  0.9836  1.3673
  144RES   H20940535   2.511   7.229   6.138  0.4964  0.3840  1.3994
  144RES   H21040536   2.436   7.085   6.210  1.4569 -1.4993  1.4962
  144RES   H21140537   2.541   7.168   6.308 -0.2629  0.4564  0.0046
  144RES   O21240538   2.066   7.219   6.301  0.0986  0.5395  0.8903
  144RES   C21340539   2.132   7.148   6.401  0.7627  0.2048 -0.5086
  144RES   C21440540   2.044   7.051   6.481  1.2963  1.0168 -0.2525
  144RES   C21540541   2.013   7.089   6.626 -0.2754  0.3363 -0.1619
  144RES   O21640542   1.889   7.043   6.663  0.4913  0.0559  0.1000
  144RES   C21740543   1.844   7.071   6.796  0.1559  0.0932 -0.0075
  144RES   H21840544   2.167   7.218   6.477 -0.8258 -1.0273  1.4264
  144RES   H21940545   2.218   7.092   6.365  1.7538  0.8288  0.8734
  144RES   H22040546   1.958   7.041   6.415  0.8894 -1.1029  0.5617
  144RES   H22140547   2.092   7.063   6.696 -1.7710  0.4816  1.6011
  144RES   H22240548   2.013   7.198   6.623  2.3624  0.4235  1.9741
  144RES   H22340549   1.897   7.022   6.876 -1.6546 -0.7502  0.6990
  144RES   H22440550   1.742   7.039   6.817  0.2966 -1.5496 -1.6577
  144RES   H22540551   1.848   7.177   6.820 -1.3450  0.3370 -0.7267
  144RES   O22640552   2.106   6.919   6.488 -0.0143  0.0081  0.2975
  144RES   C22740553   2.021   6.812   6.518 -0.7659 -0.9761  0.7670
  144RES   C22840554   2.089   6.681   6.486  0.1139 -0.5117  0.2900
  144RES   C22940555   2.020   6.568   6.558  0.1935  0.0762  0.5377
  144RES   O23040556   2.105   6.462   6.595 -0.5630 -0.1099 -0.0203
  144RES   C23140557   2.176   6.401   6.492  0.5969 -0.3809  0.1965
  144RES   H23240558   1.921   6.826   6.477 -1.0839  0.9993  2.1440
  144RES   H23340559   2.003   6.822   6.625  0.3858 -0.3464  0.9042
  144RES   H23440560   2.193   6.690   6.517 -0.5383  0.0381  2.3949
  144RES   H23540561   1.926   6.533   6.516 -0.6478  0.5120  2.0267
  144RES   H23640562   1.991   6.606   6.656  0.5820  1.2135  0.2151
  144RES   H23740563   2.261   6.457   6.455  0.4113  0.6856  1.3407
  144RES   H23840564   2.110   6.372   6.410  0.7259  0.1854 -0.1084
  144RES   H23940565   2.230   6.310   6.519 -0.4810 -0.3615  2.5707
  144RES   O24040566   2.065   6.657   6.351 -0.3601  0.3602  0.0876
  144RES   C24140567   2.154   6.714   6.259  0.4515  0.0313  0.4023
  144RES   C24240568   2.292   6.642   6.246 -0.3522  0.3527 -0.1239
  144RES   C24340569   2.375   6.674   6.119  0.3774  0.1151 -0.3409
  144RES   O24440570   2.381   6.821   6.096 -0.2089 -0.0178 -0.0721
  144RES   C24540571   2.474   6.862   5.996  0.3620  0.2887 -0.1565
  144RES   H24640572   2.162   6.821   6.280 -0.5800  0.1275  0.3557
  144RES   H24740573   2.109   6.701   6.160 -0.5097  2.4502  0.4823
  144RES   H24840574   2.263   6.536   6.240 -1.4442  0.7233 -1.7197
  144RES   H24940575   2.480   6.646   6.125  0.8547  1.1638 -3.1721
  144RES   H25040576   2.348   6.631   6.023 -0.2070  1.1000 -0.6255
  144RES   H25140577   2.579   6.833   6.008  0.6248  1.5313  0.5930
  144RES   H25240578   2.464   6.970   5.992 -2.6093  0.0002 -1.9537
  144RES   H25340579   2.433   6.829   5.901 -1.0927 -0.8893  0.8625
  144RES   O25440580   2.369   6.652   6.366  0.0183 -0.2744  0.3530
  144RES   C25540581   2.418   6.781   6.402 -0.2232  0.9640  0.0070
  144RES   C25640582   2.496   6.781   6.531 -0.0867 -0.1743 -0.2887
  144RES   C25740583   2.420   6.734   6.660 -0.0343 -0.7315 -0.4289
  144RES   O25840584   2.509   6.711   6.773 -0.0244  0.4451 -0.0057
  144RES   C25940585   2.427   6.643   6.868  0.6311  0.8333  0.1793
  144RES   H26040586   2.482   6.828   6.328 -2.8595 -1.7103 -4.2037
  144RES   H26140587   2.336   6.850   6.422 -0.8398  0.2631 -0.0652
  144RES   H26240588   2.537   6.881   6.545 -0.5919  0.3603 -2.3637
  144RES   H26340589   2.343   6.807   6.683  3.0539  3.0572 -1.4946
  144RES   H26440590   2.362   6.647   6.630  0.0911 -0.6397 -0.9313
  144RES   H26540591   2.491   6.600   6.944  0.3729 -2.1537 -1.2366
  144RES   H26640592   2.372   6.560   6.823  1.1926  1.6697 -2.1273
  144RES   H26740593   2.352   6.707   6.915  1.7843  1.8644  0.6486
  144RES   O26840594   2.628   6.716   6.516 -0.4383 -0.0655  0.1300
  144RES   C26940595   2.635   6.584   6.484 -0.2549 -0.0277  0.2866
  144RES   C27040596   2.791   6.555   6.513 -0.0738 -0.3195 -0.5672
  144RES   C27140597   2.825   6.412   6.487 -0.0545 -0.8193 -0.8084
  144RES   O27240598   2.945   6.382   6.559  0.2387  0.5700 -0.5881
  144RES   C27340599   2.985   6.241   6.561 -0.2124  0.0669 -0.2201
  144RES   H27440600   2.604   6.582   6.380 -0.3504  1.4815  0.2875
  144RES   H27540601   2.574   6.518   6.545  1.3853 -0.4295  1.5328
  144RES   H27640602   2.839   6.624   6.443  0.1612  1.6412  1.4700
  144RES   H27740603   2.834   6.392   6.380 -1.5437  2.3262 -1.5701
  144RES   H27840604   2.751   6.345   6.531 -1.2124  1.2526  0.4725
  144RES   H27940605   2.941   6.209   6.656  0.2154  2.8309  0.9675
  144RES   H28040606   3.093   6.236   6.571 -0.0650  0.2941 -1.6687
  144RES   H28140607   2.940   6.178   6.485  0.1849 -1.8724  1.1161
  144RES   H28240608   2.826   6.593   6.609 -1.4972 -1.3175  0.3639
  145RES     O140609   0.046   0.461   7.111  0.0676 -0.0460 -0.1731
  145RES     C240610   0.044   0.391   7.229 -0.1059 -0.4798 -0.6733
  145RES     C340611   0.121   0.471   7.336  0.0982 -0.1416  0.3260
  145RES     C440612   0.101   0.428   7.479  0.1742 -0.0761 -0.0448
  145RES     O540613   0.035   0.528   7.562  0.3887  0.0959 -0.4455
  145RES     C640614   7.709   0.537   7.538  0.0657  0.1477 -0.1081
  145RES     H740615   7.759   0.373   7.262 -0.2170  0.6225 -0.3953
  145RES     H840616   0.099   0.298   7.214 -0.1391 -1.0634  2.5926
  145RES     H940617   0.070   0.567   7.327 -0.8409 -0.6320  0.2981
  145RES    H1040618   0.203   0.407   7.510  1.3021 -0.4193 -3.6671
  145RES    H1140619   0.048   0.334   7.493 -0.7756  0.0730 -2.2922
  145RES    H1240620   7.672   0.619   7.599 -0.3548  0.0343 -0.2074
  145RES    H1340621   7.693   0.555   7.432 -0.7346 -3.6686 -0.7086
  145RES    H1440622   7.647   0.450   7.557  0.6417 -0.1690  0.3435
  145RES    H1540623   0.104   0.535   7.113 -1.5803  1.3533 -1.8186
  145RES    O1640624   0.259   0.477   7.298 -0.4102  0.5774  0.4341
  145RES    C1740625   0.348   0.581   7.348 -0.1628 -0.4914 -0.0900
  145RES    C1840626   0.488   0.591   7.272 -0.0110  0.0898 -0.1784
  145RES    C1940627   0.571   0.713   7.318 -0.5143  0.7043 -0.4263
  145RES    O2040628   0.563   0.727   7.457  0.1861  0.7641 -0.4344
  145RES    C2140629   0.670   0.791   7.516 -0.4099 -0.0531 -0.1722
  145RES    H2240630   0.367   0.587   7.455 -0.5641  0.5528 -0.0760
  145RES    H2340631   0.303   0.678   7.326  1.8331  0.7219  1.0020
  145RES    H2440632   0.477   0.595   7.163 -1.0656 -0.2103 -0.0916
  145RES    H2540633   0.675   0.713   7.285 -0.5252  0.8383 -0.4630
  145RES    H2640634   0.523   0.800   7.273 -0.1585  0.5252 -1.1606
  145RES    H2740635   0.683   0.891   7.473 -0.1220  0.4455  1.0475
  145RES    H2840636   0.753   0.727   7.489  1.9732  2.5047  0.8495
  145RES    H2940637   0.657   0.804   7.624 -0.5156  1.0970 -0.3117
  145RES    O3040638   0.548   0.469   7.310  0.3083 -0.4818  0.3511
  145RES    C3140639   0.671   0.429   7.243  0.7723  0.5319  0.0870
  145RES    C3240640   0.686   0.277   7.249  0.0025 -0.3396  0.1039
  145RES    C3340641   0.830   0.227   7.223 -0.3525 -0.5279 -0.3825
  145RES    O3440642   0.856   0.086   7.242  0.4251 -0.2718 -0.2903
  145RES    C3540643   0.884   0.058   7.378  0.0123  0.8992 -0.2333
  145RES    H3640644   0.667   0.460   7.139 -1.4635  1.6449  0.4564
  145RES    H3740645   0.749   0.493   7.286  0.1738  0.3645  1.4631
  145RES    H3840646   0.649   0.246   7.346  0.1452 -0.5245  0.1005
  145RES    H3940647   0.902   0.292   7.272 -2.2567  0.8906  0.5950
  145RES    H4040648   0.854   0.240   7.117 -0.9898 -0.0765 -0.4691
  145RES    H4140649   0.808   0.079   7.453  1.8757 -0.6396  2.2041
  145RES    H4240650   0.977   0.106   7.408 -1.0380  1.9046  1.5099
  145RES    H4340651   0.898   7.767   7.391 -1.9717  0.7683  1.0667
  145RES    O4440652   0.605   0.224   7.139  0.7960  0.5620  0.2630
  145RES    C4540653   0.533   0.107   7.172  0.2472 -0.2940 -0.3476
  145RES    C4640654   0.486   0.039   7.043  0.3560  0.0253 -0.0543
  145RES    C4740655   0.604   7.810   6.958 -0.4352  0.1020 -0.6107
  145RES    O4840656   0.552   7.753   6.835 -0.3395 -0.3417 -0.5244
  145RES    C4940657   0.656   7.711   6.752 -0.5727 -0.3981 -0.4627
  145RES    H5040658   0.452   0.145   7.233 -0.2947 -1.1961 -0.4920
  145RES    H5140659   0.604   0.048   7.229  3.9947  1.3470 -3.0569
  145RES    H5240660   0.423   0.102   6.981  0.3423  1.1624  1.1139
  145RES    H5340661   0.673   0.075   6.936 -1.3199  1.4829  1.5829
  145RES    H5440662   0.654   7.726   7.005  1.4540  2.2293  1.2840
  145RES    H5540663   0.720   7.797   6.732 -1.9081  0.8336  0.4674
  145RES    H5640664   0.629   7.676   6.652 -1.1271  0.4208 -0.6049
  145RES    H5740665   0.713   7.633   6.802 -1.1270  1.2061  2.8056
  145RES    O5840666   0.416   7.742   7.071  0.3431  0.2237  0.2961
  145RES    C5940667   0.287   7.768   7.128  0.0032 -0.5890 -0.0513
  145RES    C6040668   0.194   7.650   7.109 -0.2385 -0.8983  0.1365
  145RES    C6140669   0.047   7.695   7.117 -0.3847  0.4074 -0.2146
  145RES    O6240670   7.784   7.587   7.075  0.1786 -0.5232  0.0551
  145RES    C6340671   7.641   7.609   7.087 -0.4265 -0.3026  0.1543
  145RES    H6440672   0.242   0.032   7.071  2.3890  0.7915 -0.0513
  145RES    H6540673   0.296   7.808   7.229  1.1158  0.4093 -0.5277
  145RES    H6640674   0.208   7.605   7.011 -0.8448 -1.3221  0.2388
  145RES    H6740675   0.022   7.724   7.219  2.5985  0.2805  0.5773
  145RES    H6840676   0.029   7.782   7.053  1.3036  1.5984  0.8833
  145RES    H6940677   7.609   7.627   7.189  0.1441  0.9396  0.1273
  145RES    H7040678   7.578   7.538   7.034 -2.8922  0.8630  1.4667
  145RES    H7140679   7.632   7.698   7.025 -1.9138 -1.0583 -0.7492
  145RES    O7240680   0.229   7.565   7.215 -0.1240 -0.3805  0.3238
  145RES    C7340681   0.277   7.438   7.172 -0.8301 -0.4163 -0.8297
  145RES    C7440682   0.290   7.356   7.298 -0.3186  0.8796  0.1482
  145RES    C7540683   0.398   7.246   7.273 -0.7853  0.4366 -0.0470
  145RES    O7640684   0.403   7.149   7.373 -0.7846 -0.1875  0.0557
  145RES    C7740685   0.490   7.044   7.342  0.1980 -0.7372 -0.4497
  145RES    H7840686   0.206   7.396   7.101 -1.2398 -0.6394 -0.2913
  145RES    H7940687   0.372   7.449   7.120  1.6170 -2.1446  3.0632
  145RES    H8040688   0.309   7.417   7.385 -2.1574 -0.6337  1.6620
  145RES    H8140689   0.495   7.296   7.261  1.2347 -2.4137  3.1428
  145RES    H8240690   0.380   7.196   7.178 -0.5987  0.9578 -0.3528
  145RES    H8340691   0.459   6.995   7.250  0.6106 -2.8329  0.5171
  145RES    H8440692   0.490   6.957   7.408  0.0732 -0.3530  0.0665
  145RES    H8540693   0.595   7.073   7.346  0.0724 -0.3298  0.1481
  145RES    O8640694   0.165   7.283   7.320  0.4371  0.0421  0.6555
  145RES    C8740695   0.064   7.362   7.391  0.5813  0.6607  0.1120
  145RES    C8840696   7.750   7.274   7.403  0.2155  0.0395 -0.8674
  145RES    C8940697   7.764   7.177   7.523 -0.8681 -0.6494 -0.0620
  145RES    O9040698   7.661   7.076   7.527 -0.5139  0.5080 -0.1761
  145RES    C9140699   7.668   6.985   7.636 -0.7479 -0.0524 -0.3871
  145RES    H9240700   0.101   7.393   7.489  2.5619  0.5767 -0.5901
  145RES    H9340701   0.046   7.454   7.337 -0.4014 -0.2090 -1.0888
  145RES    H9440702   7.751   7.215   7.311 -2.1919  0.0939 -0.9594
  145RES    H9540703   0.043   7.125   7.514 -1.2267 -0.7860 -3.6463
  145RES    H9640704   7.766   7.227   7.620  1.6274  0.7625 -0.7938
  145RES    H9740705   7.589   6.911   7.624 -1.5903  1.2685 -3.7920
  145RES    H9840706   7.763   6.932   7.645 -0.9272 -0.1675  0.9334
  145RES    H9940707   7.647   7.051   7.719  1.1233  1.3035 -0.9416
  145RES   O10040708   7.642   7.358   7.410  0.5687 -0.4451  0.4614
  145RES   C10140709   7.515   7.307   7.386  0.0968  0.4773  0.1497
  145RES   C10240710   7.404   7.396   7.436  0.6641  0.1100  0.5158
  145RES   C10340711   7.391   7.525   7.353 -0.3317  0.2822 -0.7736
  145RES   O10440712   7.256   7.564   7.334  0.2184  0.3660 -0.2829
  145RES   C10540713   7.204   7.650   7.435  0.1408  0.5106 -0.0164
  145RES   H10640714   7.503   7.208   7.430  0.2088  1.0160  1.4125
  145RES   H10740715   7.510   7.292   7.278  0.2617  1.4882  0.0015
  145RES   H10840716   7.306   7.348   7.430  1.3042 -1.2326  0.5841
  145RES   H10940717   7.424   7.518   7.249 -0.6730  2.9320 -1.1014
  145RES   H11040718   7.439   7.606   7.407 -0.3666  0.1978 -0.6173
  145RES   H11140719   7.096   7.654   7.430  0.0893 -0.2288  0.3483
  145RES   H11240720   7.248   7.744   7.403  0.9659 -0.2263 -1.0808
  145RES   H11340721   7.242   7.634   7.536  2.7023 -0.2853 -1.0609
  145RES   O11440722   7.422   7.433   7.571  0.3246  0.2331 -0.3559
  145RES   C11540723   7.394   7.322   7.660  0.8326 -0.0377 -0.2085
  145RES   C11640724   7.436   7.354   7.806  0.0416 -0.7808 -0.2310
  145RES   C11740725   7.402   7.227   0.067 -0.5830 -0.3729  0.2194
  145RES   O11840726   7.411   7.267   0.205  0.3621 -0.6278 -0.1908
  145RES   C11940727   7.284   7.300   0.264  0.0715 -0.1582  0.6500
  145RES   H12040728   7.285   7.318   7.664  0.8446  0.2074  0.4061
  145RES   H12140729   7.433   7.224   7.632  0.6437  0.2330 -1.4200
  145RES   H12240730   7.394   7.448   0.026  2.2003  1.1352 -2.4529
  145RES   H12340731   7.303   7.194   0.039 -0.2402  1.1765 -2.9916
  145RES   H12440732   7.468   7.147   0.034 -1.3454 -1.2428  0.7944
  145RES   H12540733   7.301   7.356   0.356  0.2300 -0.0983  0.5849
  145RES   H12640734   7.232   7.208   0.287 -1.2089  0.6718  1.1371
  145RES   H12740735   7.237   7.369   0.193  0.0620 -1.0398 -0.2163
  145RES   O12840736   7.582   7.363   7.795  0.1189 -0.1070  0.1565
  145RES   C12940737   7.640   7.424   0.094  0.0724  0.0937 -0.3005
  145RES   C13040738   7.791   7.464   0.088  0.6996  0.1810 -0.5818
  145RES   C13140739   0.021   7.505   0.227  0.4473 -0.0064 -0.0661
  145RES   O13240740   0.150   7.555   0.223  0.3749  0.2484  0.1800
  145RES   C13340741   0.183   7.622   0.345  0.2068  0.2149 -0.6035
  145RES   H13440742   7.593   7.514   0.134 -1.2488 -1.0110  0.6639
  145RES   H13540743   7.634   7.351   0.175  1.4245  1.3110  0.9435
  145RES   H13640744   0.032   7.384   0.044  2.2862  0.1280  1.5315
  145RES   H13740745   0.036   7.413   0.283  0.8927 -0.1962 -0.4948
  145RES   H13840746   7.775   7.572   0.285 -0.3438  2.1593 -3.2578
  145RES   H13940747   0.141   7.586   0.439  1.5737 -0.5134 -0.2671
  145RES   H14040748   0.291   7.625   0.353  0.2579 -2.7859  0.4574
  145RES   H14140749   0.144   7.723   0.343  1.3097  0.6874  1.0685
  145RES   O14240750   7.804   7.592   0.022  0.1267 -0.2197  0.4298
  145RES   C14340751   7.761   7.595   7.705  0.5054 -0.3436 -0.1046
  145RES   C14440752   7.801   7.719   7.626  0.1617 -0.1413  0.1437
  145RES   C14540753   7.725   7.723   7.493 -0.1420  0.1889 -0.0820
  145RES   O14640754   7.704   0.039   7.448 -0.0404 -0.0667  0.2244
  145RES   C14740755   7.571   0.060   7.397  0.0093  0.2883 -0.1235
  145RES   H14840756   7.801   7.506   7.656  1.8739 -0.7275  1.6881
  145RES   H14940757   7.653   7.590   7.719  0.6385  2.0237  2.2903
  145RES   H15040758   7.761   7.800   7.686 -0.5440 -0.6513  0.3690
  145RES   H15140759   7.636   7.662   7.498  0.3246 -0.5670 -0.7767
  145RES   H15240760   7.787   7.666   7.423 -1.2267 -0.8888 -0.1719
  145RES   H15340761   7.550   0.012   7.302  0.5402 -0.6571  0.2245
  145RES   H15440762   7.556   0.167   7.385 -0.4212  0.2176 -0.2246
  145RES   H15540763   7.492   0.039   7.470 -1.1738  0.4122 -1.3593
  145RES   O15640764   0.129   7.739   7.624  0.1037 -0.2939 -0.0479
  145RES   C15740765   0.169   0.045   7.562  0.0064  0.6296 -0.1878
  145RES   C15840766   0.307   0.092   7.606  0.4308 -0.8184 -0.0812
  145RES   C15940767   0.425   7.810   7.602  0.3269  0.4944 -0.7250
  145RES   O16040768   0.468   7.794   7.462 -0.5836  0.3971 -0.3399
  145RES   C16140769   0.555   7.682   7.448 -0.0608  0.4811  0.1611
  145RES   H16240770   0.165   0.030   7.454  1.0903  3.3356 -0.6364
  145RES   H16340771   0.098   0.128   7.574 -0.8118 -0.0931  0.0455
  145RES   H16440772   0.332   0.174   7.539  2.4026 -0.3882  1.1607
  145RES   H16540773   0.511   0.036   7.654  2.0365 -0.4895 -2.6411
  145RES   H16640774   0.394   7.717   7.648 -0.9807  1.8276  1.1698
  145RES   H16740775   0.633   7.683   7.524  0.6909  3.5438 -0.5925
  145RES   H16840776   0.601   7.695   7.350  1.9533  1.2331  1.1631
  145RES   H16940777   0.498   7.589   7.450 -1.0429  1.0925  1.5010
  145RES   O17040778   0.298   0.163   7.734  0.4072 -0.1194 -0.4000
  145RES   C17140779   0.265   0.082   0.023  0.3801  0.4520 -0.5239
  145RES   C17240780   0.301   0.143   0.166 -0.3052 -0.0679  0.1423
  145RES   C17340781   0.222   0.284   0.188  0.0481  0.1315 -0.5843
  145RES   O17440782   0.094   0.277   0.240 -0.0093 -0.1197  0.2904
  145RES   C17540783   0.070   0.221   0.375 -0.6693 -0.2195  0.4061
  145RES   H17640784   0.324   7.807   0.019  1.4289  1.0123  1.4991
  145RES   H17740785   0.159   0.055   0.025  0.2350  1.0333  2.0470
  145RES   H17840786   0.278   0.072   0.245 -0.6514  0.1738  0.2566
  145RES   H17940787   0.282   0.351   0.249  1.2936  0.7436 -2.4472
  145RES   H18040788   0.223   0.336   0.092 -1.9814  1.1768 -0.0666
  145RES   H18140789   0.153   0.250   0.440 -0.7630  1.1689 -0.0795
  145RES   H18240790   0.059   0.113   0.368  2.0466 -0.4901 -0.4993
  145RES   H18340791   7.790   0.260   0.406 -1.1012 -0.2836 -0.8587
  145RES   O18440792   0.445   0.178   0.177  0.6799 -0.9708  0.4308
  145RES   C18540793   0.540   0.074   0.180 -0.3512 -0.0520 -0.7400
  145RES   C18640794   0.687   0.136   0.198  0.2808 -0.1410 -0.4624
  145RES   C18740795   0.695   0.224   0.318  0.5783 -0.2606  0.0026
  145RES   O18840796   0.807   0.192   0.395 -0.4045  0.6195 -0.3164
  145RES   C18940797   0.800   0.234   0.522 -0.3994  0.6218 -0.6590
  145RES   H19040798   0.539   7.814   0.103 -1.1120 -0.1923 -0.5879
  145RES   H19140799   0.526   0.023   0.275  1.7724  0.3173 -0.2080
  145RES   H19240800   0.741   0.043   0.217  0.5231  0.1335  0.2331
  145RES   H19340801   0.608   0.201   0.379  0.0292  1.9544  0.0919
  145RES   H19440802   0.688   0.330   0.295  2.4144  0.1396  1.1776
  145RES   H19540803   0.817   0.341   0.522  0.9079  0.4351 -0.6111
  145RES   H19640804   0.711   0.203   0.576  1.4495  0.1167  2.2353
  145RES   H19740805   0.882   0.178   0.569 -0.1868  0.7071 -0.9231
  145RES   O19840806   0.728   0.198   0.074  0.3741 -0.2902 -0.8082
  145RES   C19940807   0.853   0.261   0.071  0.1564 -0.5892 -0.2983
  145RES   C20040808   0.933   0.246   7.753  0.3127  0.0321  0.1404
  145RES   C20140809   0.862   0.331   7.644 -0.0230  0.5872  0.5710
  145RES   O20240810   0.920   0.325   7.516 -0.2022 -0.1433 -0.3355
  145RES   C20340811   1.030   0.409   7.511 -0.1543 -0.6485  0.5376
  145RES   H20440812   0.920   0.225   0.149 -0.2879 -1.2559 -0.2136
  145RES   H20540813   0.840   0.366   0.096 -1.4756 -0.2785 -2.2417
  145RES   H20640814   1.031   0.290   7.771  0.3828 -0.9491  2.3371
  145RES   H20740815   0.760   0.300   7.619 -0.0419  1.5774 -0.6589
  145RES   H20840816   0.851   0.433   7.679 -1.3140  0.5808  0.2226
  145RES   H20940817   1.052   0.424   7.405 -1.9217 -1.6303  0.0089
  145RES   H21040818   1.115   0.358   7.556  1.0154 -0.5347 -1.5067
  145RES   H21140819   1.016   0.507   7.558 -0.7301 -1.5041  2.2120
  145RES   O21240820   0.949   0.115   7.709 -0.2780 -0.8842 -0.5564
  145RES   C21340821   1.021   0.025   7.791 -0.1302 -0.3065  0.2953
  145RES   C21440822   1.095   7.732   7.708  1.1856  0.1804 -0.7986
  145RES   C21540823   1.130   7.617   7.803 -0.1699 -0.2797 -0.3463
  145RES   O21640824   1.147   7.500   7.729  0.6587 -0.3835 -0.4829
  145RES   C21740825   1.034   7.419   7.701  0.5564 -0.1509  0.2542
  145RES   H21840826   0.941   7.795   0.032  1.7188  0.5441  3.6893
  145RES   H21940827   1.091   0.071   0.043 -0.7589  0.9583  0.0988
  145RES   H22040828   1.045   7.687   7.622 -1.3283 -0.0547  0.7499
  145RES   H22140829   1.229   7.636   0.027  0.2578 -0.2745 -1.3603
  145RES   H22240830   1.070   7.613   0.077  1.2528  1.5422  0.7034
  145RES   H22340831   0.954   7.488   7.672  0.7717  0.7827  1.8031
  145RES   H22440832   1.000   7.375   7.795 -0.9355 -0.0370 -0.2177
  145RES   H22540833   1.048   7.347   7.621 -0.7163  0.0446 -0.1515
  145RES   O22640834   1.223   7.781   7.667 -0.3117 -0.4489  0.4554
  145RES   C22740835   1.214   0.030   7.535 -0.5028 -0.1738 -0.2398
  145RES   C22840836   1.343   0.103   7.511  0.2049  0.2475  0.6240
  145RES   C22940837   1.379   0.109   7.363  0.0787  0.1508  0.0468
  145RES   O23040838   1.296   0.199   7.289  0.3394  0.5496  0.4286
  145RES   C23140839   1.335   0.243   7.157 -0.0438  0.3525  0.6583
  145RES   H23240840   1.141   0.109   7.521 -1.6273 -1.1287  0.1536
  145RES   H23340841   1.201   7.770   7.458 -0.0544 -0.4586 -0.0304
  145RES   H23440842   1.421   0.039   7.554  2.1663  1.2182 -1.3959
  145RES   H23540843   1.373   0.008   7.323  0.0083 -0.1355  0.7692
  145RES   H23640844   1.481   0.144   7.352 -0.0761 -0.0886 -2.3370
  145RES   H23740845   1.350   0.149   7.104  0.0458  0.6531  0.1531
  145RES   H23840846   1.426   0.302   7.149 -1.2381  2.0348 -1.3736
  145RES   H23940847   1.252   0.295   7.109 -0.0123 -1.5067 -1.4792
  145RES   O24040848   1.353   0.237   7.569 -0.3734  0.2501 -0.2415
  145RES   C24140849   1.361   0.246   7.716  0.9157  0.1726  0.4700
  145RES   C24240850   1.511   0.278   7.752 -0.4415 -0.2603  0.2309
  145RES   C24340851   1.551   0.257   0.083 -0.7657  0.2706 -0.0940
  145RES   O24440852   1.636   0.356   0.131 -0.4940 -0.3910  0.0739
  145RES   C24540853   1.726   0.296   0.220 -0.1135  1.2862 -0.1611
  145RES   H24640854   1.347   0.149   7.762 -0.0219  0.1779  0.2054
  145RES   H24740855   1.285   0.316   7.752 -0.1119 -0.4299 -0.5083
  145RES   H24840856   1.523   0.386   7.742 -0.0787 -0.1845  1.4906
  145RES   H24940857   1.464   0.257   0.149 -1.3644  0.8625 -0.8698
  145RES   H25040858   1.584   0.154   0.096  3.8827  1.4582 -1.4920
  145RES   H25140859   1.683   0.263   0.315 -2.2537 -0.3686 -1.6398
  145RES   H25240860   1.806   0.364   0.250  0.1954  1.3014 -0.9944
  145RES   H25340861   1.779   0.208   0.184  0.6007  1.7465 -0.2446
  145RES   O25440862   1.604   0.197   7.677  0.4128 -0.1857 -0.6256
  145RES   C25540863   1.737   0.232   7.677 -0.4030  0.3648 -0.1551
  145RES   C25640864   1.797   0.185   7.548 -0.4065  0.0122  0.3882
  145RES   C25740865   1.783   0.033   7.516  0.2327  0.1688  0.3795
  145RES   O25840866   1.879   7.802   7.420  0.1462 -0.0263 -0.0528
  145RES   C25940867   1.858   7.674   7.368  0.0177 -0.7398 -0.1652
  145RES   H26040868   1.755   0.338   7.694  0.6540 -0.0985  1.6469
  145RES   H26140869   1.798   0.187   7.755 -0.8440  2.3155  1.3681
  145RES   H26240870   1.904   0.195   7.568  0.0908  0.7932 -2.4094
  145RES   H26340871   1.794   7.788   7.605 -2.1264  1.9335  1.9681
  145RES   H26440872   1.686   0.014   7.471 -0.7440 -1.4239  3.0807
  145RES   H26540873   1.780   7.688   7.293 -0.4672 -1.2910  0.2228
  145RES   H26640874   1.827   7.609   7.450 -1.0130  1.0357  0.8878
  145RES   H26740875   1.942   7.624   7.320  0.7229  0.1246  0.1515
  145RES   O26840876   1.751   0.269   7.436 -0.0436 -0.3013  0.7554
  145RES   C26940877   1.848   0.290   7.331 -0.1986 -0.3922  0.5671
  145RES   C27040878   1.784   0.303   7.192 -0.1694  0.6974 -0.3909
  145RES   C27140879   1.727   0.168   7.150  0.0345 -0.7394  0.4544
  145RES   O27240880   1.685   0.182   7.010 -0.3163  0.3084  0.0141
  145RES   C27340881   1.690   0.057   6.948  0.3473  0.0589  0.2348
  145RES   H27440882   1.922   0.210   7.328  1.0680  0.8125 -0.4923
  145RES   H27540883   1.900   0.382   7.358  2.1650 -0.6157 -2.9037
  145RES   H27640884   1.695   0.366   7.203 -1.3769 -0.7500 -1.6414
  145RES   H27740885   1.645   0.139   7.217 -1.0465 -3.1793 -1.8675
  145RES   H27840886   1.813   0.102   7.153  0.4729 -0.2518 -1.2205
  145RES   H27940887   1.789   0.014   6.930  0.0923 -0.6305  0.4247
  145RES   H28040888   1.645   0.050   6.849 -2.8621  2.4540  1.4539
  145RES   H28140889   1.629   7.814   7.016 -0.5774  1.6489  0.8134
  145RES   H28240890   1.856   0.343   7.120 -0.0494  0.5218 -0.3661
  146RES     O140891   5.789   5.476   3.442  0.3277  0.0069 -0.1878
  146RES     C240892   5.712   5.502   3.327  0.4483  0.1879  0.1040
  146RES     C340893   5.799   5.493   3.209  0.4319 -0.0389  0.1020
  146RES     C440894   5.712   5.446   3.089  0.4417 -0.0666 -0.6609
  146RES     O540895   5.787   5.407   2.982 -0.2999 -0.5104 -0.6384
  146RES     C640896   5.708   5.351   2.883  0.0932 -0.3812 -1.0554
  146RES     H740897   5.630   5.430   3.332  0.3254  0.3251  0.0988
  146RES     H840898   5.657   5.596   3.326  0.4834  0.2104 -1.3251
  146RES     H940899   5.875   5.415   3.219  1.2830  0.7506 -0.1224
  146RES    H1040900   5.639   5.522   3.061 -0.1630 -0.9458 -1.4921
  146RES    H1140901   5.661   5.357   3.124  1.4483 -0.2513  0.3726
  146RES    H1240902   5.676   5.251   2.915 -0.1679 -0.2603 -0.9444
  146RES    H1340903   5.612   5.396   2.859 -0.1683 -1.1792 -1.5379
  146RES    H1440904   5.763   5.341   2.789  1.8067 -0.5066 -0.0742
  146RES    H1540905   5.840   5.554   3.459 -0.6413  1.0990 -2.0929
  146RES    O1640906   5.862   5.615   3.206 -0.1330 -0.2235 -0.2204
  146RES    C1740907   5.995   5.617   3.156  0.5081 -0.2157  0.9005
  146RES    C1840908   6.058   5.755   3.197 -0.3735  0.1708  0.0609
  146RES    C1940909   6.213   5.749   3.164 -0.2092  0.8340  0.2980
  146RES    O2040910   6.279   5.852   3.227 -0.1066  0.6554  0.6309
  146RES    C2140911   6.419   5.820   3.230  0.5160 -0.1034  0.6002
  146RES    H2240912   5.989   5.611   3.048 -0.2243 -0.0192  0.9287
  146RES    H2340913   6.058   5.534   3.189  0.1380 -0.4234  1.0917
  146RES    H2440914   6.038   5.765   3.304  0.2808  2.9438 -0.0377
  146RES    H2540915   6.249   5.654   3.203 -3.0013 -0.5017 -0.2580
  146RES    H2640916   6.238   5.745   3.058  0.5461 -0.2489  0.5070
  146RES    H2740917   6.458   5.820   3.128 -0.6614 -0.7869  0.1322
  146RES    H2840918   6.448   5.728   3.281  0.9424  0.0210  0.5843
  146RES    H2940919   6.461   5.910   3.274  0.9554 -0.7582  1.5392
  146RES    O3040920   6.018   5.874   3.127  0.2514  0.6786  0.5547
  146RES    C3140921   5.999   5.983   3.210 -0.4718  0.6114 -0.4887
  146RES    C3240922   6.014   6.118   3.141 -0.4443 -0.3991 -0.1352
  146RES    C3340923   6.000   6.233   3.249 -0.1813 -0.0149 -0.1600
  146RES    O3440924   6.107   6.329   3.228  0.4815 -0.3359  0.5178
  146RES    C3540925   6.169   6.368   3.352 -0.0897  0.1980 -0.2104
  146RES    H3640926   5.905   5.971   3.263  0.2753  0.1874  0.7483
  146RES    H3740927   6.074   5.983   3.288 -1.6377 -0.3789  0.6488
  146RES    H3840928   6.114   6.122   3.098 -0.7951  0.1605 -0.9080
  146RES    H3940929   6.009   6.185   3.347 -2.1144  1.6710  0.8804
  146RES    H4040930   5.902   6.279   3.244  0.2344  1.1991  2.1965
  146RES    H4140931   6.245   6.440   3.323  0.3636 -0.6924 -1.2822
  146RES    H4240932   6.222   6.289   3.405 -1.3775 -2.1853 -2.3439
  146RES    H4340933   6.103   6.422   3.420 -1.5717 -0.2538 -1.2514
  146RES    O4440934   5.902   6.132   3.051 -0.6845  0.0332  0.1822
  146RES    C4540935   5.941   6.166   2.914  0.2890 -0.3484  0.7414
  146RES    C4640936   5.955   6.315   2.883 -0.2743  0.3009 -0.6767
  146RES    C4740937   6.023   6.333   2.745  0.9112 -0.6540 -0.1875
  146RES    O4840938   6.024   6.468   2.709 -0.5643  0.5097 -0.1939
  146RES    C4940939   6.133   6.533   2.769  0.6980 -0.0529  0.3811
  146RES    H5040940   5.869   6.118   2.848  1.6617 -1.2082 -0.1520
  146RES    H5140941   6.037   6.119   2.893  1.5251  3.2391 -2.0490
  146RES    H5240942   6.022   6.343   2.964 -0.6452 -1.3088  0.2090
  146RES    H5340943   6.115   6.276   2.740  1.0576 -0.4000 -0.3639
  146RES    H5440944   5.961   6.292   2.665  0.1679  0.2185 -0.0617
  146RES    H5540945   6.139   6.636   2.733  0.9569  0.4766  1.9062
  146RES    H5640946   6.227   6.497   2.729  0.8172  0.3471  0.2960
  146RES    H5740947   6.137   6.540   2.878  0.1824 -0.7649  0.4546
  146RES    O5840948   5.823   6.366   2.873 -0.8348 -0.3971 -0.3400
  146RES    C5940949   5.808   6.474   2.961  0.1247  0.8708 -0.3665
  146RES    C6040950   5.673   6.543   2.934 -0.0282  0.3748  0.4431
  146RES    C6140951   5.645   6.676   3.008  0.3198  0.1689  1.0290
  146RES    O6240952   5.520   6.720   2.959 -0.0275 -0.1102  0.3317
  146RES    C6340953   5.483   6.840   3.025 -0.0320  0.1706 -0.0874
  146RES    H6440954   5.880   6.554   2.944 -0.0022  0.5298 -2.6798
  146RES    H6540955   5.822   6.431   3.060 -1.8002  0.0537 -0.4298
  146RES    H6640956   5.679   6.561   2.827 -0.5294 -2.8086 -0.1487
  146RES    H6740957   5.653   6.665   3.116  0.9032  0.0623  0.9795
  146RES    H6840958   5.727   6.744   2.987 -1.2561  1.5919 -0.6405
  146RES    H6940959   5.390   6.878   2.983  0.5964 -0.0649 -1.7719
  146RES    H7040960   5.553   6.922   3.008 -0.8701  1.4189  2.2885
  146RES    H7140961   5.470   6.821   3.131 -0.1189  0.9131  0.0340
  146RES    O7240962   5.555   6.466   2.973 -0.5518 -0.4735  0.2728
  146RES    C7340963   5.483   6.399   2.866  0.4145  0.9510  0.1256
  146RES    C7440964   5.349   6.348   2.922  0.6202  0.4745  0.1830
  146RES    C7540965   5.319   6.208   2.865 -0.4964 -0.3848 -0.4323
  146RES    O7640966   5.210   6.152   2.941 -0.6284 -0.2954 -0.0420
  146RES    C7740967   5.090   6.156   2.873  0.2477  0.2637  0.5147
  146RES    H7840968   5.459   6.454   2.775  0.9195 -0.6585 -0.9931
  146RES    H7940969   5.540   6.311   2.836 -1.5294 -0.4682  0.5310
  146RES    H8040970   5.363   6.353   3.030 -0.5585  4.4372  0.2325
  146RES    H8140971   5.404   6.142   2.881 -1.3966 -1.6259 -0.6911
  146RES    H8240972   5.299   6.221   2.759  0.5390  0.2983 -0.5547
  146RES    H8340973   5.030   6.096   2.942 -0.2743  1.1578  0.8468
  146RES    H8440974   5.089   6.108   2.775  1.8494  0.5409  0.3618
  146RES    H8540975   5.055   6.259   2.861 -0.4822 -0.1306 -0.9800
  146RES    O8640976   5.238   6.424   2.884  0.6180  0.3058  0.9208
  146RES    C8740977   5.232   6.555   2.941  0.1178 -1.2390  0.3419
  146RES    C8840978   5.099   6.617   2.900  0.2244 -1.0566 -0.1471
  146RES    C8940979   5.051   6.730   3.003 -0.1878 -0.7495  0.0632
  146RES    O9040980   5.142   6.833   3.019  0.2062 -0.4044  0.0761
  146RES    C9140981   5.111   6.924   3.124  0.2613  0.6746 -0.4179
  146RES    H9240982   5.234   6.545   3.049 -1.4847 -1.4661  0.3641
  146RES    H9340983   5.315   6.617   2.906 -0.6414 -0.9167 -0.9406
  146RES    H9440984   5.017   6.546   2.911  0.2496 -1.0207  0.2953
  146RES    H9540985   4.955   6.775   2.977  1.1531  3.0516  1.3515
  146RES    H9640986   5.041   6.683   3.101 -1.0205 -0.2040  0.2461
  146RES    H9740987   5.102   6.882   3.224  3.1217  1.3552  0.1570
  146RES    H9840988   5.191   6.997   3.127  0.1675  0.7368  1.4872
  146RES    H9940989   5.018   6.978   3.103 -0.0362  0.1275 -0.5194
  146RES   O10040990   5.100   6.687   2.774 -0.3728 -0.4802  0.2349
  146RES   C10140991   5.110   6.605   2.656 -0.2854  0.2287 -0.0440
  146RES   C10240992   5.230   6.667   2.584 -0.3120  0.5182 -0.5719
  146RES   C10340993   5.196   6.796   2.505  0.6469  0.0037 -0.1756
  146RES   O10440994   5.319   6.844   2.443 -0.1008  0.8571  0.0321
  146RES   C10540995   5.418   6.900   2.535  0.5074  0.1816 -0.4301
  146RES   H10640996   5.024   6.618   2.590 -0.5865  0.1809  0.3338
  146RES   H10740997   5.129   6.500   2.677  1.2484  0.4302 -0.4040
  146RES   H10840998   5.310   6.682   2.657  0.8108  2.8811 -2.2053
  146RES   H10940999   5.159   6.882   2.561  1.0209  0.6691 -0.9449
  146RES   H11041000   5.126   6.776   2.424 -0.6141  2.0915  0.3771
  146RES   H11141001   5.386   7.000   2.564 -0.0380 -0.1174  0.0088
  146RES   H11241002   5.513   6.909   2.482 -0.1011  1.1445 -1.3579
  146RES   H11341003   5.450   6.835   2.617  2.3520  1.1854 -0.3212
  146RES   O11441004   5.265   6.557   2.503 -0.0861  0.0459 -0.3064
  146RES   C11541005   5.389   6.563   2.444  0.3942  0.0242  0.1895
  146RES   C11641006   5.420   6.434   2.376  0.5328 -0.2047 -0.6837
  146RES   C11741007   5.402   6.316   2.468 -0.1808 -0.5781 -0.5869
  146RES   O11841008   5.486   6.204   2.439 -0.2552  0.0844 -0.1417
  146RES   C11941009   5.630   6.217   2.457 -0.5908 -0.5134  0.1110
  146RES   H12041010   5.416   6.635   2.367  0.8837 -1.6232 -1.2059
  146RES   H12141011   5.470   6.580   2.515 -0.5275  1.8113  0.8362
  146RES   H12241012   5.524   6.436   2.341  0.8140 -2.8841 -0.0998
  146RES   H12341013   5.435   6.350   2.566 -1.7494 -0.5759 -0.0396
  146RES   H12441014   5.298   6.286   2.479  0.1067 -1.0827  0.9323
  146RES   H12541015   5.684   6.126   2.436  0.7744 -0.1578  1.9220
  146RES   H12641016   5.649   6.265   2.553  0.5149 -0.2086 -0.2495
  146RES   H12741017   5.661   6.292   2.384 -2.2341  0.3887  0.2961
  146RES   O12841018   5.333   6.410   2.262  0.7100 -0.0214  0.1306
  146RES   C12941019   5.379   6.309   2.171  0.2946 -0.1885  0.2048
  146RES   C13041020   5.306   6.301   2.033  0.2511 -0.2663  0.3572
  146RES   C13141021   5.349   6.169   1.969  0.7881 -0.0194  0.0812
  146RES   O13241022   5.274   6.152   1.847 -0.4735  0.2295  0.4110
  146RES   C13341023   5.315   6.030   1.794 -0.4057  0.5586  1.0838
  146RES   H13441024   5.486   6.320   2.154 -0.1291  2.0901 -1.1083
  146RES   H13541025   5.368   6.215   2.226 -0.3415 -0.1279  0.1896
  146RES   H13641026   5.198   6.299   2.051 -0.2050  0.7726 -2.0421
  146RES   H13741027   5.314   6.092   2.039 -0.8240 -0.5675 -1.2912
  146RES   H13841028   5.455   6.169   1.945  0.1332 -0.0419 -2.9535
  146RES   H13941029   5.423   6.015   1.799 -0.6665 -1.2931  1.6291
  146RES   H14041030   5.259   5.965   1.862 -3.4856  0.6986 -1.2429
  146RES   H14141031   5.274   6.009   1.696 -0.7935  3.7543  0.5335
  146RES   O14241032   5.344   6.411   1.951  0.1677  0.2203  0.5528
  146RES   C14341033   5.253   6.516   1.971 -0.3469  0.0997 -0.3680
  146RES   C14441034   5.310   6.629   1.894 -0.4009 -0.8990 -0.3524
  146RES   C14541035   5.238   6.757   1.933 -0.6365 -0.6882  0.4011
  146RES   O14641036   5.316   6.863   1.881  0.4210  0.4441  0.1728
  146RES   C14741037   5.260   6.993   1.912 -0.8225  0.5060 -0.6891
  146RES   H14841038   5.151   6.494   1.940 -1.2182  0.1973  2.3594
  146RES   H14941039   5.245   6.541   2.077 -3.0116 -2.8422  0.2062
  146RES   H15041040   5.414   6.644   1.921 -0.6906 -1.2111  0.9845
  146RES   H15141041   5.259   6.772   2.039  2.4885 -0.3167 -0.2286
  146RES   H15241042   5.130   6.765   1.916 -0.4301  3.4928  0.6367
  146RES   H15341043   5.263   7.024   2.016 -1.0594  0.0165 -0.5325
  146RES   H15441044   5.154   7.000   1.888 -0.7404  0.8042 -0.9681
  146RES   H15541045   5.313   7.073   1.861  0.3130  0.3045  0.1646
  146RES   O15641046   5.270   6.604   1.761  0.1117  0.2257  0.2796
  146RES   C15741047   5.384   6.613   1.677  0.2278 -0.0627  0.0205
  146RES   C15841048   5.338   6.596   1.536 -0.0699  0.0276 -0.1696
  146RES   C15941049   5.452   6.562   1.436 -0.1907  0.2951  0.2527
  146RES   O16041050   5.414   6.572   1.297  0.1403 -0.2269 -0.1694
  146RES   C16141051   5.530   6.538   1.213  0.0854  0.5283 -0.1382
  146RES   H16241052   5.442   6.706   1.674 -0.2743  0.2723  0.5559
  146RES   H16341053   5.447   6.526   1.695 -0.8098 -0.5517  1.3698
  146RES   H16441054   5.251   6.530   1.532  0.4690 -0.5488 -2.6834
  146RES   H16541055   5.543   6.622   1.433  1.1599 -1.7351 -0.5228
  146RES   H16641056   5.474   6.458   1.459 -0.6580 -0.1950 -1.4665
  146RES   H16741057   5.482   6.533   1.115 -0.4170  0.3298  0.1131
  146RES   H16841058   5.573   6.442   1.240  0.6290  0.6656 -0.5151
  146RES   H16941059   5.607   6.614   1.204 -0.1545  0.4825 -3.1279
  146RES   O17041060   5.276   6.726   1.502  0.0853 -0.6441 -0.2553
  146RES   C17141061   5.154   6.767   1.563  0.2659  0.2206  0.9479
  146RES   C17241062   5.089   6.867   1.464  0.2325 -0.1351 -0.2597
  146RES   C17341063   4.987   6.957   1.538 -0.6163  0.3596  0.3310
  146RES   O17441064   5.067   7.062   1.590  0.1319 -0.4569 -0.2211
  146RES   C17541065   4.989   7.158   1.659 -0.1858 -0.2832  0.0353
  146RES   H17641066   5.184   6.815   1.656  1.6574  3.0262 -0.8923
  146RES   H17741067   5.083   6.690   1.596 -2.8537  2.9375  0.7865
  146RES   H17841068   5.170   6.930   1.427 -0.8824  1.8509  0.6636
  146RES   H17941069   4.921   7.003   1.464 -0.5591 -0.4839 -0.2507
  146RES   H18041070   4.921   6.916   1.614 -1.1617  0.3547 -0.1391
  146RES   H18141071   5.037   7.244   1.704 -0.9080  1.6553 -2.7464
  146RES   H18241072   4.938   7.104   1.739  0.3844 -0.4997  0.2526
  146RES   H18341073   4.906   7.194   1.597  1.0060  1.3197 -0.6623
  146RES   O18441074   5.028   6.809   1.346  0.3267  0.1535 -0.6129
  146RES   C18541075   5.109   6.747   1.243  0.4769 -0.0676  0.0247
  146RES   C18641076   5.012   6.673   1.161 -0.2073  0.5811 -0.7419
  146RES   C18741077   5.083   6.565   1.075  0.5390 -0.1714 -0.3840
  146RES   O18841078   4.996   6.456   1.042 -0.0472 -0.3707 -0.1940
  146RES   C18941079   4.896   6.497   0.948  0.1831 -0.0344 -0.3732
  146RES   H19041080   5.174   6.678   1.295 -2.3132 -2.6171  0.2783
  146RES   H19141081   5.154   6.822   1.178 -1.2040  0.7251 -0.2768
  146RES   H19241082   4.943   6.630   1.234 -0.3585  0.4625 -0.9550
  146RES   H19341083   5.163   6.522   1.133 -1.0356 -0.5288  1.5620
  146RES   H19441084   5.144   6.620   1.003 -0.2322 -0.3951 -1.2146
  146RES   H19541085   4.836   6.409   0.921 -1.9556  1.0492  0.6934
  146RES   H19641086   4.820   6.561   0.993 -1.4937 -1.8653 -0.5017
  146RES   H19741087   4.930   6.548   0.858 -1.3552  0.3388 -0.7691
  146RES   O19841088   4.942   6.762   1.070  0.2438  0.0466  0.3014
  146RES   C19941089   4.841   6.841   1.128 -0.3209 -0.8716  0.2252
  146RES   C20041090   4.758   6.891   1.006 -0.0844  0.3910  0.5225
  146RES   C20141091   4.627   6.966   1.045 -0.1046  0.0625 -0.3933
  146RES   O20241092   4.592   7.065   0.940  0.3140 -0.0605  0.2348
  146RES   C20341093   4.458   7.108   0.926 -0.3182  0.1542 -0.2591
  146RES   H20441094   4.874   6.923   1.192 -1.2068 -0.4668  0.1702
  146RES   H20541095   4.783   6.779   1.196  0.2705 -0.4631  1.1188
  146RES   H20641096   4.827   6.955   0.952  0.9938  0.1295  1.5716
  146RES   H20741097   4.545   6.894   1.046 -0.0892  0.0466 -0.2411
  146RES   H20841098   4.633   7.011   1.144  0.3453 -1.1318  0.1233
  146RES   H20941099   4.452   7.203   0.873  0.8035  1.1765  1.4028
  146RES   H21041100   4.414   7.119   1.025 -1.8654 -0.6010 -0.8499
  146RES   H21141101   4.396   7.029   0.884  0.0424  1.4699 -3.3399
  146RES   O21241102   4.710   6.792   0.923  0.0256 -0.5967 -0.0103
  146RES   C21341103   4.667   6.833   0.789  0.8689 -0.1696 -0.3778
  146RES   C21441104   4.628   6.700   0.722  0.0022  0.0613  0.3792
  146RES   C21541105   4.579   6.705   0.581  0.2280 -0.3876 -0.2586
  146RES   O21641106   4.569   6.579   0.508  0.0597 -0.1407  0.5964
  146RES   C21741107   4.526   6.591   0.366  0.1842  0.2320  0.0566
  146RES   H21841108   4.757   6.877   0.745  1.6875 -1.3539  0.1036
  146RES   H21941109   4.578   6.896   0.792  0.4431 -0.7678 -0.4245
  146RES   H22041110   4.712   6.632   0.709 -1.5388 -1.4861 -1.9513
  146RES   H22141111   4.483   6.757   0.582  2.0541  3.1781 -1.3913
  146RES   H22241112   4.643   6.777   0.529 -0.7940  0.6921 -0.0561
  146RES   H22341113   4.513   6.496   0.314 -0.6219  0.4114 -0.0756
  146RES   H22441114   4.598   6.649   0.308  0.3650  1.1352  1.1553
  146RES   H22541115   4.432   6.646   0.366  2.0750  3.5902 -1.4337
  146RES   O22641116   4.516   6.647   0.790 -0.3574 -0.0384 -0.6277
  146RES   C22741117   4.517   6.502   0.793  0.0415  0.4521  0.2257
  146RES   C22841118   4.392   6.432   0.850  0.2571 -0.6020 -0.3851
  146RES   C22941119   4.279   6.423   0.746  0.0394  0.2413  0.4717
  146RES   O23041120   4.287   6.304   0.664  0.0560  0.0626  0.5995
  146RES   C23141121   4.231   6.319   0.536  0.3216 -0.2761  0.6658
  146RES   H23241122   4.598   6.470   0.857 -2.0403 -0.5427  2.4114
  146RES   H23341123   4.554   6.460   0.700 -1.6361  0.5262 -0.4994
  146RES   H23441124   4.358   6.484   0.939  2.3831 -1.0528  0.7231
  146RES   H23541125   4.281   6.511   0.681 -1.7958 -0.5443 -0.6974
  146RES   H23641126   4.183   6.421   0.798 -1.3771 -0.2150 -2.0581
  146RES   H23741127   4.281   6.396   0.477 -2.0906  0.1176 -0.9479
  146RES   H23841128   4.125   6.344   0.543  0.2133 -0.6946  0.5425
  146RES   H23941129   4.230   6.223   0.484 -0.0614 -0.4654  1.0186
  146RES   O24041130   4.425   6.300   0.905 -0.5258  0.3198  0.0710
  146RES   C24141131   4.322   6.225   0.962  0.2988 -0.1125  0.3843
  146RES   C24241132   4.370   6.089   1.017 -0.2208 -0.0530  0.3533
  146RES   C24341133   4.462   6.028   0.909  0.5539  0.2518  0.5906
  146RES   O24441134   4.513   5.906   0.950 -0.1562  0.0663  0.5482
  146RES   C24541135   4.589   5.840   0.852  0.2809  0.1427  0.1602
  146RES   H24641136   4.256   6.195   0.880  0.7745 -3.3116  1.0930
  146RES   H24741137   4.288   6.289   1.043 -0.2972  1.0372 -0.7575
  146RES   H24841138   4.283   6.026   1.034  0.6738 -2.0112 -1.9955
  146RES   H24941139   4.407   6.010   0.817  0.4323 -4.6751  1.4775
  146RES   H25041140   4.546   6.096   0.905  1.1298 -0.3549  2.0084
  146RES   H25141141   4.528   5.822   0.764  3.5119  2.7524 -2.7568
  146RES   H25241142   4.625   5.747   0.896  1.2383  1.2910  1.8449
  146RES   H25341143   4.659   5.909   0.805  1.1303 -1.2848 -0.7326
  146RES   O25441144   4.442   6.126   1.130 -0.3751  0.4565  0.0050
  146RES   C25541145   4.448   6.020   1.234  0.7578 -0.0776 -0.0486
  146RES   C25641146   4.537   6.060   1.349 -0.2612 -0.8519 -0.1012
  146RES   C25741147   4.502   5.992   1.478 -0.1103  0.3382 -0.0563
  146RES   O25841148   4.571   6.057   1.585  0.0837  0.0292 -0.6730
  146RES   C25941149   4.526   6.018   1.715 -1.0533  0.5063 -0.5799
  146RES   H26041150   4.347   5.999   1.269  0.0970  0.1122 -1.7803
  146RES   H26141151   4.485   5.929   1.188 -0.5578  0.5959 -2.5446
  146RES   H26241152   4.527   6.168   1.361 -0.9606 -1.0609  1.2942
  146RES   H26341153   4.395   6.005   1.496 -0.6414 -2.6139 -0.8369
  146RES   H26441154   4.523   5.885   1.474 -2.9042 -0.2085 -0.9327
  146RES   H26541155   4.614   6.045   1.773 -0.7640 -1.6162  0.0078
  146RES   H26641156   4.514   5.911   1.735  2.4388  0.3376  1.0550
  146RES   H26741157   4.445   6.075   1.760 -0.4297 -1.7485  3.6514
  146RES   O26841158   4.667   6.017   1.326  0.8158  0.1447  0.3792
  146RES   C26941159   4.740   6.105   1.246 -0.5240  0.0995 -0.2957
  146RES   C27041160   4.791   6.021   1.127 -0.0557 -0.0385 -0.0567
  146RES   C27141161   4.881   6.091   1.027 -0.5352 -0.3086 -0.2610
  146RES   O27241162   4.897   5.995   0.920  0.0878 -0.3666 -0.0416
  146RES   C27341163   5.004   6.031   0.836 -0.6292  0.7548 -0.0993
  146RES   H27441164   4.817   6.167   1.293 -1.1530 -0.4435  1.4927
  146RES   H27541165   4.673   6.182   1.209 -1.1950  0.4439  1.5505
  146RES   H27641166   4.847   5.932   1.157  0.1349 -0.7096 -2.2640
  146RES   H27741167   4.975   6.107   1.080 -0.4528  0.8413 -0.7445
  146RES   H27841168   4.833   6.183   0.997 -0.3395 -0.3809 -0.7927
  146RES   H27941169   5.101   6.041   0.883 -1.3259  2.3747  1.0528
  146RES   H28041170   4.974   6.122   0.783  2.1897  2.6157  1.3837
  146RES   H28141171   5.018   5.946   0.770  0.9095  0.8231  0.1334
  146RES   H28241172   4.701   5.983   1.078  0.1495  1.0810 -1.3294
  147RES     O141173   2.211   2.117   1.968 -0.0823 -0.3735  0.9550
  147RES     C241174   2.267   1.991   1.971  0.3360 -0.0713 -0.0703
  147RES     C341175   2.413   2.012   2.002 -0.4079  0.1582  0.2415
  147RES     C441176   2.487   1.880   1.969  0.1111 -0.6419 -0.4138
  147RES     O541177   2.620   1.883   2.029 -0.1743  0.0853  0.3739
  147RES     C641178   2.694   1.763   2.015  0.5986 -0.1744  0.2503
  147RES     H741179   2.232   1.923   2.049 -3.1530  0.5766 -0.9458
  147RES     H841180   2.254   1.935   1.878 -0.1053 -1.3794  0.7598
  147RES     H941181   2.427   2.024   2.109  0.6034  0.0633  0.1300
  147RES    H1041182   2.490   1.874   1.860 -0.4641 -2.5791 -0.3409
  147RES    H1141183   2.426   1.799   2.010 -1.1064 -0.7654 -2.3562
  147RES    H1241184   2.790   1.782   2.061  0.6136  3.3449 -1.0938
  147RES    H1341185   2.644   1.673   2.051  1.0038  0.0031  1.2581
  147RES    H1441186   2.711   1.748   1.908 -0.7016  4.0195 -0.6291
  147RES    H1541187   2.292   2.163   1.954 -0.5868  0.0154 -0.8270
  147RES    O1641188   2.453   2.113   1.912  0.1698  0.0290  0.1957
  147RES    C1741189   2.590   2.158   1.919  0.2440 -0.4512 -0.5247
  147RES    C1841190   2.609   2.289   1.839 -0.1282  0.6772  0.4153
  147RES    C1941191   2.575   2.253   1.694 -0.3980 -0.0224  0.8514
  147RES    O2041192   2.616   2.350   1.597  0.6919 -0.6509  0.7739
  147RES    C2141193   2.584   2.326   1.464  1.0908  0.6780  1.2216
  147RES    H2241194   2.645   2.075   1.874  0.7197 -0.8569  0.7663
  147RES    H2341195   2.620   2.171   2.023 -1.5661  2.7049 -0.3265
  147RES    H2441196   2.711   2.328   1.842 -0.4125  1.3319  1.9247
  147RES    H2541197   2.629   2.161   1.673 -0.0727  0.2047  0.6713
  147RES    H2641198   2.469   2.235   1.675 -0.8858  3.4938 -0.2087
  147RES    H2741199   2.641   2.255   1.404 -0.0599 -0.0437  0.9517
  147RES    H2841200   2.590   2.424   1.416  1.3500 -0.6345 -1.5524
  147RES    H2941201   2.477   2.306   1.455  1.4669 -0.5268 -1.1968
  147RES    O3041202   2.523   2.388   1.880 -0.4668 -0.2332 -0.2653
  147RES    C3141203   2.582   2.495   1.953  0.2809  0.2840  0.0892
  147RES    C3241204   2.467   2.580   2.005  0.7604 -0.7522 -0.2448
  147RES    C3341205   2.497   2.737   1.990 -0.1252  0.0946  0.3469
  147RES    O3441206   2.619   2.770   2.064  0.1623 -0.2072 -0.2407
  147RES    C3541207   2.678   2.889   2.010 -0.0418  0.0484  0.0765
  147RES    H3641208   2.640   2.459   2.038 -0.8246  0.8508  1.0910
  147RES    H3741209   2.659   2.540   1.890  1.8586 -0.8315  1.1773
  147RES    H3841210   2.378   2.558   1.946  0.2939  1.1443 -0.2913
  147RES    H3941211   2.423   2.816   1.995 -0.4484 -0.1019 -0.9785
  147RES    H4041212   2.522   2.742   1.884  1.0840  1.3830  0.6725
  147RES    H4141213   2.701   2.873   1.905 -0.2507 -0.1569  0.0640
  147RES    H4241214   2.764   2.919   2.071 -0.5128  1.6080 -0.0069
  147RES    H4341215   2.604   2.969   2.019  0.2405  0.3254 -0.0399
  147RES    O4441216   2.431   2.557   2.141 -0.1534  0.3631  0.3490
  147RES    C4541217   2.384   2.424   2.170 -0.1997 -0.0676  0.1264
  147RES    C4641218   2.279   2.419   2.289 -0.2626  0.0715 -0.6629
  147RES    C4741219   2.251   2.273   2.323 -0.3579  0.3450  0.4501
  147RES    O4841220   2.150   2.271   2.419  0.3416 -0.0440  0.2895
  147RES    C4941221   2.113   2.149   2.474 -0.1054 -0.4362 -0.5900
  147RES    H5041222   2.468   2.356   2.186 -0.6585 -0.9316 -1.0458
  147RES    H5141223   2.328   2.381   2.086 -1.7965  0.3785  0.9443
  147RES    H5241224   2.188   2.471   2.262 -0.4648 -0.3353 -0.7660
  147RES    H5341225   2.208   2.233   2.230 -0.4608 -0.7913  0.9791
  147RES    H5441226   2.338   2.211   2.345 -1.2430 -0.6055  1.3561
  147RES    H5541227   2.196   2.101   2.525  2.1010  1.0404 -2.6982
  147RES    H5641228   2.081   2.081   2.394  1.3874 -0.3484 -1.2765
  147RES    H5741229   2.036   2.172   2.547 -2.3444 -0.6081 -2.8207
  147RES    O5841230   2.343   2.480   2.402  0.1535 -0.1040  0.2276
  147RES    C5941231   2.323   2.627   2.422  1.2580  0.2920 -0.3009
  147RES    C6041232   2.408   2.690   2.534 -0.5543  0.1790  0.1492
  147RES    C6141233   2.376   2.843   2.545 -0.2875  0.1663 -0.0329
  147RES    O6241234   2.367   2.910   2.419 -0.2840  0.5654  0.5753
  147RES    C6341235   2.486   2.913   2.347 -0.1664  0.2611  0.0601
  147RES    H6441236   2.218   2.648   2.444  1.0833 -0.7455 -0.1015
  147RES    H6541237   2.336   2.674   2.324 -0.3655 -1.5135 -1.4314
  147RES    H6641238   2.378   2.644   2.629 -1.5469 -1.5999 -0.9849
  147RES    H6741239   2.297   2.872   2.614  0.9342 -1.4819  2.1231
  147RES    H6841240   2.464   2.884   2.594  0.2230  2.2996 -2.6165
  147RES    H6941241   2.486   2.969   2.254  1.7383  1.1503  0.5635
  147RES    H7041242   2.523   2.818   2.308  2.4767  0.6038  1.5357
  147RES    H7141243   2.571   2.942   2.411  0.0613  0.5979 -0.3896
  147RES    O7241244   2.542   2.673   2.490  0.1255 -0.7809 -0.5470
  147RES    C7341245   2.593   2.547   2.527  0.1320 -0.2013 -0.4541
  147RES    C7441246   2.661   2.472   2.408  0.7283 -0.2761  0.3463
  147RES    C7541247   2.660   2.323   2.425  0.1067  0.0865  0.0486
  147RES    O7641248   2.671   2.248   2.299  0.8098  0.3888 -0.5564
  147RES    C7741249   2.679   2.102   2.338 -0.4497 -0.4658  0.0250
  147RES    H7841250   2.660   2.564   2.611  1.1978 -1.8033 -0.9601
  147RES    H7941251   2.519   2.483   2.574  0.5039 -0.9698 -0.8969
  147RES    H8041252   2.591   2.506   2.332  2.5345 -2.1128 -2.2429
  147RES    H8141253   2.561   2.294   2.459  0.4298  0.0489  0.9533
  147RES    H8241254   2.725   2.298   2.509 -0.1683  0.4538  0.3723
  147RES    H8341255   2.747   2.088   2.422 -0.5127 -0.5045  0.0703
  147RES    H8441256   2.722   2.039   2.261  0.0056  0.7316 -0.7108
  147RES    H8541257   2.584   2.071   2.382 -1.7618 -0.0967 -2.4251
  147RES    O8641258   2.797   2.517   2.392  0.3366  0.0429 -0.2910
  147RES    C8741259   2.807   2.641   2.321 -0.0283 -0.5061 -0.6391
  147RES    C8841260   2.959   2.677   2.281 -0.4422 -0.1230 -0.3694
  147RES    C8941261   3.054   2.738   2.382 -0.3331 -0.2025  0.5462
  147RES    O9041262   3.174   2.796   2.336 -0.4678  0.7615  0.2181
  147RES    C9141263   3.149   2.926   2.277  0.7051  0.3353  0.3809
  147RES    H9241264   2.756   2.624   2.226  0.1761 -1.1055 -0.6430
  147RES    H9341265   2.759   2.729   2.363 -0.8469 -1.4707  0.4613
  147RES    H9441266   2.954   2.750   2.201 -1.6269  0.7197  0.4444
  147RES    H9541267   3.006   2.800   2.458  1.8945  1.2910  0.7734
  147RES    H9641268   3.075   2.648   2.441  3.0442  0.5969  0.6357
  147RES    H9741269   3.112   2.995   2.352 -2.3267  0.0367 -0.7731
  147RES    H9841270   3.235   2.969   2.226 -0.0747 -0.6300 -1.8039
  147RES    H9941271   3.071   2.938   2.202  1.4339 -0.0011 -0.4438
  147RES   O10041272   3.021   2.557   2.233  0.3751  0.3295  0.0036
  147RES   C10141273   2.980   2.522   2.097 -0.4571  0.2380  0.9011
  147RES   C10241274   3.079   2.416   2.057 -0.4629 -1.0113  0.2929
  147RES   C10341275   3.089   2.405   1.904  0.2040 -1.2959 -0.4557
  147RES   O10441276   3.131   2.285   1.850  0.1634  0.6475 -0.2156
  147RES   C10541277   3.268   2.264   1.867 -0.1154  0.2006  0.2750
  147RES   H10641278   2.990   2.609   2.033 -0.7385  2.2920  3.5358
  147RES   H10741279   2.881   2.478   2.109 -0.2115 -0.6318 -0.1762
  147RES   H10841280   3.175   2.421   2.107 -0.4895 -0.7575  0.3192
  147RES   H10941281   3.152   2.485   1.867  1.0392 -0.7590  2.0288
  147RES   H11041282   2.992   2.429   1.861  0.1588  0.3701  0.5100
  147RES   H11141283   3.325   2.354   1.845 -2.5101  1.3918 -1.2757
  147RES   H11241284   3.295   2.192   1.789 -0.3484  1.5864 -1.1230
  147RES   H11341285   3.288   2.228   1.968  1.3181  1.3480  0.4172
  147RES   O11441286   3.021   2.290   2.087  0.0879  0.2901  0.4268
  147RES   C11541287   3.025   2.248   2.221 -0.0371 -0.2532 -1.3321
  147RES   C11641288   3.126   2.134   2.245  0.8554  0.4542  0.1533
  147RES   C11741289   3.096   2.007   2.155  0.5268 -0.9223  0.3961
  147RES   O11841290   3.128   1.894   2.226 -0.0009  0.3624  0.0653
  147RES   C11941291   3.095   1.776   2.160 -0.2756  0.4915  0.3303
  147RES   H12041292   3.052   2.331   2.286  0.8871 -2.8416  1.6931
  147RES   H12141293   2.922   2.226   2.251 -0.5448  0.5113 -2.4794
  147RES   H12241294   3.102   2.109   2.348 -0.5785 -1.9340 -0.7282
  147RES   H12341295   2.987   1.998   2.149  0.6177 -3.1164  1.4847
  147RES   H12441296   3.158   2.009   2.066 -0.0691  0.6427 -0.0024
  147RES   H12541297   3.120   1.780   2.054 -0.2861  2.1128  0.3822
  147RES   H12641298   2.999   1.732   2.187 -0.6282  1.4076  0.5728
  147RES   H12741299   3.169   1.708   2.203  1.1319 -0.2568 -3.0651
  147RES   O12841300   3.256   2.195   2.225  0.4246  0.6636 -0.2239
  147RES   C12941301   3.348   2.111   2.290 -0.2974  0.2136  0.1569
  147RES   C13041302   3.351   2.118   2.446 -0.0367 -0.2431 -0.1159
  147RES   C13141303   3.488   2.110   2.517 -0.1874  0.4009 -0.6364
  147RES   O13241304   3.480   2.153   2.652  0.1102 -0.3981  0.1235
  147RES   C13341305   3.605   2.198   2.713  0.9118 -0.1137  0.4534
  147RES   H13441306   3.357   2.007   2.259  2.3623  1.1682 -2.6123
  147RES   H13541307   3.451   2.132   2.259  0.1113 -2.2599 -0.3090
  147RES   H13641308   3.315   2.218   2.469 -0.1021 -0.4159  0.5220
  147RES   H13741309   3.559   2.167   2.457  0.8043 -1.3374 -1.1597
  147RES   H13841310   3.532   2.010   2.517  1.6527  1.2003  0.1094
  147RES   H13941311   3.677   2.116   2.711  0.6344 -0.3461 -1.2656
  147RES   H14041312   3.641   2.291   2.669 -0.5082  1.2143  2.0441
  147RES   H14141313   3.572   2.222   2.814  0.7172  2.1468 -0.1178
  147RES   O14241314   3.262   2.011   2.486 -0.2893 -0.1595  0.1357
  147RES   C14341315   3.203   2.051   2.612 -0.4321 -0.3999 -0.9549
  147RES   C14441316   3.074   1.974   2.626 -0.3419 -0.4225 -0.2334
  147RES   C14541317   2.974   2.052   2.726 -0.1594 -0.2021 -0.3721
  147RES   O14641318   2.839   2.070   2.666 -0.7679  0.6226  0.1162
  147RES   C14741319   2.780   1.945   2.659  0.1125  0.5395 -0.6670
  147RES   H14841320   3.264   2.024   2.698 -2.0555  1.2244  0.7464
  147RES   H14941321   3.179   2.157   2.619  2.0793  0.1535 -0.0393
  147RES   H15041322   3.033   1.968   2.526 -0.9282  0.3488 -0.0420
  147RES   H15141323   3.008   2.152   2.755 -0.4150 -0.0892 -0.4592
  147RES   H15241324   2.968   1.995   2.819  3.1287  0.8052  0.5170
  147RES   H15341325   2.823   1.885   2.578 -3.9137  0.8928 -3.2222
  147RES   H15441326   2.680   1.965   2.621 -1.1585 -2.6123  0.7898
  147RES   H15541327   2.775   1.896   2.756  0.3337  1.0454 -0.4014
  147RES   O15641328   3.091   1.845   2.681  1.0469 -0.6655  0.3621
  147RES   C15741329   3.145   1.748   2.586 -0.8088  0.7008 -0.0043
  147RES   C15841330   3.300   1.716   2.605 -0.2483  0.2084 -0.6407
  147RES   C15941331   3.361   1.630   2.494  0.0016 -0.0939 -0.8870
  147RES   O16041332   3.496   1.624   2.520 -0.1782 -0.2698  0.3800
  147RES   C16141333   3.568   1.551   2.421  0.2918 -0.6547 -0.5723
  147RES   H16241334   3.097   1.654   2.612  0.5411  1.3093  5.1151
  147RES   H16341335   3.118   1.756   2.480  0.6679 -1.9831 -0.6416
  147RES   H16441336   3.357   1.809   2.603  0.0696  0.0087 -0.9431
  147RES   H16541337   3.314   1.533   2.504  0.3591 -0.3223 -1.4039
  147RES   H16641338   3.343   1.677   2.397  0.1399  1.9384  0.0314
  147RES   H16741339   3.575   1.601   2.324  1.6358  1.0686  0.3787
  147RES   H16841340   3.525   1.453   2.401 -1.2823  0.2883 -1.8929
  147RES   H16941341   3.672   1.535   2.452  0.3663 -1.0721 -1.0354
  147RES   O17041342   3.324   1.646   2.723  0.5915 -0.0689 -0.6880
  147RES   C17141343   3.316   1.737   2.835 -0.0618 -0.0009 -0.3334
  147RES   C17241344   3.408   1.673   2.938  0.0453 -0.4115 -0.1695
  147RES   C17341345   3.371   1.704   3.084  0.0877 -0.2592 -0.1908
  147RES   O17441346   3.416   1.603   3.181 -0.0623  0.1847 -0.0670
  147RES   C17541347   3.555   1.600   3.210  0.1400  0.1215 -0.6839
  147RES   H17641348   3.211   1.734   2.861  0.2185 -0.4238  0.7937
  147RES   H17741349   3.328   1.843   2.814  1.2069 -0.0526  0.0934
  147RES   H17841350   3.422   1.566   2.923 -2.4327 -0.7537 -0.2462
  147RES   H17941351   3.404   1.807   3.103 -2.0270  0.5472 -0.6897
  147RES   H18041352   3.262   1.707   3.090  0.1326  1.5440  0.2392
  147RES   H18141353   3.610   1.546   3.132 -1.6336 -1.0013 -1.1940
  147RES   H18241354   3.565   1.540   3.300 -2.0121 -0.4413 -0.7885
  147RES   H18341355   3.588   1.703   3.221 -0.7474  0.5869 -2.2252
  147RES   O18441356   3.538   1.730   2.920  0.3778 -0.5288 -0.4318
  147RES   C18541357   3.593   1.727   2.793  0.0754  0.1253 -0.7542
  147RES   C18641358   3.743   1.747   2.798 -0.4612  0.1266 -0.4053
  147RES   C18741359   3.798   1.726   2.657 -0.3461  0.4314 -0.2784
  147RES   O18841360   3.912   1.798   2.630  0.1752 -0.2024 -0.3638
  147RES   C18941361   3.945   1.784   2.493  0.4895 -0.8511  0.4856
  147RES   H19041362   3.541   1.799   2.728 -1.3445 -0.0934  0.1180
  147RES   H19141363   3.585   1.623   2.761 -2.2070 -0.0327  0.2413
  147RES   H19241364   3.754   1.849   2.834  2.4792 -1.4718  3.6867
  147RES   H19341365   3.722   1.757   2.585  0.7871  0.4667 -1.4807
  147RES   H19441366   3.805   1.618   2.641  1.5641  0.3535  0.9240
  147RES   H19541367   3.887   1.844   2.423  1.5190  2.9661  2.7295
  147RES   H19641368   4.045   1.828   2.500  0.7120 -1.2818  0.0185
  147RES   H19741369   3.952   1.683   2.453  0.2387  0.3146 -2.6280
  147RES   O19841370   3.797   1.663   2.902 -0.3777 -0.0765 -0.2908
  147RES   C19941371   3.938   1.657   2.915 -0.2575  0.0271  0.3528
  147RES   C20041372   3.965   1.555   3.035  0.2123  0.5398 -0.0558
  147RES   C20141373   4.096   1.581   3.115  0.2683  0.5836  0.6703
  147RES   O20241374   4.110   1.516   3.238 -0.0005 -0.2205  0.3682
  147RES   C20341375   4.056   1.385   3.260 -0.1050 -0.3423 -0.8386
  147RES   H20441376   3.985   1.753   2.936  1.2533 -0.8028  0.8666
  147RES   H20541377   3.983   1.624   2.821  2.5828  2.4231  0.8166
  147RES   H20641378   3.884   1.568   3.106  0.3531 -0.9618  0.3960
  147RES   H20741379   4.179   1.567   3.045 -0.7124 -2.7187  0.0369
  147RES   H20841380   4.093   1.681   3.157  1.0852  0.7762  0.2795
  147RES   H20941381   4.051   1.322   3.171  0.7351  0.0232 -1.1539
  147RES   H21041382   3.959   1.393   3.309  0.9209  1.5109  0.9937
  147RES   H21141383   4.113   1.329   3.335 -1.4777 -0.8992 -0.1988
  147RES   O21241384   3.959   1.421   2.987  0.1059  0.5389 -0.3399
  147RES   C21341385   3.839   1.379   2.929  0.2845 -0.1600 -0.3515
  147RES   C21441386   3.841   1.233   2.880 -0.4551  0.5326 -0.2444
  147RES   C21541387   3.931   1.204   2.760  0.2348  0.3660  0.3568
  147RES   O21641388   3.903   1.294   2.653 -0.3064 -0.4305  0.6154
  147RES   C21741389   3.954   1.251   2.523 -0.1194 -0.5301 -0.4336
  147RES   H21841390   3.815   1.440   2.842  0.3489  1.4388  0.7284
  147RES   H21941391   3.761   1.388   3.005  1.8833 -0.8443  1.4270
  147RES   H22041392   3.892   1.175   2.958 -0.9720 -2.8609 -2.3160
  147RES   H22141393   4.034   1.223   2.790  0.1445 -1.2322  1.7800
  147RES   H22241394   3.917   1.099   2.732  0.5083 -0.2371  2.4250
  147RES   H22341395   3.929   1.148   2.495  2.2060 -1.3623  0.4252
  147RES   H22441396   4.062   1.264   2.530 -0.1337  1.3264 -3.0480
  147RES   H22541397   3.910   1.311   2.444  2.6837  0.1162 -1.5310
  147RES   O22641398   3.711   1.194   2.875  0.1725  0.0518 -0.2507
  147RES   C22741399   3.635   1.232   2.763  0.1707 -0.1362  0.0430
  147RES   C22841400   3.485   1.199   2.778 -0.2106 -0.4388  0.1503
  147RES   C22941401   3.411   1.292   2.677 -0.3006  0.3096 -0.9446
  147RES   O23041402   3.277   1.248   2.685 -0.2591 -0.2387 -0.2862
  147RES   C23141403   3.194   1.342   2.748 -0.2616  0.8774  0.5490
  147RES   H23241404   3.664   1.178   2.673  0.3817 -0.4504  0.2972
  147RES   H23341405   3.654   1.337   2.740 -0.5137  0.1466  0.7345
  147RES   H23441406   3.452   1.219   2.880  1.2586 -0.6346  0.6709
  147RES   H23541407   3.450   1.268   2.578  0.1137 -1.3511 -0.3961
  147RES   H23641408   3.426   1.400   2.684  1.3108 -0.0604  2.4674
  147RES   H23741409   3.099   1.290   2.752 -0.2914  0.9371  0.6229
  147RES   H23841410   3.191   1.418   2.669  1.1664 -0.1573 -0.5225
  147RES   H23941411   3.234   1.369   2.846 -0.5154  1.8173  0.4031
  147RES   O24041412   3.457   1.064   2.730  0.1141 -0.3352 -0.0640
  147RES   C24141413   3.490   0.960   2.828  0.0977 -0.5803  0.8724
  147RES   C24241414   3.461   0.824   2.755 -0.1310  0.4661  0.4574
  147RES   C24341415   3.531   0.702   2.824 -0.9846 -1.1289 -0.4156
  147RES   O24441416   3.547   0.590   2.740 -0.1961 -0.3490  0.2302
  147RES   C24541417   3.621   0.493   2.804 -0.1122 -0.4749 -0.1441
  147RES   H24641418   3.441   0.970   2.925 -0.7818  2.3502  0.1489
  147RES   H24741419   3.597   0.960   2.848  0.4929 -0.6098 -1.1229
  147RES   H24841420   3.498   0.830   2.653  1.4910 -1.3067  0.9275
  147RES   H24941421   3.624   0.745   2.862 -2.7671 -1.1732  4.3429
  147RES   H25041422   3.478   0.675   2.915  1.5190 -0.0003  1.4469
  147RES   H25141423   3.566   0.450   2.887 -0.9644 -1.6519 -1.2956
  147RES   H25241424   3.717   0.523   2.846 -0.6137  0.7708  0.1322
  147RES   H25341425   3.641   0.411   2.734 -0.0180 -0.0724 -0.5923
  147RES   O25441426   3.319   0.804   2.759 -0.1867  0.0444 -0.3294
  147RES   C25541427   3.272   0.712   2.661  0.1795  0.1604 -0.2930
  147RES   C25641428   3.122   0.719   2.651  0.3340 -0.5208 -0.8108
  147RES   C25741429   3.048   0.658   2.770 -0.4363  0.5464  0.1326
  147RES   O25841430   2.913   0.667   2.738  0.5144 -0.4123 -0.1449
  147RES   C25941431   2.824   0.656   2.843  0.0762  0.0116  0.1453
  147RES   H26041432   3.317   0.736   2.564  0.3934  3.1152  0.4947
  147RES   H26141433   3.305   0.611   2.686  0.5870  0.9291  2.3594
  147RES   H26241434   3.099   0.670   2.556  2.6493 -0.3599 -1.4960
  147RES   H26341435   3.074   0.552   2.778 -0.8098  0.4187 -0.2614
  147RES   H26441436   3.081   0.706   2.861 -0.6611 -0.8350  0.9538
  147RES   H26541437   2.721   0.659   2.806  0.7824  0.8235 -1.8177
  147RES   H26641438   2.843   0.737   2.913  2.8539  0.1502 -0.7050
  147RES   H26741439   2.840   0.563   2.899  0.6998 -1.5828 -2.5826
  147RES   O26841440   3.082   0.854   2.648  0.7476 -0.2350 -0.0740
  147RES   C26941441   3.109   0.927   2.529 -0.4004  0.1639  0.0237
  147RES   C27041442   3.034   1.059   2.550 -0.0182 -0.0900 -0.1192
  147RES   C27141443   2.881   1.035   2.558 -0.0449  0.2159  0.1935
  147RES   O27241444   2.821   1.138   2.616  0.6822 -0.0923 -0.2719
  147RES   C27341445   2.688   1.118   2.638  0.3289 -0.3303 -0.4601
  147RES   H27441446   3.073   0.882   2.437 -0.5709  0.8226 -0.2321
  147RES   H27541447   3.215   0.952   2.522  0.4689 -3.6195 -1.1932
  147RES   H27641448   3.079   1.098   2.641  0.9181  0.0617 -0.6452
  147RES   H27741449   2.873   0.948   2.623 -0.4355 -0.0030 -0.1442
  147RES   H27841450   2.851   1.012   2.455  2.2012  1.0621 -0.6907
  147RES   H27941451   2.645   1.080   2.546 -2.4062 -0.7825  0.9460
  147RES   H28041452   2.631   1.206   2.669  2.0092  0.3011  0.8930
  147RES   H28141453   2.671   1.055   2.726  1.0180  0.8927  0.5825
  147RES   H28241454   3.051   1.135   2.474  2.4865  0.4355  0.9356
  148RES     O141455   6.064   1.044   4.208 -0.4204 -0.3405 -0.1773
  148RES     C241456   5.981   1.088   4.102 -0.0909 -0.3611  0.1780
  148RES     C341457   6.029   1.037   3.966 -0.3500  0.0540  0.0697
  148RES     C441458   5.912   1.033   3.864 -0.2294 -0.1035  0.4257
  148RES     O541459   5.920   0.973   3.731  0.1463 -0.5654  0.4974
  148RES     C641460   5.932   0.830   3.727  0.0922 -0.7914 -0.1551
  148RES     H741461   5.884   1.052   4.135 -0.7521  0.5207 -0.7523
  148RES     H841462   5.976   1.197   4.110  1.1962 -0.3923  1.5322
  148RES     H941463   6.052   0.931   3.976 -2.4051 -0.5017 -0.6403
  148RES    H1041464   5.868   1.132   3.854  2.6473  1.3412  1.4474
  148RES    H1141465   5.828   0.988   3.916  0.1815 -0.7247  0.5513
  148RES    H1241466   5.854   0.783   3.786  0.1233  0.9791  1.3485
  148RES    H1341467   5.916   0.798   3.624 -1.7318 -1.9547  0.4725
  148RES    H1441468   6.025   0.794   3.772 -0.4715 -0.7653  1.0514
  148RES    H1541469   6.137   1.004   4.164 -1.2760 -1.6119 -0.4556
  148RES    O1641470   6.136   1.116   3.921  0.7092 -0.1833 -0.0300
  148RES    C1741471   6.264   1.061   3.915 -0.5253  0.0725  0.5745
  148RES    C1841472   6.344   1.146   3.815 -0.2212  0.4808 -0.2998
  148RES    C1941473   6.484   1.147   3.865 -0.1650 -0.2727  0.6040
  148RES    O2041474   6.549   1.021   3.876  0.2432 -0.7459  0.3658
  148RES    C2141475   6.683   1.031   3.908  0.7933  0.0080  0.0898
  148RES    H2241476   6.273   0.957   3.884  1.2337 -0.3597  2.4584
  148RES    H2341477   6.315   1.062   4.011  1.4014  0.3074 -0.4128
  148RES    H2441478   6.308   1.249   3.821  1.9154  1.1482  1.5249
  148RES    H2541479   6.539   1.213   3.798 -2.7677 -0.0624 -1.4435
  148RES    H2641480   6.488   1.192   3.964  1.0308  0.9189  0.0268
  148RES    H2741481   6.741   0.939   3.914 -0.1125 -0.4417  2.1202
  148RES    H2841482   6.714   1.080   4.000 -0.8500  0.0450  0.6276
  148RES    H2941483   6.734   1.084   3.827 -0.2096 -0.5018 -0.8929
  148RES    O3041484   6.354   1.090   3.688  0.0344  0.3030  0.5438
  148RES    C3141485   6.234   1.075   3.617 -0.5419  0.0081  0.6520
  148RES    C3241486   6.257   1.035   3.473  0.0837  0.2014  0.2616
  148RES    C3341487   6.128   1.039   3.392 -0.8255  0.1794 -0.2022
  148RES    O3441488   6.150   1.075   3.262  0.4439 -0.3345 -0.1507
  148RES    C3541489   6.034   1.076   3.192 -0.0664  1.0662  0.0625
  148RES    H3641490   6.173   1.000   3.668  1.0767  0.6073  3.5620
  148RES    H3741491   6.173   1.165   3.625  0.6800  0.9022  0.1180
  148RES    H3841492   6.332   1.104   3.436  0.6246 -0.2738  0.4715
  148RES    H3941493   6.053   1.105   3.436 -2.7107 -2.7720  1.2041
  148RES    H4041494   6.079   0.942   3.390 -0.4805  0.0178 -0.6330
  148RES    H4141495   6.002   0.977   3.162 -0.7750  2.0912 -2.7064
  148RES    H4241496   6.044   1.129   3.098  0.8895  1.4557  0.3732
  148RES    H4341497   5.964   1.137   3.249  1.1217 -0.4075  3.2393
  148RES    O4441498   6.305   0.898   3.474 -0.5256  0.6777  0.5813
  148RES    C4541499   6.390   0.858   3.367 -0.2668 -0.4283  0.1989
  148RES    C4641500   6.447   0.720   3.403  0.0440 -0.3328 -0.0107
  148RES    C4741501   6.486   0.644   3.274 -0.4615 -0.3057 -0.1521
  148RES    O4841502   6.476   0.500   3.291 -0.1343  0.2309 -0.5478
  148RES    C4941503   6.520   0.423   3.182 -0.3801 -0.2508 -0.0163
  148RES    H5041504   6.471   0.928   3.346 -1.0893  0.8459  1.2056
  148RES    H5141505   6.331   0.848   3.275 -2.1047 -1.6816  1.4779
  148RES    H5241506   6.369   0.660   3.449  0.1572 -0.3455  0.1658
  148RES    H5341507   6.427   0.672   3.187 -1.3253 -0.8379  0.2608
  148RES    H5441508   6.591   0.666   3.253 -0.0743 -2.6037 -0.7220
  148RES    H5541509   6.579   0.479   3.110  0.9310 -0.4665  0.8679
  148RES    H5641510   6.437   0.386   3.122  1.5152 -1.4730 -1.9579
  148RES    H5741511   6.581   0.339   3.215 -2.2659 -0.9268  1.8355
  148RES    O5841512   6.562   0.737   3.487  0.1106 -0.1212  0.1463
  148RES    C5941513   6.539   0.772   3.624 -0.1747 -0.1747  0.5120
  148RES    C6041514   6.504   0.645   3.698  0.2172 -0.3963  0.2552
  148RES    C6141515   6.456   0.664   3.841 -0.1770  0.8650 -0.7680
  148RES    O6241516   6.372   0.555   3.873  0.3123  0.1438 -0.8494
  148RES    C6341517   6.271   0.592   3.962  0.8807  0.7833  0.6432
  148RES    H6441518   6.457   0.841   3.646  0.6656  1.0329 -0.0971
  148RES    H6541519   6.635   0.811   3.657 -0.8362  1.3193  0.7096
  148RES    H6641520   6.427   0.595   3.641 -0.6745  2.9149 -1.6039
  148RES    H6741521   6.542   0.659   3.907  0.2985  0.1765 -1.4330
  148RES    H6841522   6.418   0.765   3.853 -0.3617  0.6519  0.4599
  148RES    H6941523   6.308   0.663   4.037  0.0171  2.5517 -0.5762
  148RES    H7041524   6.231   0.501   4.007 -1.7619  0.2653 -2.5914
  148RES    H7141525   6.188   0.640   3.910 -0.4433 -0.3013  1.7303
  148RES    O7241526   6.628   0.571   3.705 -0.5291 -0.1923 -0.0109
  148RES    C7341527   6.607   0.430   3.726 -0.0498  0.6345 -0.1531
  148RES    C7441528   6.746   0.361   3.716  0.0114  0.1285 -0.8334
  148RES    C7541529   6.729   0.207   3.677 -0.0512 -0.5386  0.2330
  148RES    O7641530   6.845   0.156   3.610  0.1238  0.7028  0.0995
  148RES    C7741531   6.943   0.102   3.689 -0.5162  0.2828  0.1447
  148RES    H7841532   6.554   0.413   3.820 -0.2134  0.7184 -0.2296
  148RES    H7941533   6.543   0.400   3.643 -0.2875  1.6775 -0.3563
  148RES    H8041534   6.810   0.400   3.637  1.8708 -2.7463 -0.8031
  148RES    H8141535   6.640   0.195   3.616 -0.1233 -0.4995  0.3293
  148RES    H8241536   6.717   0.156   3.772 -0.2006 -1.5451 -0.3223
  148RES    H8341537   7.015   0.060   3.619  0.6165 -0.7167  1.8736
  148RES    H8441538   6.902   0.030   3.761  2.9028 -1.3197  0.5753
  148RES    H8541539   6.982   0.190   3.742  3.4812 -0.4501 -1.4000
  148RES    O8641540   6.809   0.359   3.844 -0.2137 -0.1391  0.0987
  148RES    C8741541   6.944   0.420   3.847 -0.4718  0.3828  0.5867
  148RES    C8841542   6.926   0.553   3.913 -0.5392 -0.1907  0.6198
  148RES    C8941543   6.962   0.549   4.065  0.2904  0.0866  0.3239
  148RES    O9041544   6.922   0.671   4.127  0.4474 -0.3130 -0.3416
  148RES    C9141545   6.871   0.665   4.261  0.4247 -0.4171  0.7357
  148RES    H9241546   7.015   0.363   3.907  1.9729  2.0624 -0.6248
  148RES    H9341547   6.986   0.428   3.746 -1.2225  0.5204  0.2841
  148RES    H9441548   6.821   0.582   3.903 -1.5932 -2.8585  3.0696
  148RES    H9541549   6.920   0.466   4.122 -0.9626  0.1671 -0.4624
  148RES    H9641550   7.070   0.545   4.079  0.3052  0.5908  0.3712
  148RES    H9741551   6.777   0.611   4.258 -0.1739  0.5892  1.0308
  148RES    H9841552   6.943   0.632   4.336  1.0626 -0.0015  0.3186
  148RES    H9941553   6.851   0.768   4.291  0.3226 -0.1419 -0.2672
  148RES   O10041554   7.021   0.645   3.853  0.1557 -0.2590 -0.2397
  148RES   C10141555   6.967   0.700   3.728  0.1244  0.1903  0.6339
  148RES   C10241556   6.994   0.856   3.712 -0.3249  0.6928  0.5628
  148RES   C10341557   6.924   0.920   3.599 -0.3517  0.6430 -0.1003
  148RES   O10441558   6.944   1.055   3.574  0.5934  0.4327 -0.2230
  148RES   C10541559   6.880   1.093   3.452 -0.9526 -0.4911 -1.2941
  148RES   H10641560   6.859   0.693   3.720  0.1929 -1.2762  0.9756
  148RES   H10741561   7.018   0.644   3.650  0.0939  0.6572  0.2792
  148RES   H10841562   6.961   0.907   3.803 -0.3181 -0.3491  1.1675
  148RES   H10941563   6.818   0.899   3.590  0.0699 -1.3926 -0.7648
  148RES   H11041564   6.979   0.878   3.514  0.6713 -0.8548  1.2578
  148RES   H11141565   6.863   1.201   3.458 -2.5654 -0.6673 -2.3417
  148RES   H11241566   6.780   1.054   3.437 -2.4164  2.4742  0.3160
  148RES   H11341567   6.945   1.077   3.366  3.0024 -2.9702  1.9775
  148RES   O11441568   7.132   0.872   3.706 -0.2523 -0.9367  0.0143
  148RES   C11541569   7.199   0.988   3.763 -0.3510 -0.5943 -0.5525
  148RES   C11641570   7.310   0.958   3.870 -0.3580  0.6957 -0.1768
  148RES   C11741571   7.243   0.875   3.981 -0.8173  0.0308  0.4606
  148RES   O11841572   7.317   0.870   4.105 -0.4819 -0.1551 -0.4746
  148RES   C11941573   7.305   0.976   4.198 -0.2466 -0.3768 -0.1128
  148RES   H12041574   7.242   1.048   3.683 -1.3716  1.3172  0.3156
  148RES   H12141575   7.128   1.053   3.813  0.2211  0.5897 -1.2701
  148RES   H12241576   7.346   1.050   3.917  0.8480 -0.1894  0.6476
  148RES   H12341577   7.144   0.920   3.991 -0.5060  1.2445 -1.8445
  148RES   H12441578   7.225   0.773   3.948  0.6603 -1.1384  3.1216
  148RES   H12541579   7.216   0.981   4.261  0.0801  0.3523  0.2936
  148RES   H12641580   7.311   1.076   4.155  2.1060  0.4400  2.0028
  148RES   H12741581   7.389   0.981   4.266 -0.2516 -2.4737  0.0613
  148RES   O12841582   7.420   0.893   3.797  0.1166 -0.2836  0.2251
  148RES   C12941583   7.518   0.825   3.878 -0.3320  0.6081 -0.4862
  148RES   C13041584   7.644   0.778   3.806 -0.3766 -0.2941  0.0642
  148RES   C13141585   7.746   0.702   3.903  0.4082 -0.1458  0.7422
  148RES   O13241586   0.002   0.600   3.840 -0.0955  0.1437  0.5477
  148RES   C13341587   0.110   0.542   3.916  0.7470  0.0928  0.1793
  148RES   H13441588   7.544   0.871   3.974  2.8103 -1.2646 -0.3474
  148RES   H13541589   7.473   0.730   3.909  1.1086  0.9978  3.1141
  148RES   H13641590   7.634   0.721   3.714 -0.0600  1.7220 -1.2573
  148RES   H13741591   7.689   0.652   3.981  0.1589  0.3675  0.8893
  148RES   H13841592   7.814   0.769   3.956  0.3591 -1.0192  1.9224
  148RES   H13941593   0.161   0.471   3.851  2.5133  0.6335  0.9423
  148RES   H14041594   0.183   0.613   3.956  1.3160 -1.2983  1.6862
  148RES   H14141595   0.076   0.488   4.005  0.4083  0.8366  0.5103
  148RES   O14241596   7.700   0.901   3.768 -0.0384  0.1847  0.0453
  148RES   C14341597   7.803   0.885   3.674 -0.6111 -0.6037 -0.0886
  148RES   C14441598   0.045   1.024   3.640  0.0157  0.1436  0.2945
  148RES   C14541599   0.082   1.095   3.772 -0.4445  0.2633 -0.2644
  148RES   O14641600   0.195   1.173   3.743  0.4812  0.2647  0.7601
  148RES   C14741601   0.313   1.113   3.789 -0.4736  0.8391  0.0498
  148RES   H14841602   0.071   0.832   3.715 -0.6124 -1.7393 -1.4930
  148RES   H14941603   7.766   0.838   3.582  0.0151  3.3418 -2.4785
  148RES   H15041604   0.126   1.022   3.566 -1.9131  1.7821 -1.9207
  148RES   H15141605   0.099   1.024   3.853 -1.0909  1.3795  0.8566
  148RES   H15241606   0.003   1.167   3.795  0.1946  0.6084  0.8443
  148RES   H15341607   0.315   1.007   3.765 -3.4961  0.5446  0.8845
  148RES   H15441608   0.312   1.104   3.898 -0.2230  0.4269  0.0215
  148RES   H15541609   0.406   1.161   3.759  0.1378 -1.7203 -2.3597
  148RES   O15641610   7.757   1.096   3.588  0.1067 -0.6343 -0.2420
  148RES   C15741611   7.792   1.173   3.475  0.5229 -0.8908  0.2969
  148RES   C15841612   7.783   1.087   3.348 -0.1809 -0.3011 -0.2283
  148RES   C15941613   0.043   1.165   3.225  0.3276 -0.0342  0.3697
  148RES   O16041614   0.182   1.171   3.255 -0.3439 -0.1853  0.3006
  148RES   C16141615   0.266   1.194   3.144 -0.1081  0.2982  0.3843
  148RES   H16241616   7.725   1.259   3.478  1.0052 -0.5098  0.4224
  148RES   H16341617   0.070   1.224   3.495  0.7045 -0.6440 -1.1645
  148RES   H16441618   0.020   0.995   3.371  1.9427  0.8370 -0.4912
  148RES   H16541619   0.020   1.107   3.136 -0.4187 -1.1436  1.2694
  148RES   H16641620   0.002   1.265   3.211  0.6019 -0.2312 -2.0697
  148RES   H16741621   0.291   1.099   3.098  0.3333  0.4239  0.3583
  148RES   H16841622   0.361   1.232   3.181 -0.7771  1.1092  1.2723
  148RES   H16941623   0.218   1.263   3.075 -0.2495  1.9077  2.0736
  148RES   O17041624   7.644   1.072   3.322 -0.2024 -0.8994 -0.0254
  148RES   C17141625   7.572   0.967   3.399  0.1000 -0.1410  0.6133
  148RES   C17241626   7.430   0.949   3.351  0.4732 -0.2228  0.1135
  148RES   C17341627   7.357   0.834   3.422  0.2513  0.6241  0.1120
  148RES   O17441628   7.222   0.814   3.376 -0.1364 -0.2691  0.7252
  148RES   C17541629   7.169   0.690   3.399 -0.9080  0.2460 -0.1708
  148RES   H17641630   7.570   0.991   3.506 -0.4691 -1.8159  0.9979
  148RES   H17741631   7.620   0.869   3.404  0.2317 -0.1416 -0.6963
  148RES   H17841632   7.365   1.035   3.368 -2.1993 -1.6940 -2.3033
  148RES   H17941633   7.420   0.745   3.428  0.6871  1.0312  2.0208
  148RES   H18041634   7.357   0.860   3.528  1.9552 -1.5701  0.6862
  148RES   H18141635   7.064   0.692   3.369 -1.8638 -2.4213  2.7018
  148RES   H18241636   7.185   0.664   3.504  0.2007  1.9693  0.1055
  148RES   H18341637   7.222   0.617   3.338  0.0875  0.8428 -0.0323
  148RES   O18441638   7.445   0.925   3.204 -0.1626  0.2814 -0.1534
  148RES   C18541639   7.428   1.039   3.123 -0.5398  0.9266 -0.1425
  148RES   C18641640   7.316   1.010   3.013  0.1561 -0.0692 -0.4077
  148RES   C18741641   7.198   0.941   3.075 -0.0761 -0.5310  0.2376
  148RES   O18841642   7.090   0.951   2.985  0.3879 -0.0185 -0.0364
  148RES   C18941643   6.988   0.860   3.012 -0.5819  0.6254 -0.5721
  148RES   H19041644   7.529   1.040   3.081  0.0326  0.0226  1.1723
  148RES   H19141645   7.414   1.134   3.175 -0.3656  1.1218 -0.4507
  148RES   H19241646   7.279   1.106   2.978  0.5408  0.5900  0.9714
  148RES   H19341647   7.161   0.986   3.167 -3.0517  1.5132 -1.9001
  148RES   H19441648   7.231   0.837   3.087  0.2483 -0.3781  0.7040
  148RES   H19541649   6.895   0.885   2.960 -0.5439  0.0493 -0.9186
  148RES   H19641650   7.019   0.758   2.988  1.9227  1.4121 -0.8424
  148RES   H19741651   6.959   0.865   3.116 -1.4399  1.3752 -0.8372
  148RES   O19841652   7.372   0.941   2.898 -0.4500  0.5586  0.6623
  148RES   C19941653   7.309   0.967   2.782 -0.0564 -0.3491  0.1022
  148RES   C20041654   7.358   0.871   2.666 -0.5200 -0.2013 -0.0111
  148RES   C20141655   7.383   0.932   2.529  0.5114 -0.4643  0.1886
  148RES   O20241656   7.456   0.839   2.448 -0.1175 -0.1959  0.4987
  148RES   C20341657   7.505   0.890   2.326 -0.0924  0.1916 -0.6784
  148RES   H20441658   7.344   1.067   2.755  1.0483 -0.0291  2.5477
  148RES   H20541659   7.200   0.963   2.776 -0.2004  2.0405  0.6301
  148RES   H20641660   7.439   0.811   2.707 -2.3473 -1.7453  1.4634
  148RES   H20741661   7.296   0.972   2.476  0.5725 -1.4294 -0.6463
  148RES   H20841662   7.447   1.016   2.558  0.6896 -0.2864 -0.6871
  148RES   H20941663   7.447   0.976   2.294 -1.8786 -1.3341 -1.6430
  148RES   H21041664   7.501   0.823   2.240 -0.6791  0.5300 -0.9130
  148RES   H21141665   7.608   0.920   2.346  0.9520 -3.2128 -0.5947
  148RES   O21241666   7.251   0.782   2.642 -0.2216  0.3271 -0.3842
  148RES   C21341667   7.234   0.675   2.736 -0.1268  0.6673 -0.0069
  148RES   C21441668   7.193   0.548   2.656  0.3685 -0.9184  0.5340
  148RES   C21541669   7.100   0.458   2.738 -0.0691  0.2960  0.0573
  148RES   O21641670   7.025   0.380   2.643  0.7839  0.4432  0.6053
  148RES   C21741671   7.084   0.251   2.603  0.3639  0.8153 -0.1816
  148RES   H21841672   7.166   0.693   2.819 -0.4252 -1.9082  0.3406
  148RES   H21941673   7.331   0.646   2.779 -0.0725  1.5919  0.5085
  148RES   H22041674   7.134   0.576   2.569 -0.9487 -0.4711  1.5432
  148RES   H22141675   7.147   0.387   2.805 -0.9356 -1.1205 -0.7876
  148RES   H22241676   7.017   0.500   2.795 -0.4347 -1.4752  0.8525
  148RES   H22341677   7.001   0.192   2.564 -0.4570  2.4616 -0.9663
  148RES   H22441678   7.104   0.187   2.689  0.9803 -0.8212 -1.5329
  148RES   H22541679   7.167   0.261   2.534 -1.6037  2.9375 -2.3045
  148RES   O22641680   7.302   0.461   2.616  0.2209 -0.7168 -0.3211
  148RES   C22741681   7.384   0.520   2.509 -0.1639  0.5088 -0.8858
  148RES   C22841682   7.470   0.421   2.428  0.2650 -0.7697 -0.2189
  148RES   C22941683   7.589   0.490   2.355  1.0435 -0.5125  0.4053
  148RES   O23041684   7.603   0.427   2.225 -0.2058  0.5486 -0.0633
  148RES   C23141685   7.715   0.473   2.149 -0.1848  0.0253  0.9381
  148RES   H23241686   7.446   0.585   2.571 -1.6451 -1.0056  2.2884
  148RES   H23341687   7.330   0.577   2.434 -1.7270 -1.6612 -1.4528
  148RES   H23441688   7.404   0.378   2.354 -1.5197  0.7740  0.4379
  148RES   H23541689   7.674   0.473   2.421  3.5035 -1.1629 -2.8052
  148RES   H23641690   7.583   0.597   2.335 -0.4544 -0.6356  0.1391
  148RES   H23741691   7.812   0.468   2.198  0.4861 -0.1128 -0.3778
  148RES   H23841692   7.695   0.578   2.125 -0.6881 -0.1339  0.6540
  148RES   H23941693   7.716   0.416   2.056 -1.0509 -0.5373  1.2662
  148RES   O24041694   7.524   0.315   2.507 -0.6831  0.1729 -0.1627
  148RES   C24141695   7.547   0.194   2.435  0.1352  0.6433 -0.1939
  148RES   C24241696   7.619   0.085   2.513  0.4677  0.5843 -0.4831
  148RES   C24341697   7.607   7.771   2.434  0.1076  0.0494  0.6382
  148RES   O24441698   7.635   7.660   2.512  0.0273 -0.2002  0.1871
  148RES   C24541699   7.656   7.545   2.428 -0.3256  0.6504  0.3877
  148RES   H24641700   7.598   0.212   2.340  1.2547 -0.9297  0.1057
  148RES   H24741701   7.445   0.161   2.417  1.5041 -2.7140 -2.1834
  148RES   H24841702   7.563   0.072   2.606  0.2577  1.9462 -0.4130
  148RES   H24941703   7.501   7.760   2.409  0.5526 -0.6255 -0.9943
  148RES   H25041704   7.665   7.780   2.342  2.4276  1.6302  2.2127
  148RES   H25141705   7.735   7.473   2.450  1.9483  2.1511 -2.6095
  148RES   H25241706   7.683   7.576   2.328  0.1796 -2.0649 -0.3682
  148RES   H25341707   7.558   7.500   2.410  0.5424 -1.1446  0.0237
  148RES   O25441708   7.753   0.130   2.531 -0.2785  0.1310 -0.3021
  148RES   C25541709   0.002   0.068   2.642 -0.1402  0.0301 -0.0364
  148RES   C25641710   7.771   0.117   2.783  0.2048  0.4362 -0.0560
  148RES   C25741711   7.816   0.032   2.898  0.4498 -0.1403  0.1689
  148RES   O25841712   7.753   0.065   3.015  0.3985  0.0417 -0.3382
  148RES   C25941713   7.810   7.816   3.125  0.5094 -0.6605 -0.0482
  148RES   H26041714   7.797   7.778   2.634 -2.3510  0.4361  0.1760
  148RES   H26141715   0.108   0.071   2.619  0.7920  0.5388  3.8899
  148RES   H26241716   7.662   0.119   2.782  0.2146  1.1370  0.2875
  148RES   H26341717   7.810   7.741   2.886 -1.2873 -0.1742  1.1936
  148RES   H26441718   0.108   0.032   2.904  0.4831  2.6432  0.4270
  148RES   H26541719   0.099   0.011   3.144  1.0447 -2.2919 -1.8250
  148RES   H26641720   7.790   7.709   3.119 -0.4145 -0.4861 -0.2193
  148RES   H26741721   7.766   0.036   3.217  0.3421  2.0260 -1.1600
  148RES   O26841722   7.815   0.255   2.797  0.0926 -0.2833  0.0476
  148RES   C26941723   7.706   0.351   2.797  0.1363 -0.4068 -0.4106
  148RES   C27041724   7.631   0.366   2.930 -0.2585 -0.2369  0.3259
  148RES   C27141725   7.532   0.484   2.935 -0.0689  0.1107  0.2911
  148RES   O27241726   7.472   0.503   3.059 -0.2108  0.3960  0.2992
  148RES   C27341727   7.431   0.634   3.085 -0.2244 -0.4572  0.6932
  148RES   H27441728   7.639   0.316   2.719 -2.5731  0.1759  1.5710
  148RES   H27541729   7.745   0.451   2.775 -2.0793  0.6369  0.2024
  148RES   H27641730   7.586   0.269   2.951  0.0823 -0.1827  1.3264
  148RES   H27741731   7.449   0.473   2.866 -0.4989 -0.6500  0.9272
  148RES   H27841732   7.582   0.575   2.901 -1.7787  1.1891  0.6178
  148RES   H27941733   7.381   0.628   3.182  0.9631  0.9674  1.4044
  148RES   H28041734   7.360   0.680   3.016  1.6225 -1.6239 -2.0574
  148RES   H28141735   7.515   0.702   3.095  0.6220 -1.8133  3.3213
  148RES   H28241736   7.705   0.386   3.007 -0.0196 -2.6725  0.7561
  149RES     O141737   1.162   1.312   3.177 -0.5112 -0.0842  0.5013
  149RES     C241738   1.199   1.446   3.131  0.4139 -0.0431  0.0713
  149RES     C341739   1.345   1.481   3.167  0.1172  0.3437  0.0606
  149RES     C441740   1.413   1.598   3.094 -0.2603  0.4104  0.1896
  149RES     O541741   1.552   1.573   3.064 -0.3339  0.0449  0.1106
  149RES     C641742   1.611   1.677   2.988 -0.3723  0.0023 -0.8690
  149RES     H741743   1.187   1.455   3.023  2.9365 -2.3589 -0.4521
  149RES     H841744   1.136   1.508   3.195 -0.8087 -0.7343 -0.4465
  149RES     H941745   1.394   1.388   3.140  0.7190  0.4333  0.8140
  149RES    H1041746   1.389   1.687   3.151 -1.5371  0.3943 -0.3185
  149RES    H1141747   1.371   1.601   2.994  0.5672  1.7166 -0.1233
  149RES    H1241748   1.718   1.657   2.990 -0.2867  0.3936 -1.3200
  149RES    H1341749   1.572   1.674   2.886 -1.4390  1.9039 -0.5553
  149RES    H1441750   1.585   1.774   3.031 -0.5568 -0.8449  0.9496
  149RES    H1541751   1.147   1.323   3.270 -0.4358 -0.5298  0.5660
  149RES    O1641752   1.346   1.494   3.309 -0.1588  0.5509 -1.0106
  149RES    C1741753   1.463   1.455   3.372  0.3708  0.1745  0.5984
  149RES    C1841754   1.489   1.300   3.369  0.4113  0.0711 -0.5832
  149RES    C1941755   1.637   1.262   3.389  0.1185  0.2301 -0.7764
  149RES    O2041756   1.663   1.139   3.319  0.0320 -0.2627 -0.5468
  149RES    C2141757   1.798   1.111   3.297 -1.0296 -0.2092  0.6368
  149RES    H2241758   1.465   1.486   3.477 -1.4802  0.9456  0.4215
  149RES    H2341759   1.543   1.512   3.324  0.7128  0.8332  1.9264
  149RES    H2441760   1.453   1.251   3.279 -0.2244 -0.1411 -0.2134
  149RES    H2541761   1.702   1.333   3.337 -0.1807 -1.4474 -3.5240
  149RES    H2641762   1.670   1.261   3.492  1.0408  3.0783 -1.0094
  149RES    H2741763   1.843   1.171   3.218  1.8232  0.5727  2.7526
  149RES    H2841764   1.806   1.004   3.278 -2.0559 -0.1955  0.1093
  149RES    H2941765   1.860   1.120   3.386  0.1849  0.5940 -0.2648
  149RES    O3041766   1.425   1.249   3.486 -0.3192  0.3719  0.1387
  149RES    C3141767   1.286   1.229   3.467 -0.4624  0.3142 -0.4739
  149RES    C3241768   1.210   1.177   3.586  0.0063 -0.6211 -0.6411
  149RES    C3341769   1.071   1.139   3.552  0.3649  0.0151 -0.0983
  149RES    O3441770   1.005   1.242   3.477  0.2169 -0.3376  0.0413
  149RES    C3541771   0.862   1.217   3.445 -0.1808  0.1983 -0.3795
  149RES    H3641772   1.236   1.322   3.441 -0.3711  0.1742 -1.1591
  149RES    H3741773   1.271   1.156   3.387  0.0755 -0.5823  0.2302
  149RES    H3841774   1.255   1.084   3.622  2.0706  0.2280 -0.9766
  149RES    H3941775   1.012   1.113   3.640  1.8464 -0.4456  0.7627
  149RES    H4041776   1.073   1.051   3.487  0.3587 -0.2837  0.3066
  149RES    H4141777   0.819   1.285   3.372 -0.1465  1.8695  1.1300
  149RES    H4241778   0.800   1.221   3.535  0.1587 -1.0429 -0.0775
  149RES    H4341779   0.843   1.123   3.394 -0.5544  0.3945 -0.5997
  149RES    O4441780   1.210   1.273   3.692  0.3694 -0.1632 -0.2410
  149RES    C4541781   1.296   1.250   3.806  0.4650 -0.0307  0.1670
  149RES    C4641782   1.273   1.366   3.904  0.1466  0.5355 -0.1919
  149RES    C4741783   1.302   1.503   3.852 -0.1428  0.0568  0.0008
  149RES    O4841784   1.400   1.571   3.934  0.6298 -0.0866 -0.5144
  149RES    C4941785   1.401   1.702   3.881 -0.6217 -0.0478 -0.4536
  149RES    H5041786   1.399   1.253   3.770  0.1710  1.8660 -0.5520
  149RES    H5141787   1.268   1.156   3.854  3.5450 -1.3975 -0.5473
  149RES    H5241788   1.363   1.360   3.966  0.0945  1.5210 -0.0240
  149RES    H5341789   1.331   1.493   3.747 -1.0988  0.3930 -0.3010
  149RES    H5441790   1.210   1.560   3.842  0.1630  0.7841  1.2391
  149RES    H5541791   1.484   1.746   3.936  0.0988 -3.4838  1.3268
  149RES    H5641792   1.307   1.748   3.908 -1.1494 -1.1223 -0.4152
  149RES    H5741793   1.417   1.706   3.773  1.7020  0.3916 -0.1313
  149RES    O5841794   1.148   1.358   3.971  0.0246 -0.5337 -0.3042
  149RES    C5941795   1.158   1.273   4.086  0.3509  0.5446 -0.2050
  149RES    C6041796   1.219   1.343   4.211  0.3315  0.3693 -0.0960
  149RES    C6141797   1.259   1.254   4.325 -0.4211  0.1333  0.2652
  149RES    O6241798   1.302   1.322   4.435 -0.9162  0.4699  0.3884
  149RES    C6341799   1.345   1.239   4.536  0.3488 -0.7474 -0.5648
  149RES    H6441800   1.225   1.190   4.064 -1.6022 -1.1830  0.2122
  149RES    H6541801   1.056   1.247   4.117  0.3748 -2.0153 -2.0930
  149RES    H6641802   1.314   1.382   4.172  0.3664  1.4033  1.0076
  149RES    H6741803   1.169   1.194   4.339  0.5111 -0.8421  2.2190
  149RES    H6841804   1.338   1.189   4.287 -2.1763 -0.8156 -1.8746
  149RES    H6941805   1.254   1.222   4.594 -0.2802 -1.4008 -1.7388
  149RES    H7041806   1.410   1.300   4.598  2.5680 -3.2895 -0.2765
  149RES    H7141807   1.388   1.143   4.506  0.4073 -1.0363  0.4291
  149RES    O7241808   1.139   1.443   4.260  0.0143  0.0703  0.7121
  149RES    C7341809   1.199   1.572   4.243  0.3004 -0.1157 -0.3013
  149RES    C7441810   1.109   1.692   4.272  0.4131  0.3298 -0.3215
  149RES    C7541811   1.016   1.647   4.393  0.2168  0.0483 -0.0518
  149RES    O7641812   0.985   1.762   4.474 -0.4866  0.1677 -0.1033
  149RES    C7741813   0.882   1.841   4.415 -0.4737  0.0412  0.0996
  149RES    H7841814   1.283   1.575   4.313  0.6141 -1.3771 -0.6154
  149RES    H7941815   1.242   1.584   4.143 -0.8895  3.0302 -0.5094
  149RES    H8041816   1.186   1.762   4.303  2.4269 -1.2199 -1.7783
  149RES    H8141817   1.078   1.590   4.462 -0.3758  1.4770  1.6789
  149RES    H8241818   0.936   1.581   4.359  0.0645  0.3215 -0.2195
  149RES    H8341819   0.897   1.930   4.476 -2.5629  2.3188 -2.5839
  149RES    H8441820   0.787   1.790   4.428  0.1448 -1.5194 -1.2470
  149RES    H8541821   0.899   1.869   4.311 -1.9091 -0.9149 -0.3935
  149RES    O8641822   1.038   1.728   4.153  0.4680  0.1166  0.1376
  149RES    C8741823   0.949   1.635   4.082 -0.5148 -0.3400 -0.2907
  149RES    C8841824   0.916   1.692   3.943 -0.2097 -0.1922 -0.0678
  149RES    C8941825   0.881   1.584   3.847  0.9312  0.5246 -0.0828
  149RES    O9041826   0.779   1.490   3.885 -0.1774 -0.4585 -0.3738
  149RES    C9141827   0.785   1.361   3.825 -0.4702  0.7429  0.1365
  149RES    H9241828   0.994   1.536   4.077  1.0543  0.2062  2.1271
  149RES    H9341829   0.850   1.617   4.125 -0.4464 -0.9120 -0.3623
  149RES    H9441830   1.013   1.726   3.907 -0.2716 -0.4503 -0.4834
  149RES    H9541831   0.843   1.627   3.754  2.0417 -1.3597 -1.4288
  149RES    H9641832   0.966   1.518   3.833  1.5075  1.2869 -0.1928
  149RES    H9741833   0.690   1.313   3.851  0.2704 -0.0799  1.4161
  149RES    H9841834   0.797   1.356   3.717  0.9406  0.2262  0.3073
  149RES    H9941835   0.855   1.295   3.877 -2.0846  0.2755  1.7772
  149RES   O10041836   0.827   1.804   3.942 -0.3427 -0.6306 -0.7227
  149RES   C10141837   0.869   1.926   3.996 -0.4448 -0.4682  0.1171
  149RES   C10241838   0.750   2.022   3.963 -0.3217  0.6724  0.4686
  149RES   C10341839   0.799   2.164   3.923 -0.5798 -0.2025 -0.9971
  149RES   O10441840   0.901   2.153   3.819  0.4778 -0.3444  0.6487
  149RES   C10541841   0.920   2.273   3.754 -0.4303  0.1668  0.0369
  149RES   H10641842   0.971   1.948   3.963 -0.3510 -0.0392  0.6921
  149RES   H10741843   0.867   1.924   4.105 -0.9888 -4.3755  0.1219
  149RES   H10841844   0.700   1.988   3.873  0.6505  0.7193 -0.0977
  149RES   H10941845   0.833   2.214   4.013  0.6518 -0.1803 -1.4679
  149RES   H11041846   0.713   2.225   3.895  0.6731  1.2136 -1.7851
  149RES   H11141847   1.013   2.277   3.697 -0.4137  4.9339  0.1297
  149RES   H11241848   0.949   2.359   3.815 -0.1748  1.9881 -2.5645
  149RES   H11341849   0.842   2.307   3.685 -0.9524  0.0904  0.5831
  149RES   O11441850   0.665   2.034   4.082  0.0383 -0.0586 -0.1815
  149RES   C11541851   0.595   1.917   4.118 -0.1927  0.3992  0.0850
  149RES   C11641852   0.492   1.937   4.230 -0.1461 -0.4008 -0.1808
  149RES   C11741853   0.401   1.810   4.237  0.7493 -0.2823  0.0856
  149RES   O11841854   0.284   1.835   4.321 -0.4335 -0.3603 -0.6138
  149RES   C11941855   0.190   1.733   4.332  0.3759 -0.2966  0.1002
  149RES   H12041856   0.534   1.891   4.032 -0.9610 -0.9543  1.0278
  149RES   H12141857   0.654   1.827   4.134 -0.4484 -0.2938 -2.6423
  149RES   H12241858   0.422   2.013   4.197  1.7056  0.1589 -2.9385
  149RES   H12341859   0.375   1.779   4.136  2.2627  1.2977 -0.8040
  149RES   H12441860   0.468   1.732   4.273  2.1390  0.1547 -1.4920
  149RES   H12541861   0.120   1.765   4.410  0.3640 -2.7083  1.1222
  149RES   H12641862   0.237   1.640   4.362 -1.0548 -1.1636 -0.2817
  149RES   H12741863   0.135   1.720   4.239 -0.5490  1.8755  0.2868
  149RES   O12841864   0.559   1.952   4.354 -0.1510  0.0823  0.4813
  149RES   C12941865   0.486   2.022   4.458 -0.4522 -0.0667  0.2536
  149RES   C13041866   0.574   2.085   4.558 -1.0574  0.1127 -0.6288
  149RES   C13141867   0.498   2.110   4.692  0.2133 -0.7077 -0.8286
  149RES   O13241868   0.601   2.122   4.792  0.4979 -0.7846  0.2691
  149RES   C13341869   0.633   2.263   4.818 -0.4848 -0.1236 -0.0654
  149RES   H13441870   0.431   2.106   4.416 -1.4021 -0.3557  0.9064
  149RES   H13541871   0.413   1.955   4.503 -0.1329 -0.5563  0.0426
  149RES   H13641872   0.652   2.011   4.576 -0.0720  1.4273  0.6083
  149RES   H13741873   0.433   2.027   4.719 -0.6596  0.3929  0.5134
  149RES   H13841874   0.423   2.188   4.679 -1.8139 -2.5483 -0.4784
  149RES   H13941875   0.741   2.264   4.836 -0.5761 -1.6244  0.6591
  149RES   H14041876   0.610   2.321   4.729 -1.0501  0.1526  0.2634
  149RES   H14141877   0.579   2.295   4.907 -1.1049 -1.0488 -0.0995
  149RES   O14241878   0.619   2.212   4.499 -0.1944 -0.4828  0.1379
  149RES   C14341879   0.744   2.193   4.430  0.5646 -0.1093  0.2303
  149RES   C14441880   0.791   2.332   4.383 -0.4275 -0.2099 -0.8040
  149RES   C14541881   0.793   2.447   4.492 -0.4675  0.7108  0.6008
  149RES   O14641882   0.871   2.563   4.465  0.2411 -0.8011  0.1004
  149RES   C14741883   0.873   2.666   4.559 -0.0165 -0.1787  0.1780
  149RES   H14841884   0.807   2.157   4.511 -0.4732  1.4068  1.7440
  149RES   H14941885   0.738   2.120   4.348 -0.3977 -1.2413  1.2817
  149RES   H15041886   0.890   2.322   4.337  0.3526 -0.4275  0.8787
  149RES   H15141887   0.833   2.415   4.589  1.0269 -1.1057 -0.5911
  149RES   H15241888   0.690   2.481   4.501 -0.6218  0.4951 -0.3354
  149RES   H15341889   0.786   2.730   4.576  0.4341  0.2354  0.9462
  149RES   H15441890   0.954   2.733   4.531  0.1067  0.3443  1.7471
  149RES   H15541891   0.904   2.643   4.661 -1.0160 -0.7460  0.3698
  149RES   O15641892   0.705   2.366   4.276 -0.0420 -0.4904  0.7894
  149RES   C15741893   0.751   2.477   4.197  0.4478 -0.2362 -0.0053
  149RES   C15841894   0.639   2.483   4.092 -0.1687  0.3347  0.3748
  149RES   C15941895   0.698   2.508   3.955  0.1953  0.2495 -0.6609
  149RES   O16041896   0.597   2.496   3.856 -0.4246  0.0895 -0.0439
  149RES   C16141897   0.631   2.558   3.735  0.2893 -0.1726  0.1518
  149RES   H16241898   0.762   2.574   4.245 -0.1241  1.0040 -2.2756
  149RES   H16341899   0.850   2.458   4.154  0.5012 -2.2776  0.9994
  149RES   H16441900   0.580   2.391   4.095  2.9310 -1.6837  1.7058
  149RES   H16541901   0.751   2.603   3.966  0.5924 -0.0542  0.1109
  149RES   H16641902   0.779   2.438   3.935 -0.2720 -0.8237  1.1306
  149RES   H16741903   0.600   2.663   3.738 -2.9748 -1.0784  0.2141
  149RES   H16841904   0.572   2.523   3.651  1.5142  1.7215 -1.5353
  149RES   H16941905   0.737   2.556   3.712 -0.0316 -1.0030 -1.2566
  149RES   O17041906   0.561   2.597   4.133  0.3717 -0.0070 -0.0367
  149RES   C17141907   0.435   2.598   4.077  0.8061  0.5879 -0.4977
  149RES   C17241908   0.341   2.622   4.193 -0.1439  0.0773 -0.0038
  149RES   C17341909   0.197   2.618   4.156  0.3816  0.3565  0.2698
  149RES   O17441910   0.110   2.641   4.262 -0.3086 -0.8343  0.1503
  149RES   C17541911   0.061   2.774   4.266  0.3732  0.2194  0.3209
  149RES   H17641912   0.406   2.508   4.023 -1.0901 -0.4979  2.2178
  149RES   H17741913   0.435   2.676   4.001 -0.1846  0.1654 -0.9438
  149RES   H17841914   0.354   2.544   4.268  0.7221  0.5120  0.3008
  149RES   H17941915   0.174   2.686   4.074 -1.0354  2.2646  2.2178
  149RES   H18041916   0.179   2.521   4.109 -1.1384  1.1359 -0.7981
  149RES   H18141917   0.008   2.783   4.172  1.9927 -1.3044 -0.7719
  149RES   H18241918   0.138   2.848   4.291  0.1374  0.7474 -0.5199
  149RES   H18341919   7.812   2.771   4.353  0.5041 -1.8975  0.3808
  149RES   O18441920   0.366   2.756   4.242  0.1746  0.1367 -0.1055
  149RES   C18541921   0.410   2.754   4.374 -0.0526  0.8345  0.0498
  149RES   C18641922   0.406   2.899   4.430  0.1141 -0.0208  0.2074
  149RES   C18741923   0.550   2.950   4.418  0.3406 -0.2065 -0.6303
  149RES   O18841924   0.556   3.093   4.428  0.3660  0.5226  0.0656
  149RES   C18941925   0.549   3.132   4.565 -0.3362 -0.0063 -0.0966
  149RES   H19041926   0.501   2.694   4.377 -1.0114 -0.5806  2.1686
  149RES   H19141927   0.341   2.694   4.434  1.6270  0.5754  1.7585
  149RES   H19241928   0.352   2.955   4.354  0.5442  1.8320  1.2436
  149RES   H19341929   0.580   2.925   4.317  0.4222  1.7565 -1.1190
  149RES   H19441930   0.616   2.902   4.491 -0.0101  0.0454 -0.1385
  149RES   H19541931   0.614   3.063   4.620 -0.4606  0.0229  0.0841
  149RES   H19641932   0.589   3.233   4.572 -0.1302  0.0016 -1.2205
  149RES   H19741933   0.449   3.118   4.607  0.0829 -1.1212  0.5461
  149RES   O19841934   0.349   2.905   4.560  0.7942 -0.3900  0.1171
  149RES   C19941935   0.205   2.915   4.555 -0.3996  0.0900  0.3084
  149RES   C20041936   0.132   2.939   4.695 -0.8373  0.2544  0.3865
  149RES   C20141937   7.802   2.919   4.690 -0.0382  1.0159 -0.1744
  149RES   O20241938   7.758   2.989   4.580  0.3671  0.3277 -0.6454
  149RES   C20341939   7.622   2.972   4.565 -0.6345 -0.3466 -0.8173
  149RES   H20441940   0.167   2.827   4.503 -0.3455  0.4687 -0.3833
  149RES   H20541941   0.183   2.999   4.490 -0.3593  1.7211  2.3494
  149RES   H20641942   0.175   2.861   4.758  0.4481  0.7258  0.0938
  149RES   H20741943   7.779   2.813   4.679 -2.3991  1.4578  0.0662
  149RES   H20841944   7.748   2.961   4.776 -1.4212  2.4528 -1.6967
  149RES   H20941945   7.564   2.981   4.656 -0.5955 -3.2039 -0.4745
  149RES   H21041946   7.612   2.875   4.517 -1.5859 -0.2234 -0.8860
  149RES   H21141947   7.586   3.051   4.498 -2.7884  1.6281  2.5416
  149RES   O21241948   0.173   3.076   4.740 -0.4643 -0.3795 -0.2865
  149RES   C21341949   0.147   3.085   4.880  0.4717  0.6109 -0.5280
  149RES   C21441950   0.256   3.168   4.945 -0.1284  0.1825  0.1646
  149RES   C21541951   0.271   3.135   5.091  0.2526 -0.2069  0.1950
  149RES   O21641952   0.340   3.011   5.087  0.5552 -0.4668 -0.3142
  149RES   C21741953   0.390   2.979   5.222 -0.9316  0.0638 -0.1702
  149RES   H21841954   0.153   2.988   4.930 -0.8337  1.0524  0.5114
  149RES   H21941955   0.050   3.126   4.909  1.3545  2.0685  0.4271
  149RES   H22041956   0.358   3.150   4.909 -0.3932 -0.8504 -0.1025
  149RES   H22141957   0.327   3.212   5.144 -2.6521  2.0254  0.1403
  149RES   H22241958   0.174   3.111   5.136 -0.0991  1.0466  0.1326
  149RES   H22341959   0.461   2.897   5.219 -2.4218 -1.2423 -0.2927
  149RES   H22441960   0.314   2.951   5.296 -0.2556  1.6600  1.1512
  149RES   H22541961   0.449   3.059   5.266 -0.5872  1.0070 -2.2696
  149RES   O22641962   0.223   3.306   4.938  0.0897  0.2303 -0.2262
  149RES   C22741963   0.284   3.357   4.821  0.0835  0.2006  0.2287
  149RES   C22841964   0.243   3.507   4.784 -0.2731 -0.1340  0.2255
  149RES   C22941965   0.363   3.593   4.745 -0.0005  0.2449  0.6907
  149RES   O23041966   0.321   3.723   4.713 -0.0683 -0.4427 -0.0751
  149RES   C23141967   0.417   3.820   4.672  0.4836 -0.4259  0.3492
  149RES   H23241968   0.272   3.301   4.728 -2.5490  1.4576 -0.2233
  149RES   H23341969   0.387   3.368   4.855  0.3504 -0.4902 -0.3230
  149RES   H23441970   0.188   3.536   4.874  2.8361  0.1696  2.1096
  149RES   H23541971   0.403   3.542   4.657 -1.9012 -0.4248  0.1965
  149RES   H23641972   0.433   3.582   4.828  0.8263 -3.0864 -0.3454
  149RES   H23741973   0.473   3.872   4.749  0.7320  1.3223 -0.9785
  149RES   H23841974   0.349   3.894   4.629  1.3301 -0.6094 -1.3664
  149RES   H23941975   0.481   3.775   4.596 -0.6684  1.3807 -1.7421
  149RES   O24041976   0.161   3.497   4.667  0.2793  0.2738 -0.2476
  149RES   C24141977   0.031   3.445   4.686  0.3166  0.1098 -0.2722
  149RES   C24241978   7.745   3.468   4.566 -0.1356 -0.8041  0.5499
  149RES   C24341979   7.630   3.373   4.572 -0.0832 -0.0232  0.1273
  149RES   O24441980   7.572   3.357   4.705 -0.3116 -0.3805 -0.2524
  149RES   C24541981   7.469   3.449   4.729 -0.7531  0.1966  0.4660
  149RES   H24641982   7.809   3.488   4.778 -2.4519 -1.5151 -0.6302
  149RES   H24741983   0.054   3.340   4.701  0.0245  0.4616  3.0153
  149RES   H24841984   7.785   3.461   4.465 -0.3039  0.8224  0.3592
  149RES   H24941985   7.559   3.387   4.491  1.5304 -0.0352 -1.3082
  149RES   H25041986   7.672   3.276   4.546 -1.3535  0.3104 -3.4457
  149RES   H25141987   7.468   3.470   4.836 -3.6697  2.1196  0.1239
  149RES   H25241988   7.372   3.401   4.715 -0.7513 -0.2747  2.0214
  149RES   H25341989   7.469   3.541   4.671 -2.3119  0.9282  1.5722
  149RES   O25441990   7.707   3.597   4.576  0.6846 -0.6387 -0.1888
  149RES   C25541991   7.796   3.691   4.518  0.2255 -0.1049 -0.7695
  149RES   C25641992   7.737   3.830   4.546  0.4864  0.1912  0.3417
  149RES   C25741993   0.036   3.935   4.533  0.1092  0.3150  0.0487
  149RES   O25841994   0.001   4.052   4.594  0.4384  0.4677  0.8903
  149RES   C25941995   0.107   4.148   4.587  0.2341 -0.4318 -0.2377
  149RES   H26041996   0.084   3.689   4.547 -0.4701  3.5822  2.3017
  149RES   H26141997   7.805   3.681   4.410 -0.0968  1.0657 -0.9072
  149RES   H26241998   7.681   3.829   4.640  0.6478 -2.0993  0.4353
  149RES   H26341999   0.133   3.908   4.574 -1.2431 -0.9154  2.5495
  149RES   H26442000   0.047   3.961   4.428  2.0388 -1.7482 -0.2971
  149RES   H26542001   0.208   4.110   4.601 -0.2542 -0.9960  2.0041
  149RES   H26642002   0.089   4.226   4.662 -0.4991  1.7644 -2.6317
  149RES   H26742003   0.106   4.209   4.496 -0.1113  1.2990  0.8915
  149RES   O26842004   7.637   3.865   4.447  0.1101 -0.4505 -0.3953
  149RES   C26942005   7.527   3.775   4.449  0.2901 -0.0614  0.7587
  149RES   C27042006   7.425   3.816   4.346  0.2491  0.3622  0.4709
  149RES   C27142007   7.292   3.751   4.368 -0.3659 -0.0915  0.1369
  149RES   O27242008   7.233   3.741   4.243  0.5803 -0.1191 -0.1267
  149RES   C27342009   7.105   3.681   4.245  0.3828 -0.1145 -0.2521
  149RES   H27442010   7.488   3.778   4.551 -0.7717  3.1167  0.2908
  149RES   H27542011   7.556   3.671   4.434 -1.0420 -0.6842  2.3269
  149RES   H27642012   7.416   3.923   4.334 -0.0625  0.2469 -0.3193
  149RES   H27742013   7.223   3.813   4.425  1.8782  2.3327  0.3637
  149RES   H27842014   7.303   3.650   4.408 -1.8801 -1.0661 -1.8220
  149RES   H27942015   7.098   3.580   4.286  2.5678 -1.2919 -2.6459
  149RES   H28042016   7.056   3.675   4.147 -0.4584  1.2927  0.0606
  149RES   H28142017   7.037   3.739   4.308  0.4116  0.6334 -0.8996
  149RES   H28242018   7.473   3.779   4.255  0.4232  2.7283 -0.4347
  150RES     O142019   0.690   5.673   4.888 -0.4129  0.2286  0.5321
  150RES     C242020   0.632   5.747   4.998 -0.6130 -0.0424  0.2464
  150RES     C342021   0.737   5.840   5.058  0.4850  0.1465 -0.0623
  150RES     C442022   0.734   5.976   4.980  0.2342 -0.0816 -0.6709
  150RES     O542023   0.844   6.059   5.020  0.1891 -0.1312  0.0504
  150RES     C642024   0.861   6.167   4.941 -1.0186 -0.0266 -0.0019
  150RES     H742025   0.548   5.805   4.960 -0.2881  1.1714  1.3325
  150RES     H842026   0.610   5.667   5.069  0.8001 -0.8803 -0.2382
  150RES     H942027   0.831   5.787   5.068 -0.9095 -2.2686  0.7023
  150RES    H1042028   0.637   6.025   4.988  0.2110  0.0992 -1.9806
  150RES    H1142029   0.754   5.953   4.875 -0.7752  1.1893 -1.1566
  150RES    H1242030   0.772   6.231   4.936  0.1014  1.8964  3.0888
  150RES    H1342031   0.946   6.216   4.990 -0.8606  1.4973 -1.7224
  150RES    H1442032   0.889   6.148   4.838 -1.2688  0.3374 -0.1371
  150RES    H1542033   0.714   5.586   4.917  0.0617 -1.1386 -3.6661
  150RES    O1642034   0.694   5.870   5.187  0.2670 -0.3177  0.2124
  150RES    C1742035   0.750   5.787   5.287 -0.1705 -0.2294 -0.3952
  150RES    C1842036   0.681   5.822   5.415 -0.8882 -0.2105  0.3503
  150RES    C1942037   0.686   5.974   5.431 -0.3629 -0.2586 -0.0660
  150RES    O2042038   0.627   6.015   5.552  0.0384  0.2363 -0.5489
  150RES    C2142039   0.640   6.153   5.585 -0.3366 -0.1296  0.4284
  150RES    H2242040   0.855   5.813   5.291 -0.1808 -0.1055 -0.8697
  150RES    H2342041   0.753   5.685   5.250 -0.8580 -0.3294 -0.1930
  150RES    H2442042   0.749   5.774   5.486  1.4588  0.5418 -1.3417
  150RES    H2542043   0.791   6.001   5.440 -0.1049 -0.7534 -1.3646
  150RES    H2642044   0.649   6.034   5.348  1.5613  1.1097  0.0575
  150RES    H2742045   0.613   6.218   5.501 -3.4592 -1.2327  0.5115
  150RES    H2842046   0.749   6.159   5.590 -0.3573 -1.1601  2.9689
  150RES    H2942047   0.583   6.180   5.674  1.8962  1.4257  1.4377
  150RES    O3042048   0.546   5.774   5.417  0.2299  0.4382 -0.5577
  150RES    C3142049   0.508   5.691   5.528 -0.2396  0.4905  0.1119
  150RES    C3242050   0.364   5.631   5.509  0.7630 -0.5004  0.7647
  150RES    C3342051   0.314   5.562   5.633 -0.1471 -0.3213  0.9196
  150RES    O3442052   0.178   5.523   5.611  0.0173 -0.0491  0.9244
  150RES    C3542053   0.126   5.455   5.727 -1.2841  0.5145 -0.1089
  150RES    H3642054   0.576   5.607   5.544  0.6142  1.7422  3.8233
  150RES    H3742055   0.507   5.736   5.628  2.5891 -0.4994  0.6358
  150RES    H3842056   0.306   5.714   5.469  0.8343  0.1076  1.8884
  150RES    H3942057   0.314   5.641   5.709 -0.1020  0.5334  0.0331
  150RES    H4042058   0.381   5.480   5.659 -0.0637 -0.4900  0.1570
  150RES    H4142059   0.120   5.520   5.814 -2.0791  0.3652 -0.0501
  150RES    H4242060   0.168   5.356   5.746 -1.3644  0.6745  0.9003
  150RES    H4342061   0.022   5.429   5.707 -1.3886  0.4234  0.5759
  150RES    O4442062   0.375   5.527   5.414  0.1117 -0.4533  0.0176
  150RES    C4542063   0.382   5.568   5.276  0.6044  0.0737 -0.2159
  150RES    C4642064   0.324   5.462   5.178 -0.5942 -0.3585 -0.0216
  150RES    C4742065   0.371   5.491   5.038  0.7856 -0.9938 -0.8938
  150RES    O4842066   0.284   5.445   4.931  0.3528 -0.1006  0.7230
  150RES    C4942067   0.337   5.486   4.804 -0.0665  0.6149  0.0080
  150RES    H5042068   0.487   5.584   5.255  0.9583 -2.6855 -0.7130
  150RES    H5142069   0.326   5.659   5.251 -0.9771 -1.1898 -1.4107
  150RES    H5242070   0.216   5.466   5.169 -0.5428  1.3859 -0.0802
  150RES    H5342071   0.376   5.600   5.030 -1.0471 -0.7408  1.0131
  150RES    H5442072   0.476   5.466   5.027  1.3052  0.5752  0.3255
  150RES    H5542073   0.307   5.588   4.785  1.2945  1.3761  1.7306
  150RES    H5642074   0.292   5.424   4.726 -3.2509  1.3454  1.1735
  150RES    H5742075   0.445   5.480   4.793  0.0047  1.4398  0.2081
  150RES    O5842076   0.378   5.336   5.214 -0.2586 -0.3606 -0.4791
  150RES    C5942077   0.299   5.259   5.299  0.1449  0.7746  0.6197
  150RES    C6042078   0.384   5.153   5.381 -0.0532 -0.9063  0.3025
  150RES    C6142079   0.467   5.231   5.476  0.0612  0.3761 -0.6796
  150RES    O6242080   0.528   5.140   5.567 -0.4060  0.5153  0.7281
  150RES    C6342081   0.663   5.119   5.541  0.0246 -0.0179 -0.4349
  150RES    H6442082   0.218   5.209   5.247  2.7433 -1.0217 -1.8677
  150RES    H6542083   0.245   5.320   5.371 -0.4047 -1.7564  2.4210
  150RES    H6642084   0.314   5.082   5.424 -1.7075 -0.5801 -1.7496
  150RES    H6742085   0.526   5.308   5.425 -1.2448  0.1114 -2.6264
  150RES    H6842086   0.397   5.286   5.539 -0.4917  2.4699 -3.0766
  150RES    H6942087   0.699   5.079   5.636 -1.5354 -0.6900 -0.1102
  150RES    H7042088   0.714   5.214   5.529 -1.1728  1.1226  2.8009
  150RES    H7142089   0.665   5.053   5.454 -1.4628  1.5245 -1.6843
  150RES    O7242090   0.477   5.085   5.297  0.0366 -0.2071 -0.3457
  150RES    C7342091   0.429   4.978   5.217 -0.1422  0.3675  0.0917
  150RES    C7442092   0.538   4.908   5.120 -0.8322  0.2327  0.4892
  150RES    C7542093   0.628   4.827   5.219  0.7020  0.6869  0.2453
  150RES    O7642094   0.676   4.719   5.145 -0.6226  0.2434  0.6052
  150RES    C7742095   0.753   4.636   5.219  0.8140  0.9704 -0.5517
  150RES    H7842096   0.377   4.915   5.289  0.4154  2.4331  2.4053
  150RES    H7942097   0.340   5.021   5.171 -0.0830 -1.3073 -1.6505
  150RES    H8042098   0.483   4.843   5.051 -1.5139  0.1506  1.1014
  150RES    H8142099   0.585   4.789   5.312 -1.3894 -0.1488 -1.0002
  150RES    H8242100   0.716   4.886   5.240  1.2079 -0.1473  0.4905
  150RES    H8342101   0.706   4.602   5.311 -0.1120  2.2346 -0.5342
  150RES    H8442102   0.847   4.678   5.254 -0.4826  0.1973  4.1580
  150RES    H8542103   0.776   4.553   5.153 -1.3065  0.1079 -0.2495
  150RES    O8642104   0.612   5.009   5.053  0.3231  0.4508 -0.2350
  150RES    C8742105   0.531   5.095   4.967 -0.1929 -0.4768 -0.4490
  150RES    C8842106   0.611   5.220   4.914 -0.7034 -0.0920 -0.4859
  150RES    C8942107   0.703   5.290   5.016  0.0976 -0.1585 -0.6695
  150RES    O9042108   0.761   5.403   4.962  0.6217 -0.3416 -0.2044
  150RES    C9142109   0.878   5.444   5.038  0.1706  0.3059  0.3421
  150RES    H9242110   0.498   5.028   4.887 -1.0544 -0.1676 -0.3603
  150RES    H9342111   0.444   5.124   5.027 -0.2077 -2.2666  0.4174
  150RES    H9442112   0.530   5.288   4.886 -0.2135  1.6064  2.0297
  150RES    H9542113   0.654   5.312   5.111  0.6135 -2.3257  0.1317
  150RES    H9642114   0.781   5.218   5.043  0.5766  0.9060  0.9049
  150RES    H9742115   0.942   5.356   5.049  0.3422  0.4027  0.1267
  150RES    H9842116   0.947   5.515   4.992 -0.3060 -0.8605 -2.2945
  150RES    H9942117   0.858   5.477   5.139  0.3105  0.3489  0.3556
  150RES   O10042118   0.682   5.179   4.799  0.3689  0.3864  0.3309
  150RES   C10142119   0.663   5.279   4.691 -0.2863  0.1007 -0.3696
  150RES   C10242120   0.698   5.202   4.561 -0.0460  1.1787  0.5773
  150RES   C10342121   0.749   5.292   4.449 -0.0242  0.6164 -0.0171
  150RES   O10442122   0.673   5.411   4.430 -0.4158 -0.3903 -0.6719
  150RES   C10542123   0.724   5.498   4.334 -0.1521  0.5785 -0.0594
  150RES   H10642124   0.725   5.368   4.702 -0.1374 -0.3587  2.7590
  150RES   H10742125   0.564   5.320   4.673 -0.1103  0.2913 -0.9289
  150RES   H10842126   0.780   5.130   4.575 -0.4142  0.4612 -0.9043
  150RES   H10942127   0.787   5.248   4.357  0.4936 -0.3523  0.6533
  150RES   H11042128   0.845   5.333   4.482 -0.7905  1.9593  0.6124
  150RES   H11142129   0.645   5.565   4.300 -1.0691  0.3830  1.6212
  150RES   H11242130   0.772   5.444   4.253  0.5882 -1.2261  1.5421
  150RES   H11342131   0.793   5.568   4.381 -0.3845 -0.4842  1.9411
  150RES   O11442132   0.580   5.152   4.495  0.4889  0.2224 -0.0191
  150RES   C11542133   0.507   5.057   4.563  0.8296 -0.1991  0.3073
  150RES   C11642134   0.429   4.965   4.460  0.0424 -0.6074 -0.3330
  150RES   C11742135   0.360   4.849   4.523 -0.2774 -0.1334 -0.2901
  150RES   O11842136   0.343   4.745   4.428 -0.0064 -0.5252 -0.7501
  150RES   C11942137   0.293   4.622   4.489 -0.4806  0.5909 -0.1412
  150RES   H12042138   0.577   4.993   4.617  0.0071 -2.2608 -1.0091
  150RES   H12142139   0.449   5.111   4.638  2.0893 -0.3690  1.4404
  150RES   H12242140   0.507   4.938   4.390  0.4160  0.1568 -0.2122
  150RES   H12342141   0.423   4.810   4.603  0.7119  1.4591 -0.2885
  150RES   H12442142   0.271   4.876   4.580 -0.5269  0.4264 -0.9375
  150RES   H12542143   0.367   4.575   4.553 -0.6412  2.0356  1.1410
  150RES   H12642144   0.274   4.546   4.414  0.6265 -0.6328  0.7980
  150RES   H12742145   0.202   4.653   4.541  0.1760  2.2725  0.0424
  150RES   O12842146   0.322   5.039   4.410 -0.0970 -0.5725 -0.0096
  150RES   C12942147   0.345   5.101   4.290 -0.0796  0.9125 -0.7205
  150RES   C13042148   0.246   5.218   4.273 -0.3387  0.0216 -0.5767
  150RES   C13142149   0.277   5.329   4.380 -0.0948 -0.1509 -0.1037
  150RES   O13242150   0.236   5.463   4.351  0.1216 -0.4984 -0.0746
  150RES   C13342151   0.233   5.560   4.457  0.0974 -0.1850  0.1968
  150RES   H13442152   0.451   5.129   4.297 -0.5086  2.2773  0.8811
  150RES   H13542153   0.327   5.024   4.215  1.0302  0.4505 -0.5365
  150RES   H13642154   0.278   5.262   4.179 -0.3715  0.9616 -0.1562
  150RES   H13742155   0.384   5.331   4.403  0.0280 -0.9688 -0.5989
  150RES   H13842156   0.236   5.294   4.475 -2.0392  1.7285 -0.2261
  150RES   H13942157   0.200   5.656   4.418 -0.9302 -1.1731 -1.3953
  150RES   H14042158   0.164   5.529   4.535  1.6510 -1.1893  1.2090
  150RES   H14142159   0.333   5.574   4.500 -0.6462 -0.2030  1.9987
  150RES   O14242160   0.108   5.177   4.253 -0.9777 -0.2923  0.3801
  150RES   C14342161   0.022   5.282   4.201  0.0427  0.3519 -0.0174
  150RES   C14442162   7.689   5.242   4.220  0.5017 -0.5117  0.6170
  150RES   C14542163   7.599   5.317   4.116 -0.0093 -0.3063 -0.0791
  150RES   O14642164   7.469   5.263   4.110 -0.7596  1.0624 -0.2398
  150RES   C14742165   7.385   5.303   4.004  0.5578  0.4773  0.0009
  150RES   H14842166   0.048   5.370   4.259  1.2564 -0.4026  0.6048
  150RES   H14942167   0.053   5.298   4.098 -0.2005 -1.2455 -0.3509
  150RES   H15042168   7.687   5.134   4.208 -0.3841 -0.4723  0.3528
  150RES   H15142169   7.654   5.316   4.021  0.2184  0.3977  0.0387
  150RES   H15242170   7.585   5.422   4.141 -0.3418 -0.2909 -0.3351
  150RES   H15342171   7.297   5.239   4.004  1.8203 -1.2936 -0.6075
  150RES   H15442172   7.434   5.284   3.909 -0.7397  0.1549 -0.6095
  150RES   H15542173   7.339   5.402   4.003  0.7120  0.5482 -0.0512
  150RES   O15642174   7.644   5.290   4.344  0.5111  0.4305  0.3694
  150RES   C15742175   7.703   5.243   4.461  0.2515  0.1916  0.6780
  150RES   C15842176   7.613   5.267   4.581 -0.0165 -0.2852  0.2139
  150RES   C15942177   7.692   5.279   4.712 -0.3605 -0.1435  0.5643
  150RES   O16042178   7.634   5.372   4.793 -0.0717 -0.5256  0.3145
  150RES   C16142179   7.663   5.346   4.927 -0.0752  0.4835  0.8349
  150RES   H16242180   7.727   5.138   4.445 -1.4804 -0.3125  1.2158
  150RES   H16342181   7.795   5.299   4.477 -0.0899  0.7219  0.8116
  150RES   H16442182   7.554   5.358   4.569 -2.0284 -1.4294  1.0567
  150RES   H16542183   7.701   5.183   4.763 -2.0865 -0.8424 -0.4181
  150RES   H16642184   7.793   5.309   4.684 -0.5388 -1.1980 -1.2452
  150RES   H16742185   7.631   5.248   4.961  0.1503 -0.9482 -2.8875
  150RES   H16842186   7.607   5.410   4.995  0.9635  1.6929  0.5662
  150RES   H16942187   7.770   5.363   4.942 -0.5973  1.6045  3.5425
  150RES   O17042188   7.545   5.144   4.598  0.1589 -0.5432  0.1872
  150RES   C17142189   7.428   5.139   4.513  0.3513 -0.6860 -1.3078
  150RES   C17242190   7.414   4.998   4.451 -0.3441  0.8242 -0.0619
  150RES   C17342191   7.310   4.994   4.332 -0.5404  0.4645  0.2490
  150RES   O17442192   7.293   4.865   4.275 -0.4912 -0.7011  0.3915
  150RES   C17542193   7.182   4.851   4.195  0.4233 -0.0948  0.3932
  150RES   H17642194   7.420   5.220   4.440  4.2929  2.0658  1.1570
  150RES   H17742195   7.350   5.164   4.586  1.7314 -0.6963  0.1943
  150RES   H17842196   7.509   4.970   4.406  0.5926  0.3704  2.1430
  150RES   H17942197   7.208   5.008   4.367 -1.4276 -1.2090 -1.5745
  150RES   H18042198   7.340   5.075   4.266 -1.6583  0.4512 -0.2845
  150RES   H18142199   7.090   4.860   4.251 -0.9237  0.0278 -1.7653
  150RES   H18242200   7.173   4.754   4.146  0.6492  0.3005 -0.4365
  150RES   H18342201   7.180   4.922   4.112  0.3145  0.0125  0.4885
  150RES   O18442202   7.370   4.905   4.552  0.5552 -0.1383 -0.1078
  150RES   C18542203   7.476   4.837   4.611  0.6219 -0.7918 -0.5909
  150RES   C18642204   7.420   4.763   4.742 -0.4073 -0.3795  0.6966
  150RES   C18742205   7.305   4.670   4.706  0.1461 -0.3106 -0.4512
  150RES   O18842206   7.275   4.564   4.789 -0.3931 -0.0780 -1.1523
  150RES   C18942207   7.196   4.613   4.902  0.4466 -0.4021  0.5111
  150RES   H19042208   7.562   4.900   4.635  0.3948 -1.2811  1.6209
  150RES   H19142209   7.507   4.760   4.541  0.0756  1.5563 -3.4882
  150RES   H19242210   7.496   4.707   4.797  1.7117  3.0244  1.3887
  150RES   H19342211   7.332   4.625   4.610  3.6555 -0.6723  0.6668
  150RES   H19442212   7.211   4.725   4.692  0.2536 -0.5576 -2.2373
  150RES   H19542213   7.107   4.665   4.868 -0.0241  0.7850  3.4334
  150RES   H19642214   7.160   4.539   4.974  0.8893 -3.0727 -1.8866
  150RES   H19742215   7.242   4.685   4.969 -0.5316 -0.2456  1.0176
  150RES   O19842216   7.364   4.859   4.839 -0.5620 -0.0209  0.0676
  150RES   C19942217   7.456   4.955   4.887  0.4521 -0.1161  0.2138
  150RES   C20042218   7.380   5.035   4.993  0.0819  0.6277  0.3841
  150RES   C20142219   7.285   5.135   4.907 -0.4230  0.0980 -0.0023
  150RES   O20242220   7.168   5.156   4.976 -0.1897  0.0117 -0.0153
  150RES   C20342221   7.065   5.223   4.912 -0.1696  0.3994  0.0347
  150RES   H20442222   7.499   5.025   4.816 -1.8813 -0.8344 -1.9887
  150RES   H20542223   7.533   4.895   4.936 -0.7943  0.5172  2.9859
  150RES   H20642224   7.312   4.966   5.044 -0.7386 -1.1693 -3.0071
  150RES   H20742225   7.330   5.234   4.894 -3.4437  1.6394  0.5351
  150RES   H20842226   7.268   5.094   4.807 -0.0359 -2.0101  0.7993
  150RES   H20942227   7.001   5.267   4.989  0.1945 -0.6232  0.9377
  150RES   H21042228   7.001   5.163   4.849 -1.0859  0.6486  0.7106
  150RES   H21142229   7.104   5.307   4.854  0.9508 -0.1564 -0.0182
  150RES   O21242230   7.459   5.096   5.100  0.1047  0.1304  0.5773
  150RES   C21342231   7.379   5.161   5.202 -0.5545  0.3813  0.5050
  150RES   C21442232   7.477   5.198   5.316 -0.2304  0.8397 -0.3528
  150RES   C21542233   7.580   5.299   5.275 -0.4293 -1.0042  0.0708
  150RES   O21642234   7.640   5.372   5.382 -0.5687  0.6146  0.0063
  150RES   C21742235   7.765   5.413   5.343 -0.2203 -0.0072  0.0546
  150RES   H21842236   7.301   5.093   5.238 -0.5915 -0.3112 -0.8482
  150RES   H21942237   7.341   5.254   5.159 -2.1144 -0.9391 -1.0802
  150RES   H22042238   7.411   5.244   5.390 -2.0416  2.4969 -2.9031
  150RES   H22142239   7.652   5.252   5.208 -0.9179  0.4161 -1.4872
  150RES   H22242240   7.527   5.375   5.218  3.4749  1.0630 -1.0164
  150RES   H22342241   0.001   5.321   5.317 -1.1885 -0.6400  0.3112
  150RES   H22442242   7.816   5.470   5.420 -1.7199 -1.6628  2.3229
  150RES   H22542243   7.753   5.472   5.252 -1.1511 -2.3726 -1.4023
  150RES   O22642244   7.532   5.075   5.360  0.0059  0.5209 -0.0268
  150RES   C22742245   7.603   5.071   5.482 -0.0566 -0.3848  0.3400
  150RES   C22842246   7.751   5.042   5.453  0.2778 -0.4066  0.2259
  150RES   C22942247   0.002   4.972   5.565 -0.0306  0.0648  0.1137
  150RES   O23042248   0.137   5.005   5.565 -0.1087 -0.1021  0.2553
  150RES   C23142249   0.200   4.929   5.670 -0.6650  0.1847 -0.0392
  150RES   H23242250   7.562   4.989   5.541 -0.5144 -1.1629 -1.0615
  150RES   H23342251   7.607   5.164   5.540  0.3097 -0.6446  0.7408
  150RES   H23442252   7.800   5.137   5.429 -1.4675  0.7061  0.9554
  150RES   H23542253   7.799   4.864   5.564 -2.8876  0.5428  0.7068
  150RES   H23642254   7.777   4.999   5.662 -0.9746 -3.6273  0.8235
  150RES   H23742255   0.151   4.924   5.767  0.5587 -0.6990  0.5522
  150RES   H23842256   0.305   4.954   5.684 -0.7673  0.8968 -0.5420
  150RES   H23942257   0.214   4.825   5.642 -1.9618 -0.3635  1.2775
  150RES   O24042258   7.762   4.951   5.346  0.0178  0.5386 -0.2553
  150RES   C24142259   0.029   4.993   5.238 -0.0415 -0.0314 -0.6513
  150RES   C24242260   0.050   4.875   5.143  0.6940  0.6878 -0.4085
  150RES   C24342261   0.081   4.911   4.995  0.3256  0.4073 -0.3893
  150RES   O24442262   0.194   4.989   4.970  0.0456 -0.1768  0.0286
  150RES   C24542263   0.196   5.043   4.836 -0.1538 -0.1694 -0.1257
  150RES   H24642264   0.123   5.032   5.277 -0.3262  1.0993 -1.0823
  150RES   H24742265   7.803   5.081   5.190  2.7242  2.4939  1.3428
  150RES   H24842266   7.784   4.805   5.132  1.6994 -0.4763 -0.5876
  150RES   H24942267   0.105   4.822   4.936 -2.5590  0.5973 -1.9573
  150RES   H25042268   7.812   4.961   4.951 -0.0244  0.7014  0.6110
  150RES   H25142269   0.111   5.098   4.796 -0.3530 -0.3919 -0.0088
  150RES   H25242270   0.215   4.956   4.773  0.4248 -1.0938  1.2966
  150RES   H25342271   0.275   5.117   4.829  0.3628 -0.6402  0.6454
  150RES   O25442272   0.165   4.800   5.192  0.1034 -0.1342 -0.4753
  150RES   C25542273   0.119   4.687   5.271 -0.3676  0.0171 -0.5123
  150RES   C25642274   0.129   4.562   5.190  0.2028 -0.0185 -0.5368
  150RES   C25742275   0.134   4.437   5.281 -0.2068 -0.5930 -0.0670
  150RES   O25842276   0.167   4.324   5.199 -0.2993 -0.2980  0.3583
  150RES   C25942277   0.185   4.208   5.282 -0.5598 -0.7156 -0.2497
  150RES   H26042278   0.195   4.690   5.349  0.4350  2.0516 -1.3245
  150RES   H26142279   0.024   4.707   5.322 -0.6514  1.2366 -1.4771
  150RES   H26242280   0.221   4.565   5.131 -0.3629  1.5312 -1.3543
  150RES   H26342281   0.216   4.450   5.351 -0.3157  0.9423 -0.2042
  150RES   H26442282   0.046   4.420   5.343  0.0544 -0.6717  0.2830
  150RES   H26542283   0.268   4.217   5.352  1.0238  2.6610 -2.4072
  150RES   H26642284   0.188   4.112   5.232  0.8073 -1.5423  1.3969
  150RES   H26742285   0.099   4.192   5.348  0.4218  2.0706  1.8237
  150RES   O26842286   0.009   4.546   5.108 -0.2631  0.5221  0.1944
  150RES   C26942287   0.053   4.518   4.970  0.6023  0.7785  0.3686
  150RES   C27042288   7.751   4.533   4.874  0.6138 -0.1131 -0.6858
  150RES   C27142289   7.777   4.475   4.738 -0.2899 -0.5727  0.7805
  150RES   O27242290   7.657   4.481   4.663 -0.5506 -0.0852 -0.3937
  150RES   C27342291   7.661   4.459   4.520 -0.3656  0.3209  0.1317
  150RES   H27442292   0.089   4.415   4.965  1.7660  1.2113 -0.4245
  150RES   H27542293   0.128   4.588   4.935  0.0926  0.1736 -1.9969
  150RES   H27642294   7.673   4.465   4.908 -0.9949  0.2222 -3.4845
  150RES   H27742295   0.013   4.380   4.739  2.0628  0.7094  0.7542
  150RES   H27842296   0.021   4.551   4.688 -1.0098 -0.7813 -0.4194
  150RES   H27942297   7.696   4.360   4.493  3.2372  1.3931  0.5447
  150RES   H28042298   7.722   4.534   4.469  0.3479  1.8175  3.0636
  150RES   H28142299   7.565   4.483   4.475 -0.3312  0.7850  0.3043
  150RES   H28242300   7.715   4.634   4.856  0.5900  0.0447  0.2541
  151RES     O142301   5.080   0.321   5.206  0.1248 -0.5315  0.0836
  151RES     C242302   5.025   0.195   5.259  0.1954 -0.4894 -0.2131
  151RES     C342303   5.101   0.093   5.172  0.0355 -0.6091  0.8398
  151RES     C442304   5.070   7.774   5.216  0.3475 -0.7320  0.8985
  151RES     O542305   5.173   7.685   5.195  0.5992  0.2525 -0.2545
  151RES     C642306   5.136   7.554   5.240  0.4428 -0.3025  0.1162
  151RES     H742307   5.064   0.195   5.361  1.3577  0.9790 -0.6344
  151RES     H842308   4.919   0.176   5.250  0.0579  0.8080 -1.7964
  151RES     H942309   5.206   0.111   5.195  0.1489 -0.1359 -0.0294
  151RES    H1042310   4.981   7.740   5.163  1.3992  0.0466 -1.4524
  151RES    H1142311   5.049   7.776   5.323 -1.8468  0.3125  0.4806
  151RES    H1242312   5.091   7.506   5.154 -1.1672  1.5701 -0.1154
  151RES    H1342313   5.234   7.506   5.248  0.2109 -0.6143  1.1942
  151RES    H1442314   5.082   7.558   5.334 -2.0072  2.3439 -1.3398
  151RES    H1542315   5.084   0.315   5.112  0.4998  1.1178 -0.0045
  151RES    O1642316   5.065   0.121   5.036 -0.2524 -0.5349  0.0049
  151RES    C1742317   5.119   0.031   4.946  0.8465 -0.2693  0.4889
  151RES    C1842318   5.275   0.041   4.926  0.5160  0.4270  0.2450
  151RES    C1942319   5.330   7.717   4.876 -0.4909  0.0432 -0.0441
  151RES    O2042320   5.461   7.697   4.923  0.2652 -0.5218 -0.1074
  151RES    C2142321   5.512   7.571   4.886  0.4983 -0.2737  0.0123
  151RES    H2242322   5.061   0.033   4.853  0.7076  2.6583  0.5891
  151RES    H2342323   5.101   7.744   4.973 -0.5439  0.1795  1.3207
  151RES    H2442324   5.331   0.066   5.016 -0.6026  0.3549  0.9706
  151RES    H2542325   5.275   7.637   4.926  0.3625 -1.2411 -1.1194
  151RES    H2642326   5.319   7.691   4.771  2.4733 -1.0536 -0.1443
  151RES    H2742327   5.616   7.598   4.868  0.0749  0.8070 -0.8170
  151RES    H2842328   5.469   7.512   4.806  0.2376  0.7722 -0.6200
  151RES    H2942329   5.518   7.509   4.976  0.1951  1.7419  1.4431
  151RES    O3042330   5.307   0.134   4.826  0.3172 -0.5333  0.2924
  151RES    C3142331   5.313   0.265   4.878 -1.3341  0.0823 -0.5202
  151RES    C3242332   5.448   0.286   4.945 -0.5267  0.6752  0.4351
  151RES    C3342333   5.431   0.382   5.059 -0.1101  0.2260  1.3397
  151RES    O3442334   5.331   0.487   5.048  0.3070 -0.0004  0.2171
  151RES    C3542335   5.391   0.608   5.014 -0.2426 -0.6116  0.2271
  151RES    H3642336   5.305   0.341   4.800 -0.5936 -0.2607 -0.9319
  151RES    H3742337   5.234   0.287   4.949 -0.1352 -1.3885  1.3229
  151RES    H3842338   5.499   0.201   4.991  0.8719  0.4361 -1.5010
  151RES    H3942339   5.525   0.426   5.092 -0.0088  1.2761 -0.3177
  151RES    H4042340   5.400   0.321   5.144 -4.4372  0.8466  0.3343
  151RES    H4142341   5.321   0.690   4.994  0.5420 -0.4406 -2.0731
  151RES    H4242342   5.450   0.590   4.924  0.6144 -2.1146  1.0961
  151RES    H4342343   5.450   0.647   5.097 -1.9511  1.7152  0.4252
  151RES    O4442344   5.546   0.345   4.867  0.0309  0.1957  0.2571
  151RES    C4542345   5.591   0.256   4.763 -0.2475  0.1922 -0.7181
  151RES    C4642346   5.700   0.314   4.669  0.1550 -0.1050  0.0798
  151RES    C4742347   5.758   0.202   4.584 -0.5792 -0.2260 -0.5178
  151RES    O4842348   5.887   0.250   4.536  0.4132 -0.0094 -0.2491
  151RES    C4942349   5.967   0.145   4.485  0.8640 -0.1728 -0.1736
  151RES    H5042350   5.508   0.219   4.702 -0.6858  1.4460 -0.9034
  151RES    H5142351   5.633   0.164   4.804  0.8140  0.3549 -1.4290
  151RES    H5242352   5.789   0.345   4.723  2.8381 -0.5663 -3.9158
  151RES    H5342353   5.785   0.113   4.641  2.3238  1.6822  1.1888
  151RES    H5442354   5.695   0.170   4.500  1.1851 -0.5308 -1.7510
  151RES    H5542355   6.061   0.194   4.463 -0.2023  2.6771  1.3184
  151RES    H5642356   5.925   0.106   4.391  1.9344 -2.0210  0.0973
  151RES    H5742357   5.980   0.064   4.556  0.1902  0.4171  0.6358
  151RES    O5842358   5.648   0.422   4.596 -0.3024 -0.0516 -0.0263
  151RES    C5942359   5.730   0.508   4.522  0.2617  0.3276 -0.1236
  151RES    C6042360   5.665   0.643   4.478 -0.2781 -0.4462 -0.2745
  151RES    C6142361   5.741   0.699   4.350  0.3099  0.1244  0.2935
  151RES    O6242362   5.673   0.811   4.295  0.8392 -0.2037  0.0162
  151RES    C6342363   5.734   0.930   4.342 -0.5433 -0.1542  0.1493
  151RES    H6442364   5.753   0.455   4.429 -2.1310  1.7023 -1.5438
  151RES    H6542365   5.826   0.534   4.566  0.4702  0.5094 -0.6745
  151RES    H6642366   5.559   0.625   4.458  0.4806 -3.3114 -1.9566
  151RES    H6742367   5.849   0.710   4.361  0.4300 -0.5312 -0.1633
  151RES    H6842368   5.737   0.626   4.269 -1.7166  0.5156 -0.0020
  151RES    H6942369   5.701   1.013   4.279  1.3693 -0.5072 -1.3601
  151RES    H7042370   5.842   0.940   4.333 -0.7906  1.7962 -0.8962
  151RES    H7142371   5.699   0.943   4.445 -1.1374  2.2505 -0.3234
  151RES    O7242372   5.691   0.731   4.582 -0.4719  0.0608  0.9703
  151RES    C7342373   5.587   0.731   4.679 -0.5941  0.2526  0.3008
  151RES    C7442374   5.624   0.835   4.782  1.0669 -0.6534  0.0056
  151RES    C7542375   5.704   0.781   4.899 -0.1350 -0.4473 -0.1173
  151RES    O7642376   5.779   0.880   4.961 -0.5079 -0.1491 -0.2177
  151RES    C7742377   5.863   0.841   5.070 -0.2675 -0.1627 -0.9187
  151RES    H7842378   5.487   0.758   4.647 -0.6067  1.0667  1.0290
  151RES    H7942379   5.577   0.632   4.724 -1.1685 -0.7011 -1.8957
  151RES    H8042380   5.662   0.926   4.736 -1.0184  0.4500  0.4305
  151RES    H8142381   5.777   0.708   4.864 -0.9252 -1.9296  1.2521
  151RES    H8242382   5.647   0.738   4.981  1.5521  0.0962  1.3753
  151RES    H8342383   5.936   0.911   5.109 -0.0455 -0.6965 -0.3657
  151RES    H8442384   5.912   0.747   5.043 -0.8833 -0.4399 -1.0885
  151RES    H8542385   5.789   0.822   5.149 -1.3802 -0.6388 -2.0541
  151RES    O8642386   5.494   0.880   4.842  0.0469  0.6710  0.0042
  151RES    C8742387   5.500   1.006   4.909  0.5125  0.0519  0.4111
  151RES    C8842388   5.369   1.021   4.995 -0.2608  0.3072  0.6941
  151RES    C8942389   5.368   1.137   5.099 -0.0486 -0.2645  0.8273
  151RES    O9042390   5.251   1.108   5.171  0.4642  0.2861  0.3304
  151RES    C9142391   5.219   1.180   5.288  0.5498 -0.4244 -0.3702
  151RES    H9242392   5.585   1.016   4.976  2.6518 -0.3512 -2.1321
  151RES    H9342393   5.495   1.084   4.833  1.8228  1.0748  1.3390
  151RES    H9442394   5.358   0.926   5.046 -1.1223  0.0072 -0.0223
  151RES    H9542395   5.462   1.132   5.155  0.1556  1.5280  0.6594
  151RES    H9642396   5.365   1.239   5.063  0.2548  0.2971  2.3572
  151RES    H9742397   5.120   1.157   5.327 -0.0159  1.4627 -0.6019
  151RES    H9842398   5.295   1.163   5.365 -0.7648 -0.0772  1.0310
  151RES    H9942399   5.212   1.286   5.264 -2.5227 -0.4472  0.1955
  151RES   O10042400   5.256   1.043   4.903  0.3333  0.9673  0.0117
  151RES   C10142401   5.157   0.942   4.900  0.1887  0.7272  0.8510
  151RES   C10242402   5.067   0.977   4.779 -0.1312  0.3619  0.2257
  151RES   C10342403   4.931   0.911   4.787  0.0411 -0.1728  0.2384
  151RES   O10442404   4.849   0.979   4.690  0.3541 -0.2481 -0.2119
  151RES   C10542405   4.725   0.906   4.677  0.0769  0.3710  0.2957
  151RES   H10642406   5.102   0.960   4.993 -1.0176  0.8641  0.1254
  151RES   H10742407   5.202   0.843   4.902  0.6006  0.8287 -2.0566
  151RES   H10842408   5.048   1.085   4.777  4.5945  1.2792 -1.3702
  151RES   H10942409   4.891   0.927   4.887 -0.3012  0.5925 -0.0126
  151RES   H11042410   4.932   0.810   4.746  1.1325 -0.5975  1.2791
  151RES   H11142411   4.745   0.812   4.625  0.7659  0.1052  1.0372
  151RES   H11242412   4.665   0.968   4.610 -1.0775  0.2531  1.2004
  151RES   H11342413   4.676   0.905   4.774 -0.5963  2.3031 -0.0030
  151RES   O11442414   5.119   0.932   4.658  0.3729 -0.5379  0.0213
  151RES   C11542415   5.234   1.002   4.609 -0.4099  0.3431 -0.2645
  151RES   C11642416   5.253   0.984   4.458 -0.2856 -0.8325 -0.1103
  151RES   C11742417   5.384   1.039   4.410  0.3617  0.1872 -0.3795
  151RES   O11842418   5.359   1.124   4.299  0.2065  0.1340 -0.3328
  151RES   C11942419   5.469   1.133   4.209 -0.4507 -0.4024  0.1540
  151RES   H12042420   5.227   1.110   4.621  1.0354  0.5507 -1.1477
  151RES   H12142421   5.319   0.967   4.668 -0.4896  0.6670  0.0391
  151RES   H12242422   5.164   1.030   4.415  0.7098 -0.8202 -2.2155
  151RES   H12342423   5.429   1.097   4.490 -0.7619 -2.6846  2.3959
  151RES   H12442424   5.442   0.952   4.380  1.7602  0.8651  0.2934
  151RES   H12542425   5.432   1.196   4.128  2.0995  1.1582  0.1717
  151RES   H12642426   5.499   1.036   4.168  2.6394  0.3307  0.6012
  151RES   H12742427   5.549   1.187   4.259  0.1498 -1.3634  0.2355
  151RES   O12842428   5.251   0.841   4.435  0.4740 -0.5239  0.3760
  151RES   C12942429   5.229   0.797   4.305 -0.3933  0.6988 -0.6510
  151RES   C13042430   5.093   0.845   4.248 -0.2196  0.1900 -0.0403
  151RES   C13142431   4.972   0.808   4.352 -0.0872  0.9651  0.3870
  151RES   O13242432   4.847   0.852   4.301 -0.4487 -0.3597 -0.0751
  151RES   C13342433   4.817   0.993   4.319 -0.2946 -0.0040  0.7727
  151RES   H13442434   5.304   0.838   4.238 -0.8401 -0.5419 -1.9349
  151RES   H13542435   5.232   0.689   4.293  0.5404  0.4995  1.2570
  151RES   H13642436   5.089   0.953   4.235  0.5973  0.3066  0.6409
  151RES   H13742437   4.990   0.847   4.452  0.0376 -3.2668  2.1540
  151RES   H13842438   4.966   0.701   4.373  1.7889  1.1905  2.1926
  151RES   H13942439   4.738   1.030   4.254 -0.1238 -2.3743 -0.8859
  151RES   H14042440   4.801   1.024   4.422 -0.6418 -0.1713  0.7713
  151RES   H14142441   4.902   1.044   4.274 -0.0030 -1.6087 -0.5606
  151RES   O14242442   5.074   0.770   4.125  0.3825 -0.3858 -0.3092
  151RES   C14342443   4.951   0.798   4.050 -0.5621 -0.8109 -0.3034
  151RES   C14442444   4.965   0.753   3.900  0.7975  0.7320 -0.1206
  151RES   C14542445   4.838   0.790   3.819  0.2567 -0.0586  0.4384
  151RES   O14642446   4.857   0.783   3.674 -0.6447 -0.1443 -0.6495
  151RES   C14742447   4.858   0.645   3.632 -0.2776  0.4673 -0.2010
  151RES   H14842448   4.862   0.747   4.087  0.0427 -0.3173  1.8834
  151RES   H14942449   4.937   0.906   4.052  1.9315 -0.4619  0.1694
  151RES   H15042450   5.044   0.804   3.846  1.3464  1.3807  1.2538
  151RES   H15142451   4.806   0.892   3.840 -2.1822 -0.6138 -0.3803
  151RES   H15242452   4.743   0.744   3.845 -1.0374  2.7565  0.8559
  151RES   H15342453   4.954   0.598   3.654 -0.2416  1.7970  2.6884
  151RES   H15442454   4.862   0.650   3.524  0.4488 -1.8697 -0.3052
  151RES   H15542455   4.770   0.589   3.663 -0.6774  0.1194 -1.9324
  151RES   O15642456   4.962   0.607   3.899 -0.5141  0.3813  0.4938
  151RES   C15742457   5.084   0.539   3.927  0.5876  0.5358 -0.1828
  151RES   C15842458   5.049   0.387   3.940 -0.0847 -0.3942 -1.1838
  151RES   C15942459   4.999   0.336   3.806 -0.1956  0.3880  0.3497
  151RES   O16042460   4.996   0.193   3.814 -0.1836  0.1117  0.0907
  151RES   C16142461   4.944   0.144   3.690  0.1964  0.5439  0.5249
  151RES   H16242462   5.158   0.548   3.847  0.8493  0.3290  0.0372
  151RES   H16342463   5.134   0.568   4.019  1.7368  1.7382 -1.1734
  151RES   H16442464   5.139   0.328   3.954 -0.2345 -0.3744 -0.0481
  151RES   H16542465   4.898   0.372   3.787 -0.5395 -2.5375 -4.2988
  151RES   H16642466   5.065   0.369   3.726 -0.0126 -0.2964  0.2192
  151RES   H16742467   4.844   0.184   3.669 -0.7895 -1.9000  0.4780
  151RES   H16842468   4.929   0.037   3.697  0.2245  0.5473  0.6393
  151RES   H16942469   5.010   0.169   3.607 -0.0456 -0.1458  0.1221
  151RES   O17042470   4.954   0.367   4.041 -0.5152 -0.1268  0.0058
  151RES   C17142471   5.005   0.369   4.171 -0.2009  0.3914 -0.1050
  151RES   C17242472   4.911   0.288   4.269  0.4293  0.0912 -0.4160
  151RES   C17342473   4.930   0.337   4.415 -0.1970 -0.9327 -0.9735
  151RES   O17442474   4.836   0.274   4.502 -0.1043  0.1763  0.3316
  151RES   C17542475   4.852   0.308   4.642  0.0533  0.1397 -0.5843
  151RES   H17642476   5.020   0.473   4.199  3.3909 -0.1294  0.1606
  151RES   H17742477   5.106   0.328   4.176  0.2296  1.4664  0.2099
  151RES   H17842478   4.808   0.308   4.240 -0.2741 -2.2822  0.3580
  151RES   H17942479   5.035   0.324   4.442 -0.0906  0.4787 -0.6581
  151RES   H18042480   4.914   0.445   4.416  1.2457 -0.7026  2.4954
  151RES   H18142481   4.952   0.292   4.683  0.9389  0.0102 -2.6923
  151RES   H18242482   4.790   0.254   4.714  1.6684  2.1424  2.4035
  151RES   H18342483   4.836   0.414   4.657  0.0845 -0.0564  0.8777
  151RES   O18442484   4.932   0.150   4.267  0.7245  0.3796  0.2910
  151RES   C18542485   4.901   0.087   4.142  0.5465  0.0818  0.1150
  151RES   C18642486   4.894   7.748   4.145 -0.5518 -0.3123 -0.1808
  151RES   C18742487   4.908   7.703   3.995 -0.2493 -0.1179  1.2129
  151RES   O18842488   4.947   7.568   3.985 -0.2066  0.5261  0.2942
  151RES   C18942489   4.894   7.496   3.874 -0.0927  0.6832 -0.5687
  151RES   H19042490   4.994   0.105   4.088 -0.3420 -1.3329 -1.9195
  151RES   H19142491   4.811   0.130   4.099 -1.8885 -0.2342  4.5470
  151RES   H19242492   4.971   7.698   4.204 -1.4937  0.7606  2.0260
  151RES   H19342493   4.971   7.763   3.929 -1.4625  0.3883  0.5161
  151RES   H19442494   4.817   7.727   3.941  2.0846  3.7091 -1.3216
  151RES   H19542495   4.969   7.485   3.797 -0.3769  2.1393 -1.0720
  151RES   H19642496   4.868   7.395   3.906  0.8134 -0.5180 -3.5392
  151RES   H19742497   4.803   7.536   3.829  0.4462  0.6317 -1.7199
  151RES   O19842498   4.766   7.704   4.182  0.1731 -0.0633  0.1229
  151RES   C19942499   4.728   7.726   4.315  0.2503 -0.1636 -0.0165
  151RES   C20042500   4.576   7.757   4.316  0.2479 -0.0441  0.2579
  151RES   C20142501   4.537   0.037   4.433  0.2495 -0.0947 -0.8797
  151RES   O20242502   4.402   0.082   4.414  0.4575 -0.0120  0.2676
  151RES   C20342503   4.362   0.169   4.523  0.0736  0.4546 -0.7225
  151RES   H20442504   4.788   7.802   4.365 -0.1606 -0.3708  0.7948
  151RES   H20542505   4.744   7.638   4.377 -0.5201 -1.4501 -1.5983
  151RES   H20642506   4.544   7.801   4.222  1.7078  2.7217  0.9971
  151RES   H20742507   4.537   7.796   4.525 -0.3321  1.3934  0.0607
  151RES   H20842508   4.605   0.121   4.449  0.5488 -0.1294 -1.8948
  151RES   H20942509   4.254   0.182   4.534  0.1121  1.5344 -1.5010
  151RES   H21042510   4.404   0.270   4.514  1.1730  0.1807  0.9447
  151RES   H21142511   4.396   0.128   4.619  1.8877 -1.0579 -1.9781
  151RES   O21242512   4.494   7.638   4.333  0.0000 -0.5033  0.5661
  151RES   C21342513   4.394   7.627   4.233 -0.0414 -0.1012  0.6931
  151RES   C21442514   4.431   7.582   4.090 -0.4037 -0.4689  0.2286
  151RES   C21542515   4.537   7.475   4.088  0.4794 -0.1016 -0.1632
  151RES   O21642516   4.515   7.394   3.974  0.4828  0.1894  0.3573
  151RES   C21742517   4.573   7.264   3.991  0.2997 -0.1321  0.4259
  151RES   H21842518   4.341   7.717   4.202  0.7458  0.0749 -0.1493
  151RES   H21942519   4.328   7.554   4.279 -1.4997  0.8922  0.2292
  151RES   H22042520   4.338   7.539   4.053  0.1942 -0.8953 -0.7888
  151RES   H22142521   4.639   7.512   4.082  0.8331 -1.0910 -0.3673
  151RES   H22242522   4.528   7.424   4.184 -0.7675 -0.6808 -0.5757
  151RES   H22342523   4.501   7.187   4.018 -1.0476  1.2253  0.7726
  151RES   H22442524   4.651   7.263   4.067  0.1064 -2.7415  0.6392
  151RES   H22542525   4.631   7.224   3.907  1.4217  0.0958  1.0801
  151RES   O22642526   4.475   7.697   4.018  0.2855 -0.2792 -0.1097
  151RES   C22742527   4.434   7.695   3.881  0.1613 -0.5879  0.5114
  151RES   C22842528   4.524   7.773   3.785  1.0718 -0.1935 -0.0423
  151RES   C22942529   4.488   7.733   3.646  0.4086  0.1515  0.0659
  151RES   O23042530   4.594   7.762   3.554 -0.1267  0.1990  0.0975
  151RES   C23142531   4.596   7.676   3.434 -0.3768 -0.3406  0.1403
  151RES   H23242532   4.334   7.738   3.876  0.6007  0.3002 -1.0433
  151RES   H23342533   4.433   7.589   3.858 -1.1186 -0.6207  0.7038
  151RES   H23442534   4.630   7.752   3.798  1.2373 -1.3163 -2.9265
  151RES   H23542535   4.396   7.775   3.606  2.1654  1.1130 -3.1943
  151RES   H23642536   4.469   7.626   3.651  1.8973 -0.1131  0.4845
  151RES   H23742537   4.660   7.710   3.353  0.6340 -1.3675  0.4961
  151RES   H23842538   4.500   7.643   3.394 -1.4479  2.7749 -0.0611
  151RES   H23942539   4.641   7.581   3.463  0.0975  0.2828  1.5177
  151RES   O24042540   4.505   0.095   3.798 -0.0443 -0.1889 -0.2363
  151RES   C24142541   4.588   0.161   3.892 -0.1646  0.5332  0.1556
  151RES   C24242542   4.519   0.292   3.932  0.5848  0.9991 -0.1073
  151RES   C24342543   4.589   0.368   4.047 -0.8861 -0.0695  0.3201
  151RES   O24442544   4.494   0.450   4.119  0.0930 -0.0592  0.5373
  151RES   C24542545   4.538   0.495   4.239  0.0328 -0.6679  0.0850
  151RES   H24642546   4.678   0.181   3.834 -1.6899 -0.2570 -2.5533
  151RES   H24742547   4.606   0.095   3.976 -1.7787 -0.9868 -0.6726
  151RES   H24842548   4.420   0.264   3.968  0.4918 -0.0221 -1.1320
  151RES   H24942549   4.628   0.286   4.106 -1.1688  0.3819  1.1424
  151RES   H25042550   4.670   0.428   4.006  0.1187 -2.6551 -1.5905
  151RES   H25142551   4.618   0.568   4.229 -1.7888  1.4677  0.6562
  151RES   H25242552   4.567   0.428   4.320  0.3752  0.2572  0.7349
  151RES   H25342553   4.451   0.542   4.285  1.1183  1.0336  0.4399
  151RES   O25442554   4.516   0.377   3.820 -1.1004  0.5502 -0.5039
  151RES   C25542555   4.393   0.379   3.745  0.2790  0.1684  0.2041
  151RES   C25642556   4.401   0.508   3.670 -0.0956  0.3361 -0.3249
  151RES   C25742557   4.290   0.519   3.561 -1.0210  0.0046 -0.3865
  151RES   O25842558   4.323   0.628   3.481 -0.1772 -0.6083 -0.0958
  151RES   C25942559   4.209   0.680   3.414  0.1766  0.8306  0.1292
  151RES   H26042560   4.409   0.294   3.680  0.2688  1.2060 -1.1713
  151RES   H26142561   4.299   0.374   3.801 -0.0612  1.1363 -0.2564
  151RES   H26242562   4.498   0.516   3.623 -1.1050  1.5519 -2.2530
  151RES   H26342563   4.285   0.436   3.491 -3.1049 -1.2597  1.1832
  151RES   H26442564   4.199   0.545   3.615 -1.6204  1.3511 -2.0128
  151RES   H26542565   4.144   0.608   3.364 -1.7513 -0.1842  3.8708
  151RES   H26642566   4.243   0.757   3.346  1.7594  0.3295  0.3207
  151RES   H26742567   4.147   0.732   3.488  0.4697  2.9702 -1.0996
  151RES   O26842568   4.375   0.607   3.772  0.0764 -0.5680 -0.0344
  151RES   C26942569   4.427   0.733   3.740  0.0444  0.6980  0.3679
  151RES   C27042570   4.377   0.830   3.851 -0.6011 -0.5877  0.4014
  151RES   C27142571   4.425   0.804   3.994 -0.3384  0.2711  0.0971
  151RES   O27242572   4.420   0.930   4.067 -0.3507 -0.0976 -0.0496
  151RES   C27342573   4.457   0.914   4.198 -0.2906 -0.4841 -0.2465
  151RES   H27442574   4.377   0.771   3.651  0.4132  0.7871  0.1979
  151RES   H27542575   4.534   0.729   3.719  0.2712 -0.2631  1.6621
  151RES   H27642576   4.441   0.915   3.827  2.6911 -2.5695  1.8446
  151RES   H27742577   4.527   0.766   3.996 -0.2234  0.5021 -1.1474
  151RES   H27842578   4.351   0.734   4.032  0.6265 -1.0465 -0.4282
  151RES   H27942579   4.423   0.999   4.259  0.0883  0.0577 -0.7874
  151RES   H28042580   4.566   0.921   4.203 -0.4011  1.1953  0.2049
  151RES   H28142581   4.411   0.831   4.251 -0.3092 -0.8017 -0.7583
  151RES   H28242582   4.270   0.846   3.839 -0.3160  1.2843  0.1200
  152RES     O142583   3.855   5.350   3.302  0.4358  0.3534 -0.3347
  152RES     C242584   3.783   5.332   3.179  0.0996 -0.4384 -0.4203
  152RES     C342585   3.820   5.200   3.117  1.2489  0.9208 -0.2737
  152RES     C442586   3.731   5.162   2.988 -0.1984  0.4777 -0.0246
  152RES     O542587   3.746   5.027   2.945  0.3087  0.4695 -0.1155
  152RES     C642588   3.724   5.015   2.806 -0.6105 -0.1355 -0.1619
  152RES     H742589   3.684   5.326   3.224  2.1691 -1.6127  4.2769
  152RES     H842590   3.809   5.413   3.110 -4.0392  1.7218  0.3648
  152RES     H942591   3.803   5.127   3.197  2.3852  0.9700  0.0294
  152RES    H1042592   3.758   5.237   2.913  0.9771 -1.4071 -1.5175
  152RES    H1142593   3.631   5.197   3.016 -0.0105  1.7458 -0.9046
  152RES    H1242594   3.778   5.096   2.758  1.5288 -0.8891  0.8886
  152RES    H1342595   3.765   4.928   2.754  0.6224  0.5426 -0.3387
  152RES    H1442596   3.620   5.027   2.776 -0.2526  4.8970  0.2155
  152RES    H1542597   3.941   5.379   3.274  0.5773  1.1330  0.8677
  152RES    O1642598   3.956   5.207   3.081  0.0071 -0.1819  0.2813
  152RES    C1742599   4.024   5.077   3.068  0.3354  0.1377 -0.0748
  152RES    C1842600   4.146   5.087   2.971  0.0113 -0.9669 -0.0658
  152RES    C1942601   4.270   5.138   3.051  0.4409 -0.1076 -0.0167
  152RES    O2042602   4.381   5.161   2.967  0.6599  0.4264 -0.6983
  152RES    C2142603   4.491   5.227   3.026 -0.2204  0.1504 -0.3774
  152RES    H2242604   3.949   5.000   3.053 -0.2846  0.7212 -0.0225
  152RES    H2342605   4.059   5.027   3.158 -0.3185 -1.9457 -0.9378
  152RES    H2442606   4.111   5.164   2.902  0.4508 -0.7203 -0.0188
  152RES    H2542607   4.235   5.234   3.089  2.5382  0.0516  1.6132
  152RES    H2642608   4.299   5.079   3.138  1.1426 -0.0783 -0.2241
  152RES    H2742609   4.573   5.229   2.955 -1.9279  0.0843 -2.3775
  152RES    H2842610   4.519   5.178   3.120  1.2269  2.5014  0.4673
  152RES    H2942611   4.473   5.330   3.059  1.5292  0.2017  0.4919
  152RES    O3042612   4.185   4.961   2.912 -0.0266 -0.5319 -0.1415
  152RES    C3142613   4.108   4.941   2.798  0.6669  0.6454  0.4094
  152RES    C3242614   4.137   5.020   2.666  0.0867 -0.1674 -0.7408
  152RES    C3342615   4.005   5.090   2.604 -0.1776 -0.1092 -0.1043
  152RES    O3442616   4.011   5.141   2.469  0.7079  0.0149  0.1929
  152RES    C3542617   4.124   5.229   2.440  0.4810 -0.0846 -0.6544
  152RES    H3642618   4.122   4.840   2.759  1.0389  1.0283 -0.4543
  152RES    H3742619   4.001   4.950   2.816 -0.1039  0.3835 -3.4557
  152RES    H3842620   4.202   5.105   2.686 -0.7695  0.6838 -1.4819
  152RES    H3942621   3.984   5.170   2.675  1.7432  0.4397 -0.1175
  152RES    H4042622   3.929   5.013   2.617  0.3039 -0.2300  2.2136
  152RES    H4142623   4.128   5.248   2.333  0.1122 -0.5593 -0.7538
  152RES    H4242624   4.218   5.177   2.462  1.3781  1.9088  0.4101
  152RES    H4342625   4.118   5.324   2.493 -2.6593 -1.1705  1.0494
  152RES    O4442626   4.179   4.928   2.567  0.0619  0.1355 -0.5405
  152RES    C4542627   4.326   4.906   2.575  0.8283 -0.3312  0.2655
  152RES    C4642628   4.375   4.807   2.464 -0.4317  0.7939  0.1610
  152RES    C4742629   4.442   4.872   2.347 -0.2411 -0.3116 -0.6453
  152RES    O4842630   4.473   4.773   2.247  0.6330 -0.5773 -0.2611
  152RES    C4942631   4.536   4.823   2.132  0.6524 -0.3481  0.4388
  152RES    H5042632   4.360   4.880   2.675 -0.3674 -2.8027  0.0681
  152RES    H5142633   4.366   5.005   2.552  0.5900 -0.6524 -1.6056
  152RES    H5242634   4.296   4.740   2.430  0.3523 -0.9326  1.6789
  152RES    H5342635   4.370   4.945   2.310  0.6187 -0.4183 -2.6061
  152RES    H5442636   4.529   4.926   2.382  0.2173 -0.4764 -1.4978
  152RES    H5542637   4.641   4.851   2.142  1.1171  0.3239 -4.6428
  152RES    H5642638   4.482   4.905   2.083 -0.6154  0.2182  2.7306
  152RES    H5742639   4.547   4.738   2.065  2.2575  1.6226 -1.9370
  152RES    O5842640   4.470   4.725   2.543 -0.0523  0.4060 -0.4560
  152RES    C5942641   4.533   4.613   2.478 -0.5800 -0.6820 -0.0426
  152RES    C6042642   4.580   4.514   2.584 -0.1620  0.8157  0.1507
  152RES    C6142643   4.660   4.412   2.516 -0.0421  0.0606 -0.5284
  152RES    O6242644   4.708   4.305   2.597  0.7205 -0.0259 -0.3099
  152RES    C6342645   4.830   4.339   2.672 -0.6352 -0.9417 -0.6074
  152RES    H6442646   4.619   4.643   2.418 -0.9129 -0.5651 -0.4587
  152RES    H6542647   4.456   4.565   2.418 -3.6452  1.8780  1.7046
  152RES    H6642648   4.619   4.547   2.680  4.2759 -0.9050 -0.9672
  152RES    H6742649   4.598   4.373   2.435  0.2749 -1.8381  0.1348
  152RES    H6842650   4.743   4.465   2.470  1.4865  0.1926  2.3224
  152RES    H6942651   4.827   4.442   2.708  1.7999 -1.2110  0.4526
  152RES    H7042652   4.910   4.326   2.599  1.1196 -0.9158  1.2891
  152RES    H7142653   4.840   4.270   2.756  0.5626  0.9311  0.8147
  152RES    O7242654   4.458   4.447   2.624 -0.3668 -0.1173  0.3464
  152RES    C7342655   4.450   4.382   2.750  0.0095 -0.0323  0.0804
  152RES    C7442656   4.312   4.308   2.776 -0.2318  0.5236  0.0224
  152RES    C7542657   4.313   4.246   2.919 -0.1371  0.0490  0.0125
  152RES    O7642658   4.307   4.346   3.014  0.6726 -0.0206  0.6137
  152RES    C7742659   4.285   4.309   3.149 -0.0817 -0.4204 -0.1639
  152RES    H7842660   4.531   4.309   2.747  0.6582  0.6470  0.7120
  152RES    H7942661   4.472   4.457   2.826  0.5715  0.7146 -0.7964
  152RES    H8042662   4.218   4.363   2.772 -0.4915  0.0810 -0.0561
  152RES    H8142663   4.405   4.190   2.936 -0.2611 -0.3384 -0.5704
  152RES    H8242664   4.224   4.183   2.927  0.8607 -1.4920 -0.7837
  152RES    H8342665   4.298   4.405   3.198 -1.6440  0.2277 -0.9786
  152RES    H8442666   4.361   4.241   3.187  0.3717  0.4971  0.5885
  152RES    H8542667   4.193   4.255   3.174  0.8440 -2.0606 -0.2292
  152RES    O8642668   4.310   4.199   2.684  0.0906 -0.4005 -0.8351
  152RES    C8742669   4.237   4.227   2.567 -0.4294  0.4666 -0.2382
  152RES    C8842670   4.229   4.113   2.471 -0.2635  0.4997 -0.3722
  152RES    C8942671   4.124   4.129   2.365 -0.3646 -0.4037  0.3018
  152RES    O9042672   4.137   4.043   2.254 -0.0273  0.3965 -0.4161
  152RES    C9142673   4.022   4.053   2.161  0.1970  0.6020 -0.9926
  152RES    H9242674   4.135   4.253   2.597  0.0128  0.1955  1.5416
  152RES    H9342675   4.274   4.322   2.529 -1.6860  0.9643 -0.2605
  152RES    H9442676   4.206   4.023   2.529  0.3110  0.5201 -0.1056
  152RES    H9542677   4.024   4.136   2.408 -1.0954 -2.2759 -1.0153
  152RES    H9642678   4.135   4.230   2.326 -0.6450 -0.9683 -1.2752
  152RES    H9742679   3.933   4.013   2.210  0.4564 -1.6491 -2.3216
  152RES    H9842680   4.013   4.156   2.128  0.5022  0.9158 -0.1142
  152RES    H9942681   4.055   3.995   2.074  0.5523  0.3364 -0.6861
  152RES   O10042682   4.360   4.094   2.434 -0.6140  0.0452  0.1861
  152RES   C10142683   4.394   3.963   2.386 -0.7313 -0.2389  0.0540
  152RES   C10242684   4.538   3.952   2.336 -0.1914  0.2979 -0.3253
  152RES   C10342685   4.634   4.025   2.433 -0.2858 -0.1115 -0.6794
  152RES   O10442686   4.765   3.970   2.408 -0.0947 -0.2700 -0.1278
  152RES   C10542687   4.854   4.064   2.458  0.3487  0.1470  0.8352
  152RES   H10642688   4.330   3.921   2.308  0.2441  0.4631 -1.1567
  152RES   H10742689   4.388   3.894   2.470  0.6217 -0.4477 -0.0132
  152RES   H10842690   4.562   3.847   2.351 -0.4420  0.0677 -1.4959
  152RES   H10942691   4.613   4.008   2.539  1.2336  1.0037 -0.1811
  152RES   H11042692   4.630   4.134   2.423 -2.1291  0.0991  1.6746
  152RES   H11142693   4.955   4.023   2.446  0.0662 -0.6953  1.3142
  152RES   H11242694   4.838   4.087   2.563  1.7732 -1.3527  1.4068
  152RES   H11342695   4.846   4.152   2.394  1.5634 -0.7599 -0.6346
  152RES   O11442696   4.553   4.003   2.207 -0.4152 -0.0391 -0.2147
  152RES   C11542697   4.674   3.957   2.139 -0.0417 -0.2978  0.0499
  152RES   C11642698   4.663   3.963   1.981 -0.1266 -0.1896  0.5457
  152RES   C11742699   4.795   3.988   1.911 -0.5262 -0.2329  0.2736
  152RES   O11842700   4.901   3.886   1.923 -0.9021 -0.1798 -0.8830
  152RES   C11942701   5.038   3.946   1.901  0.3937  0.0529  0.2978
  152RES   H12042702   4.756   4.025   2.161  0.5436 -0.9065 -0.2444
  152RES   H12142703   4.717   3.865   2.179  0.9578  0.4674  0.7408
  152RES   H12242704   4.614   4.060   1.971 -0.8289 -0.7810 -2.2655
  152RES   H12342705   4.786   4.016   1.806  0.3535 -0.9077  0.0027
  152RES   H12442706   4.835   4.076   1.963  0.9191 -0.5991 -0.1854
  152RES   H12542707   5.084   4.000   1.984  0.4536 -1.3330  1.1757
  152RES   H12642708   5.051   3.989   1.802 -0.2250 -1.1756 -0.3179
  152RES   H12742709   5.107   3.863   1.893  1.9543  1.4179 -0.7059
  152RES   O12842710   4.588   3.858   1.916 -0.3449 -0.0118  0.2463
  152RES   C12942711   4.449   3.854   1.939  0.2065 -0.2873  0.0547
  152RES   C13042712   4.393   3.745   1.843  0.0665  0.4646  0.5986
  152RES   C13142713   4.244   3.752   1.815 -0.2753 -0.3418  0.1305
  152RES   O13242714   4.191   3.684   1.707 -0.5596 -0.2564  0.1868
  152RES   C13342715   4.058   3.651   1.707 -0.2349 -0.3972 -0.6825
  152RES   H13442716   4.405   3.845   2.038 -0.5893  2.8856  0.0414
  152RES   H13542717   4.409   3.948   1.902 -0.4200 -1.0796 -1.3205
  152RES   H13642718   4.429   3.755   1.741 -0.6535 -0.5086  0.2454
  152RES   H13742719   4.220   3.858   1.799 -0.1684 -0.3470 -0.0585
  152RES   H13842720   4.194   3.728   1.909 -1.0494 -1.2625 -0.5160
  152RES   H13942721   4.059   3.593   1.614 -0.4792  0.8071 -1.4423
  152RES   H14042722   4.025   3.577   1.780  3.6356 -1.9796 -0.4131
  152RES   H14142723   3.992   3.737   1.698  1.7318  1.1158 -0.8496
  152RES   O14242724   4.417   3.612   1.890  0.5492 -0.2143  0.5122
  152RES   C14342725   4.452   3.520   1.783  0.1991  0.0331 -0.1047
  152RES   C14442726   4.580   3.547   1.710  0.2644  0.4093 -0.0359
  152RES   C14542727   4.570   3.488   1.570 -0.0003 -0.7988 -0.1194
  152RES   O14642728   4.551   3.347   1.592  0.3794  0.5810 -0.7536
  152RES   C14742729   4.558   3.262   1.472  0.3538 -0.3280  0.2156
  152RES   H14842730   4.449   3.417   1.820 -2.6360 -0.3330 -1.1763
  152RES   H14942731   4.368   3.520   1.713  0.0757  0.8999  0.0415
  152RES   H15042732   4.604   3.653   1.700  0.4613  0.1332 -2.7398
  152RES   H15142733   4.666   3.503   1.521 -0.1849  2.2491  0.3923
  152RES   H15242734   4.496   3.537   1.507  0.8482 -2.9040 -2.8659
  152RES   H15342735   4.545   3.158   1.502 -1.9489  0.3514  1.7809
  152RES   H15442736   4.656   3.263   1.425  1.4122  0.6325  2.3922
  152RES   H15542737   4.482   3.293   1.401  0.0270  1.4173  1.2953
  152RES   O15642738   4.688   3.485   1.784  0.0924 -0.0500  0.0288
  152RES   C15742739   4.754   3.574   1.869  0.4993 -0.4722  0.6475
  152RES   C15842740   4.845   3.506   1.962  0.5192  0.6630  0.4977
  152RES   C15942741   4.906   3.609   2.060  0.4499 -0.2248 -0.0585
  152RES   O16042742   4.932   3.552   2.185 -0.2819  0.5300  0.2144
  152RES   C16142743   5.001   3.639   2.275 -0.5616  0.5648  0.3597
  152RES   H16242744   4.799   3.643   1.798 -0.2457  0.1017  0.7283
  152RES   H16342745   4.674   3.621   1.925  1.1960 -1.1765  2.2690
  152RES   H16442746   4.789   3.428   2.013  0.1932 -0.2500 -1.2286
  152RES   H16542747   4.994   3.655   2.016 -1.8630  3.7893 -0.7923
  152RES   H16642748   4.836   3.692   2.077  0.9341  0.2283 -0.2740
  152RES   H16742749   5.004   3.588   2.371  0.1454  1.8147  1.0157
  152RES   H16842750   4.940   3.727   2.295  3.8521  4.1787 -1.0803
  152RES   H16942751   5.099   3.668   2.237 -1.2215 -0.6598 -2.4270
  152RES   O17042752   4.947   3.454   1.874 -0.3107 -0.3444  0.6097
  152RES   C17142753   5.030   3.360   1.942 -0.3333  0.3737  0.3632
  152RES   C17242754   5.153   3.333   1.863  0.0045 -0.0296 -0.2500
  152RES   C17342755   5.177   3.179   1.854 -0.3320 -0.2308  0.3091
  152RES   O17442756   5.269   3.144   1.757  0.5360  0.2208  0.3457
  152RES   C17542757   5.251   3.008   1.714 -0.1288  0.5893 -0.1177
  152RES   H17642758   4.960   3.278   1.960  1.0776 -0.8002  0.6310
  152RES   H17742759   5.067   3.386   2.041 -0.8127  1.7545  0.1822
  152RES   H17842760   5.132   3.367   1.761  1.5878  1.7885  0.0128
  152RES   H17942761   5.219   3.141   1.947 -1.9488 -0.9261  0.7763
  152RES   H18042762   5.079   3.135   1.836 -0.6613  0.9276 -0.7609
  152RES   H18142763   5.156   3.000   1.663 -0.1459 -0.7848  0.1125
  152RES   H18242764   5.266   2.928   1.786  1.6694  1.2354  0.2746
  152RES   H18342765   5.333   2.992   1.644  0.5563  1.3590  0.4890
  152RES   O18442766   5.270   3.391   1.932  0.0443  0.2540 -0.1312
  152RES   C18542767   5.287   3.531   1.910  0.1882 -0.0316 -0.3624
  152RES   C18642768   5.431   3.577   1.937 -0.0890  0.3103  0.6034
  152RES   C18742769   5.443   3.722   1.965  0.2017  0.5530  0.6038
  152RES   O18842770   5.369   3.805   1.871 -0.1331 -0.0435 -0.1335
  152RES   C18942771   5.401   3.940   1.889  0.4628 -0.3780  0.3210
  152RES   H19042772   5.217   3.579   1.977 -0.7246  0.1501 -1.4384
  152RES   H19142773   5.263   3.564   1.809  0.7340 -1.4178 -0.9592
  152RES   H19242774   5.494   3.529   2.012  1.2059 -0.1555 -0.7424
  152RES   H19342775   5.546   3.758   1.965  0.3740  0.0513  1.0485
  152RES   H19442776   5.420   3.748   2.068  0.6463 -2.6692  1.5560
  152RES   H19542777   5.504   3.955   1.857  1.0005 -2.3409  1.0766
  152RES   H19642778   5.331   4.001   1.832  0.8414  0.9290  1.2218
  152RES   H19742779   5.386   3.973   1.992  1.1170 -0.0035  0.2995
  152RES   O19842780   5.494   3.568   1.805 -0.5072  0.0180 -0.6021
  152RES   C19942781   5.550   3.443   1.780 -0.8911 -0.0665 -0.4131
  152RES   C20042782   5.600   3.417   1.640  0.5087 -0.7705 -0.2324
  152RES   C20142783   5.627   3.264   1.621  0.3980 -0.3965 -0.3656
  152RES   O20242784   5.648   3.216   1.491 -0.3182  0.0875  0.2016
  152RES   C20342785   5.683   3.073   1.488  0.3279 -0.2190  0.4702
  152RES   H20442786   5.475   3.368   1.806  1.2206 -1.2735  2.3734
  152RES   H20542787   5.641   3.431   1.839  1.2099  1.2975 -3.2725
  152RES   H20642788   5.518   3.441   1.572  0.6468 -2.5090 -1.0418
  152RES   H20742789   5.701   3.225   1.690 -0.5769 -1.3845  0.1262
  152RES   H20842790   5.535   3.218   1.655  1.7736 -0.9705  2.7666
  152RES   H20942791   5.691   3.040   1.385 -0.9452  1.8846 -0.3332
  152RES   H21042792   5.601   3.016   1.531  1.3208 -2.6130 -0.6787
  152RES   H21142793   5.780   3.061   1.536  0.7034 -0.2022 -0.2867
  152RES   O21242794   5.716   3.500   1.626  0.2918  0.8085  0.3842
  152RES   C21342795   5.761   3.538   1.490  0.0921  0.3022 -0.1256
  152RES   C21442796   5.858   3.648   1.491  0.3023 -0.1733 -0.2731
  152RES   C21542797   5.959   3.647   1.605 -0.4171 -0.8153 -0.3321
  152RES   O21642798   6.044   3.763   1.618 -0.1767 -0.0246 -0.4123
  152RES   C21742799   6.143   3.739   1.715 -0.4294 -0.3413 -0.1389
  152RES   H21842800   5.675   3.559   1.426  0.3027  0.5824 -0.3170
  152RES   H21942801   5.818   3.451   1.458  1.8211  0.5140  2.2098
  152RES   H22042802   5.904   3.666   1.394  0.7046 -0.0980 -0.0688
  152RES   H22142803   5.918   3.631   1.705  0.5175 -0.2113  0.1627
  152RES   H22242804   6.029   3.570   1.574  2.2820  1.3593  0.0740
  152RES   H22342805   6.216   3.662   1.691  3.0171  2.0686  2.0397
  152RES   H22442806   6.114   3.707   1.815  0.9539 -1.7219 -0.1638
  152RES   H22542807   6.194   3.835   1.723  0.2840 -0.9290  2.8193
  152RES   O22642808   5.773   3.763   1.523  0.1491 -0.5486 -0.6673
  152RES   C22742809   5.732   3.854   1.418 -0.1427 -0.7531 -0.3154
  152RES   C22842810   5.610   3.933   1.470  0.0358 -0.7245  0.9256
  152RES   C22942811   5.612   4.066   1.397  0.3425 -0.0185  0.2475
  152RES   O23042812   5.497   4.142   1.441 -0.0002 -0.4511 -0.2384
  152RES   C23142813   5.502   4.275   1.392 -0.4593  0.3014 -0.3016
  152RES   H23242814   5.686   3.797   1.337 -0.0382 -1.6130  0.2188
  152RES   H23342815   5.812   3.925   1.397 -1.4949  0.5387 -1.1842
  152RES   H23442816   5.624   3.965   1.573 -0.7152  1.0547  0.4876
  152RES   H23542817   5.611   4.051   1.289  1.3693 -0.8812  0.3467
  152RES   H23642818   5.698   4.125   1.430  0.9422 -0.8113  0.0974
  152RES   H23742819   5.475   4.269   1.287  0.6745 -0.0238 -0.5797
  152RES   H23842820   5.589   4.338   1.409  0.8752 -1.1505 -1.6449
  152RES   H23942821   5.419   4.333   1.433 -0.0840 -0.7639  2.0856
  152RES   O24042822   5.486   3.871   1.435  0.6852 -0.2789 -0.2940
  152RES   C24142823   5.448   3.785   1.536  1.2549 -0.1476 -0.0892
  152RES   C24242824   5.317   3.703   1.505  0.3084 -0.1479  0.3398
  152RES   C24342825   5.197   3.797   1.488 -0.0248  0.2598  0.2030
  152RES   O24442826   5.071   3.727   1.485 -0.0755 -0.2283 -0.8014
  152RES   C24542827   5.039   3.653   1.606  0.0572 -0.1840 -0.1466
  152RES   H24642828   5.446   3.832   1.635  1.6432  0.0555 -0.1774
  152RES   H24742829   5.530   3.716   1.549  0.4570 -0.4723  3.8320
  152RES   H24842830   5.300   3.648   1.597  0.3302 -1.1117 -0.2245
  152RES   H24942831   5.195   3.873   1.567  0.0803 -0.2227  0.6668
  152RES   H25042832   5.220   3.846   1.393 -0.4475  1.8097  0.8758
  152RES   H25142833   4.941   3.606   1.598 -0.4915  0.7792  0.8158
  152RES   H25242834   5.041   3.719   1.692  0.4132 -0.6086  0.1684
  152RES   H25342835   5.110   3.572   1.620 -0.5021 -0.7213 -0.3936
  152RES   O25442836   5.349   3.618   1.397  0.1954  0.1793 -0.2373
  152RES   C25542837   5.261   3.509   1.365  0.3229 -0.0724  0.3740
  152RES   C25642838   5.300   3.418   1.243 -0.2756 -0.7281 -0.4714
  152RES   C25742839   5.441   3.359   1.254  0.7310 -0.3046 -0.8420
  152RES   O25842840   5.502   3.325   1.129  0.2927  0.6370 -0.1260
  152RES   C25942841   5.628   3.262   1.141  0.5265  0.2452 -0.0526
  152RES   H26042842   5.238   3.453   1.456 -0.3577  0.0379  0.2685
  152RES   H26142843   5.168   3.559   1.342  2.0878  4.0383  1.7892
  152RES   H26242844   5.293   3.474   1.149  0.1322 -0.2384 -0.2141
  152RES   H26342845   5.513   3.430   1.296  1.1103 -2.2314  1.8993
  152RES   H26442846   5.420   3.278   1.324 -1.4633 -0.1948 -1.3316
  152RES   H26542847   5.616   3.189   1.222  1.3015 -0.9060 -0.9614
  152RES   H26642848   5.701   3.335   1.177 -0.3270  0.6753  0.8427
  152RES   H26742849   5.664   3.223   1.046  0.6301  2.4522 -0.9432
  152RES   O26842850   5.198   3.320   1.249  0.4663  0.0397 -0.1179
  152RES   C26942851   5.181   3.254   1.124 -0.0429 -0.3671 -0.1909
  152RES   C27042852   5.119   3.116   1.149  0.5554 -0.2978  0.4444
  152RES   C27142853   5.102   3.041   1.014  0.1372  0.0888  0.2168
  152RES   O27242854   5.013   2.930   1.036 -0.0099 -0.0437 -0.2612
  152RES   C27342855   5.074   2.802   1.009  0.0880  0.1095 -0.3628
  152RES   H27442856   5.272   3.254   1.065  0.1951 -1.4093  0.1728
  152RES   H27542857   5.104   3.317   1.079 -0.6631 -1.7610 -1.1148
  152RES   H27642858   5.187   3.067   1.219 -0.9599 -1.3415  1.2223
  152RES   H27742859   5.199   3.002   0.983 -1.2560 -3.1151 -0.3149
  152RES   H27842860   5.070   3.101   0.928  3.3267  0.7744 -0.5497
  152RES   H27942861   5.166   2.794   1.067  1.3915  1.6167 -2.1219
  152RES   H28042862   5.098   2.813   0.903 -1.3472  0.1240 -0.6904
  152RES   H28142863   5.015   2.712   1.025  0.9052 -0.9635 -2.9992
  152RES   H28242864   5.020   3.118   1.195 -0.2554  0.4306 -1.2748
  153RES     O142865   2.255   1.751   3.395 -0.3766  0.2134 -0.2215
  153RES     C242866   2.383   1.721   3.432  0.5313  0.3537  0.0058
  153RES     C342867   2.378   1.594   3.508  0.2387 -0.0097 -0.3904
  153RES     C442868   2.513   1.523   3.520  0.2457  0.2791 -0.4886
  153RES     O542869   2.498   1.382   3.535 -0.3397 -0.2954  0.7379
  153RES     C642870   2.621   1.321   3.575  0.0904  0.7963  0.6943
  153RES     H742871   2.443   1.710   3.342 -0.4124 -1.5596 -0.4289
  153RES     H842872   2.418   1.807   3.489 -1.6520 -0.6434  2.9617
  153RES     H942873   2.303   1.537   3.454  0.7602 -0.3385 -0.7739
  153RES    H1042874   2.560   1.566   3.608  0.1427 -2.6416  1.0409
  153RES    H1142875   2.567   1.539   3.427 -0.5542  1.4305 -0.7698
  153RES    H1242876   2.684   1.304   3.488 -2.1257 -0.6583 -0.6709
  153RES    H1342877   2.668   1.378   3.656 -3.4041  2.1953  1.8397
  153RES    H1442878   2.597   1.226   3.622 -3.3453  1.3559  0.1824
  153RES    H1542879   2.199   1.749   3.472  0.0499  1.4174  0.1283
  153RES    O1642880   2.331   1.628   3.639  0.3484 -0.4119 -0.5639
  153RES    C1742881   2.254   1.533   3.713  0.1500 -0.0856 -0.3361
  153RES    C1842882   2.269   1.552   3.872 -0.5172 -0.0151  0.2145
  153RES    C1942883   2.424   1.568   3.903  0.2705 -0.2873  0.0668
  153RES    O2042884   2.445   1.552   4.041  0.2014  0.2892 -0.2616
  153RES    C2142885   2.451   1.420   4.086  0.3621 -0.1706  0.2442
  153RES    H2242886   2.280   1.429   3.691 -0.4609 -0.2142 -0.4698
  153RES    H2342887   2.147   1.546   3.694  0.1010  1.4958  0.9478
  153RES    H2442888   2.230   1.464   3.923  1.3906  0.9050  3.3579
  153RES    H2542889   2.479   1.487   3.854  1.5418  0.7598 -0.2819
  153RES    H2642890   2.460   1.668   3.879  2.2392 -0.7783  0.8393
  153RES    H2742891   2.505   1.350   4.022 -0.6574 -0.2762 -0.5176
  153RES    H2842892   2.347   1.388   4.097 -0.5790  1.6354 -2.6924
  153RES    H2942893   2.495   1.408   4.185  1.5913 -0.6521 -0.3588
  153RES    O3042894   2.207   1.675   3.916 -0.0140  0.1144 -0.2864
  153RES    C3142895   2.075   1.647   3.964  0.1904  0.0612 -0.2340
  153RES    C3242896   1.998   1.780   3.983  0.4348  0.0665  0.0233
  153RES    C3342897   1.863   1.752   4.054  0.0344  0.2338  0.3133
  153RES    O3442898   1.822   1.849   4.135 -0.2714 -1.2138 -1.0791
  153RES    C3542899   1.703   1.824   4.200  0.0458 -0.5099 -0.7600
  153RES    H3642900   2.020   1.575   3.903 -0.3838  0.5488 -0.2983
  153RES    H3742901   2.082   1.603   4.064 -2.3803  1.1572  0.4877
  153RES    H3842902   2.059   1.852   4.039  2.5194 -1.3337 -0.3928
  153RES    H3942903   1.863   1.664   4.118  0.3033  1.3562  1.8810
  153RES    H4042904   1.780   1.738   3.984  0.9947 -1.2311 -0.5579
  153RES    H4142905   1.687   1.911   4.263  0.1513 -1.1021  0.0905
  153RES    H4242906   1.719   1.737   4.263 -0.0860 -0.5492 -0.7806
  153RES    H4342907   1.612   1.814   4.141 -1.3880 -0.7202  1.4192
  153RES    O4442908   1.955   1.840   3.868  0.0896  0.2297 -0.2172
  153RES    C4542909   2.063   1.907   3.803  0.1575  0.0465 -0.2798
  153RES    C4642910   2.017   1.921   3.656 -0.1591 -0.7279 -0.2427
  153RES    C4742911   2.103   2.024   3.574  0.1349 -0.1406 -0.0714
  153RES    O4842912   2.038   2.047   3.446 -0.1506 -0.9019 -0.1480
  153RES    C4942913   2.141   2.097   3.360 -0.2150  0.1406 -0.0403
  153RES    H5042914   2.160   1.858   3.805  0.5272  0.8138  1.2084
  153RES    H5142915   2.076   2.010   3.838 -1.1645  0.4682 -1.0027
  153RES    H5242916   1.910   1.940   3.665 -0.0796 -0.7639  0.8150
  153RES    H5342917   2.108   2.120   3.626 -0.7304  0.5634 -1.2432
  153RES    H5442918   2.203   1.982   3.574  0.2712  0.1704  0.8460
  153RES    H5542919   2.108   2.141   3.266 -1.9348  2.4033  1.5538
  153RES    H5642920   2.212   2.018   3.336 -0.3204 -0.4003  1.3810
  153RES    H5742921   2.196   2.181   3.401 -1.6144  0.4775  1.2235
  153RES    O5842922   2.027   1.795   3.599 -0.1965 -0.2444  0.4157
  153RES    C5942923   1.936   1.754   3.507 -0.5090  0.3190 -0.0421
  153RES    C6042924   1.964   1.612   3.467  0.3492 -0.1253  0.4324
  153RES    C6142925   1.897   1.587   3.329  0.0517  0.2403 -0.2178
  153RES    O6242926   1.943   1.472   3.268 -0.4882  0.1389 -0.2823
  153RES    C6342927   1.895   1.456   3.138 -0.1597  0.1259  0.8505
  153RES    H6442928   1.941   1.826   3.426  1.2446  2.0804  1.5788
  153RES    H6542929   1.839   1.754   3.557 -0.9475 -0.8402 -0.8705
  153RES    H6642930   2.073   1.610   3.467  0.3777  0.5954 -0.6340
  153RES    H6742931   1.789   1.602   3.342 -0.1262 -0.9113 -0.3811
  153RES    H6842932   1.926   1.668   3.262 -0.3864  0.0276 -0.6692
  153RES    H6942933   1.916   1.548   3.083  0.5675 -0.8235 -0.5121
  153RES    H7042934   1.788   1.437   3.139 -0.0370 -1.1495 -2.5170
  153RES    H7142935   1.933   1.367   3.088 -0.0305  0.7173 -0.1171
  153RES    O7242936   1.909   1.525   3.567 -0.6261  0.2011  0.0223
  153RES    C7342937   1.965   1.396   3.562  0.3019 -0.3915  0.2591
  153RES    C7442938   1.948   1.313   3.693 -0.7103  0.2121  0.3853
  153RES    C7542939   2.023   1.179   3.692  0.0964  0.2509  0.0434
  153RES    O7642940   2.168   1.193   3.692  0.5589 -0.2659 -0.4902
  153RES    C7742941   2.240   1.073   3.714  0.0304  0.3263  0.3493
  153RES    H7842942   1.927   1.349   3.471 -1.3381  4.2374 -1.5730
  153RES    H7942943   2.071   1.404   3.542  0.6075 -2.7359  0.7977
  153RES    H8042944   1.993   1.363   3.779  1.2941 -0.4256 -0.2626
  153RES    H8142945   1.984   1.132   3.601 -1.0341  1.3215 -0.0408
  153RES    H8242946   1.990   1.118   3.777 -2.5145 -0.1245 -1.1719
  153RES    H8342947   2.346   1.100   3.715  0.6520 -1.9960  2.8649
  153RES    H8442948   2.226   0.996   3.638  1.0739 -2.9881  3.3798
  153RES    H8542949   2.219   1.033   3.812  0.6776  0.8149  0.6925
  153RES    O8642950   1.812   1.281   3.713 -0.3815  0.3615  0.1342
  153RES    C8742951   1.733   1.351   3.811 -0.2290  0.2150  0.0217
  153RES    C8842952   1.743   1.301   3.956  0.3915  0.3335 -0.1153
  153RES    C8942953   1.650   1.384   4.049  0.3488  0.4367 -0.7808
  153RES    O9042954   1.689   1.376   4.188  0.2938  0.5467  0.4220
  153RES    C9142955   1.595   1.440   4.273  0.5435  0.7433 -0.3488
  153RES    H9242956   1.759   1.456   3.800  0.2257 -0.0383 -1.3828
  153RES    H9342957   1.629   1.343   3.783 -0.1208  0.4833 -0.4593
  153RES    H9442958   1.845   1.307   3.996  0.7500  2.1249 -1.2587
  153RES    H9542959   1.625   1.485   4.018 -1.9085  0.3745  0.7383
  153RES    H9642960   1.552   1.338   4.032  0.5073 -1.2715  2.6479
  153RES    H9742961   1.508   1.373   4.271  0.3360  1.0272 -1.2228
  153RES    H9842962   1.615   1.442   4.380 -1.5996 -0.5721  0.1233
  153RES    H9942963   1.558   1.534   4.233  0.4213  0.9075  0.1508
  153RES   O10042964   1.714   1.159   3.950  0.3040  0.8973 -0.3737
  153RES   C10142965   1.684   1.099   4.075 -0.2437  0.2515  0.5022
  153RES   C10242966   1.718   0.950   4.078  0.3033  1.0472  0.6277
  153RES   C10342967   1.653   0.878   4.204  0.3546 -0.7547 -0.4269
  153RES   O10442968   1.683   0.927   4.337  0.1955  0.3602 -0.7266
  153RES   C10542969   1.616   0.845   4.427 -0.4637 -0.5148 -0.2526
  153RES   H10642970   1.577   1.111   4.096 -1.0155 -1.0300 -2.4984
  153RES   H10742971   1.732   1.147   4.160 -0.8892 -0.7794  1.4683
  153RES   H10842972   1.679   0.906   3.986 -0.4480 -1.8886  2.2711
  153RES   H10942973   1.690   0.776   4.199  3.0904  0.2217 -1.3935
  153RES   H11042974   1.546   0.889   4.190  0.5666  4.2303  0.9610
  153RES   H11142975   1.659   0.834   4.526 -1.8434 -2.6521  0.1401
  153RES   H11242976   1.612   0.740   4.400  0.1173 -1.0079  1.5380
  153RES   H11342977   1.510   0.869   4.436 -0.2839  0.1640  0.0961
  153RES   O11442978   1.862   0.935   4.079 -0.1894 -0.2527  0.3921
  153RES   C11542979   1.902   0.836   3.987  0.1290  0.0941 -0.6863
  153RES   C11642980   2.054   0.814   4.007  0.6981  0.1991 -0.2547
  153RES   C11742981   2.101   0.773   4.149  0.6361  0.0285 -0.4949
  153RES   O11842982   2.249   0.765   4.178  0.1936 -0.0560  0.1734
  153RES   C11942983   2.275   0.711   4.302  0.0134 -0.4818 -0.0418
  153RES   H12042984   1.858   0.740   4.016  1.4067 -0.6496 -1.1828
  153RES   H12142985   1.884   0.864   3.884  1.3990 -1.0443 -1.2323
  153RES   H12242986   2.111   0.901   3.975  0.7309  0.7383  1.2151
  153RES   H12342987   2.042   0.824   4.225  1.3183 -0.4610  0.3674
  153RES   H12442988   2.062   0.671   4.153 -1.4544  0.7914 -0.6037
  153RES   H12542989   2.384   0.720   4.311 -0.0229 -0.7631  0.7188
  153RES   H12642990   2.249   0.606   4.294 -1.6722  0.0093 -1.2527
  153RES   H12742991   2.222   0.760   4.383 -1.8688 -0.0378 -1.5151
  153RES   O12842992   2.110   0.707   3.929  0.7059  0.0743  0.9045
  153RES   C12942993   2.116   0.740   3.786 -0.1110  0.2281 -0.6771
  153RES   C13042994   2.069   0.619   3.697  0.2266  0.1049  0.3244
  153RES   C13142995   2.125   0.631   3.558 -0.2791  0.2211  0.2568
  153RES   O13242996   2.091   0.758   3.503 -0.4862 -0.5144  0.0751
  153RES   C13342997   2.027   0.751   3.376  0.2865  0.0977 -0.1653
  153RES   H13442998   2.068   0.831   3.752 -1.0333  0.2742  0.7625
  153RES   H13542999   2.221   0.769   3.777 -0.0387  0.1784  0.0259
  153RES   H13643000   2.113   0.529   3.740  0.2744  0.7168  1.5896
  153RES   H13743001   2.092   0.545   3.499  0.8692 -1.4131  1.9165
  153RES   H13843002   2.234   0.621   3.557 -0.1849  1.2878 -0.7324
  153RES   H13943003   2.062   0.673   3.309  0.0993  0.0399 -0.1960
  153RES   H14043004   1.923   0.733   3.405  0.1465 -0.5334 -1.0625
  153RES   H14143005   2.035   0.847   3.324  0.7484 -0.2445 -0.7346
  153RES   O14243006   1.930   0.630   3.713 -0.0301  0.1468 -0.0085
  153RES   C14343007   1.858   0.523   3.658  0.3844 -0.7803  0.3154
  153RES   C14443008   1.745   0.493   3.761  0.0135  0.2039  0.3382
  153RES   C14543009   1.808   0.442   3.887  0.9348 -0.1085  0.1634
  153RES   O14643010   1.711   0.422   3.992  0.0379  0.0698  0.5555
  153RES   C14743011   1.775   0.377   4.109 -0.1695 -0.7158 -0.7447
  153RES   H14843012   1.831   0.555   3.558  2.3632  2.0552  0.6320
  153RES   H14943013   1.920   0.434   3.649 -1.0549 -1.8979  1.2453
  153RES   H15043014   1.700   0.592   3.771 -1.5835 -0.6851  2.0530
  153RES   H15143015   1.891   0.506   3.916  1.3730 -0.4157 -0.4008
  153RES   H15243016   1.866   0.351   3.872  1.1156  0.2324 -1.3533
  153RES   H15343017   1.706   0.358   4.192 -1.7362  2.7452 -1.1523
  153RES   H15443018   1.866   0.431   4.137  2.0584 -2.1407 -4.7917
  153RES   H15543019   1.806   0.275   4.088 -1.8983 -1.9871  2.4656
  153RES   O15643020   1.675   0.393   3.692 -0.3936  0.4469  0.7620
  153RES   C15743021   1.546   0.377   3.741  0.8163  0.0074  0.1889
  153RES   C15843022   1.451   0.277   3.659 -0.0476 -0.2483 -0.3649
  153RES   C15943023   1.303   0.321   3.623 -0.3708 -0.4925 -1.3280
  153RES   O16043024   1.260   0.235   3.521 -0.4321  0.0682  0.5355
  153RES   C16143025   1.121   0.237   3.509 -0.1556  0.5273  0.3639
  153RES   H16243026   1.547   0.345   3.845  4.3767 -1.0537 -0.1189
  153RES   H16343027   1.498   0.475   3.738  1.8645  0.5425  1.0155
  153RES   H16443028   1.508   0.254   3.569 -1.2078  1.7911 -1.6613
  153RES   H16543029   1.241   0.328   3.712  3.1822  2.7428  1.0447
  153RES   H16643030   1.292   0.425   3.592 -1.2918  0.0761  0.7867
  153RES   H16743031   1.095   0.335   3.470 -0.8974 -0.1514 -0.8863
  153RES   H16843032   1.076   0.213   3.605  2.3342 -2.5061  0.8666
  153RES   H16943033   1.099   0.165   3.431 -0.3213  0.5786  0.3643
  153RES   O17043034   1.435   0.165   3.736  0.3675  0.0279 -0.1897
  153RES   C17143035   1.456   0.044   3.659 -0.1016 -0.7080 -0.0959
  153RES   C17243036   1.430   7.748   3.752  0.8585  0.3357 -0.3619
  153RES   C17343037   1.492   7.620   3.703  0.6568 -0.5921  0.6741
  153RES   O17443038   1.630   7.635   3.690 -0.1284  0.0477  0.2770
  153RES   C17543039   1.687   7.526   3.624  0.3809 -0.2290  0.4064
  153RES   H17643040   1.562   0.037   3.632 -0.6299  1.8178 -3.1105
  153RES   H17743041   1.395   0.040   3.569 -0.3233 -0.4497  0.0414
  153RES   H17843042   1.479   7.764   3.848  1.0891 -0.6191 -0.3076
  153RES   H17943043   1.482   7.544   3.780 -2.7223 -1.8293 -0.9035
  153RES   H18043044   1.443   7.579   3.615  0.4448 -2.3834  1.6033
  153RES   H18143045   1.690   7.442   3.693  3.1830 -1.7468 -1.4554
  153RES   H18243046   1.785   7.560   3.591  0.4814 -0.8840  0.0259
  153RES   H18343047   1.628   7.496   3.538  0.2778  0.3477  0.2733
  153RES   O18443048   1.300   7.723   3.779  0.3433  0.2309 -0.4126
  153RES   C18543049   1.233   7.800   3.877 -0.6682  0.6921  0.1205
  153RES   C18643050   1.084   0.016   3.850 -0.5934  0.0199  0.6116
  153RES   C18743051   1.028   0.143   3.924 -0.2748  0.0921  0.4405
  153RES   O18843052   0.977   0.235   3.821 -0.1585 -0.5098 -0.0631
  153RES   C18943053   0.932   0.363   3.876 -0.1859 -0.0792 -0.0326
  153RES   H19043054   1.284   0.076   3.901  1.0185  0.5862 -2.7196
  153RES   H19143055   1.226   7.743   3.969  3.0230 -1.8748 -1.0865
  153RES   H19243056   1.085   0.029   3.742  2.0344  2.5564  0.8694
  153RES   H19343057   1.096   0.192   3.995 -3.9501  1.6105  3.0842
  153RES   H19443058   0.936   0.109   3.971  0.3495 -1.9401  0.2489
  153RES   H19543059   0.861   0.353   3.958 -0.2480 -1.2526 -0.2333
  153RES   H19643060   1.014   0.432   3.899  1.1951 -1.1623 -1.5401
  153RES   H19743061   0.876   0.414   3.798  1.8473  1.7641 -0.3507
  153RES   O19843062   1.006   7.724   3.873  0.2350 -0.6869  0.2371
  153RES   C19943063   0.880   7.723   3.816  0.6931 -0.5925 -0.4563
  153RES   C20043064   0.797   7.613   3.883  0.6890 -0.7259 -0.6756
  153RES   C20143065   0.684   7.562   3.801  0.1841 -0.3047  0.5657
  153RES   O20243066   0.619   7.678   3.737 -0.1168  0.3543 -0.4258
  153RES   C20343067   0.503   7.643   3.665 -0.4749  0.1143  0.0675
  153RES   H20443068   0.906   7.690   3.715  1.3956 -2.6725  0.3723
  153RES   H20543069   0.820   7.813   3.802 -0.1937 -1.1990 -0.5870
  153RES   H20643070   0.861   7.529   3.909  1.2347 -0.3794 -0.8856
  153RES   H20743071   0.726   7.496   3.724  0.7794 -0.1400  0.7486
  153RES   H20843072   0.615   7.510   3.867  0.2487 -3.6804 -1.8899
  153RES   H20943073   0.459   7.721   3.603 -0.1107  0.7715  0.6339
  153RES   H21043074   0.425   7.603   3.730 -1.0224  2.1357  0.6941
  153RES   H21143075   0.519   7.568   3.588  1.0163  1.4016 -0.8968
  153RES   O21243076   0.754   7.650   4.014 -0.6346 -0.4664  0.9885
  153RES   C21343077   0.852   7.661   4.117  0.3177  0.4160  0.1988
  153RES   C21443078   0.773   7.664   4.247  0.2411 -0.3062  0.1752
  153RES   C21543079   0.854   7.750   4.347 -0.0101  0.4509  1.1752
  153RES   O21643080   0.993   7.712   4.339 -0.4827  0.1919  0.1692
  153RES   C21743081   1.078   7.811   4.387  0.7676 -0.1722 -0.2737
  153RES   H21843082   0.903   7.756   4.102  0.1834  0.1595 -2.0942
  153RES   H21943083   0.931   7.587   4.126 -0.0754  0.0188  0.4051
  153RES   H22043084   0.679   7.712   4.221  0.7272  0.7550  0.3553
  153RES   H22143085   0.835   0.038   4.322 -0.0655 -0.0745 -1.0722
  153RES   H22243086   0.809   7.732   4.445 -0.9981 -1.4314  0.3966
  153RES   H22343087   1.167   7.760   4.424  0.0383 -1.1187  0.1986
  153RES   H22443088   1.028   0.046   4.469  1.0479 -0.1523 -0.1145
  153RES   H22543089   1.101   0.063   4.305  0.5260  0.0226 -0.1774
  153RES   O22643090   0.747   7.536   4.313 -0.3287  0.2464  0.1147
  153RES   C22743091   0.658   7.447   4.241 -0.0802  0.2445  1.0778
  153RES   C22843092   0.671   7.295   4.285  0.0592 -0.2922  0.1847
  153RES   C22943093   0.541   7.216   4.244 -0.2130 -0.4447 -0.2474
  153RES   O23043094   0.518   7.105   4.329 -0.3279  0.6837  0.1515
  153RES   C23143095   0.417   7.020   4.288 -0.7640 -0.2015 -1.1702
  153RES   H23243096   0.697   7.455   4.139  0.0766  1.6642  1.2409
  153RES   H23343097   0.555   7.480   4.251  0.4790  1.8614  1.5712
  153RES   H23443098   0.667   7.282   4.393 -0.0203  1.3919  0.3978
  153RES   H23543099   0.561   7.174   4.145 -0.9493 -0.2773 -0.4631
  153RES   H23643100   0.459   7.286   4.233 -0.7906 -1.1268 -0.3122
  153RES   H23743101   0.322   7.065   4.259 -0.5051  2.2595  1.6385
  153RES   H23843102   0.394   6.960   4.376 -3.8577 -1.3863 -2.6988
  153RES   H23943103   0.456   6.948   4.216 -1.2701 -0.3429 -1.3078
  153RES   O24043104   0.786   7.242   4.210  0.2256 -0.4584 -0.1909
  153RES   C24143105   0.912   7.258   4.267 -0.3151 -0.8710 -0.1614
  153RES   C24243106   1.016   7.210   4.166  0.4872  0.1255  0.2855
  153RES   C24343107   1.045   7.311   4.052  0.3988 -0.5854 -0.5380
  153RES   O24443108   1.127   7.263   3.943  0.0254 -0.6366 -0.2421
  153RES   C24543109   1.121   7.356   3.839  0.1189  0.4848  0.1928
  153RES   H24643110   0.908   7.190   4.352  0.5442  0.1689  0.7400
  153RES   H24743111   0.931   7.358   4.308  0.4574 -0.3800 -1.6850
  153RES   H24843112   0.980   7.115   4.128 -1.3896  0.1825  1.8620
  153RES   H24943113   0.948   7.353   4.026  0.5416  0.7604  1.0373
  153RES   H25043114   1.097   7.395   4.098 -0.3001 -1.1033  1.2594
  153RES   H25143115   1.192   7.325   3.762  1.3310 -0.9050  1.8333
  153RES   H25243116   1.153   7.458   3.860  2.3557 -0.3320  0.9742
  153RES   H25343117   1.020   7.355   3.799  1.2147  0.9609 -2.7534
  153RES   O25443118   1.141   7.200   4.234  0.3946 -0.0427  0.5471
  153RES   C25543119   1.159   7.088   4.321  0.1303  0.1706  0.1459
  153RES   C25643120   1.291   7.024   4.296 -0.4129  0.0019  0.2145
  153RES   C25743121   1.323   6.923   4.410  0.3955  0.3385  0.3429
  153RES   O25843122   1.456   6.884   4.405  0.5864 -0.0755 -0.0600
  153RES   C25943123   1.510   6.788   4.319 -0.4227  0.1870  0.3047
  153RES   H26043124   1.155   7.121   4.426 -2.1069  3.1098 -0.7705
  153RES   H26143125   1.083   7.010   4.315 -0.0382  0.5266 -2.7563
  153RES   H26243126   1.365   7.104   4.302  1.6312 -1.6764 -1.4577
  153RES   H26343127   1.289   6.960   4.507 -0.5749  1.0912 -0.2695
  153RES   H26443128   1.260   6.835   4.395 -1.3543  1.2971  1.8543
  153RES   H26543129   1.451   6.697   4.307 -1.2306  0.9149 -1.5630
  153RES   H26643130   1.613   6.764   4.346 -1.2312 -1.1860  2.2374
  153RES   H26743131   1.522   6.835   4.221  1.0749  0.9039  0.8150
  153RES   O26843132   1.304   6.957   4.171  0.2840 -0.3129  0.0262
  153RES   C26943133   1.361   7.049   4.081 -0.2182 -0.4816 -0.0641
  153RES   C27043134   1.356   6.969   3.950  0.1565 -0.2864 -0.2049
  153RES   C27143135   1.435   7.042   3.837 -0.0706 -0.0476 -0.7232
  153RES   O27243136   1.474   6.926   3.758  0.1368 -0.1881  0.0369
  153RES   C27343137   1.591   6.954   3.681 -0.3482  0.2727 -0.1532
  153RES   H27443138   1.465   7.079   4.092  0.8338 -3.7233 -0.8426
  153RES   H27543139   1.304   7.141   4.064 -1.6131 -1.4946 -1.0488
  153RES   H27643140   1.411   6.876   3.969 -0.0775 -0.1950  0.9488
  153RES   H27743141   1.518   7.098   3.882 -0.6123 -0.0464  0.3077
  153RES   H27843142   1.368   7.102   3.776  1.0262  1.8104 -0.1700
  153RES   H27943143   1.572   7.042   3.621 -2.0460 -0.1148 -0.1954
  153RES   H28043144   1.612   6.872   3.613  0.5220 -0.1248  0.5744
  153RES   H28143145   1.676   6.988   3.741 -0.2416  0.7375 -0.5640
  153RES   H28243146   1.256   6.954   3.911 -1.2936  1.8179  2.5256
  154RES     O143147   6.719   0.609   1.889  0.1246 -0.1718 -0.0830
  154RES     C243148   6.710   0.471   1.885 -0.6785 -0.5026 -0.0253
  154RES     C343149   6.839   0.402   1.930 -0.0498  1.4176  0.2052
  154RES     C443150   6.824   0.252   1.961  0.0769  0.0170 -0.0201
  154RES     O543151   6.937   0.194   2.020  0.0535  0.0837  0.3656
  154RES     C643152   6.918   0.058   2.042  0.3338  0.0537  0.6657
  154RES     H743153   6.637   0.430   1.955  1.5325 -2.4627  1.1866
  154RES     H843154   6.685   0.440   1.783 -2.9109 -3.2986  1.2995
  154RES     H943155   6.882   0.451   2.018 -0.5625 -1.5462  2.1987
  154RES    H1043156   6.791   0.197   1.873 -2.9347  2.7439 -0.6912
  154RES    H1143157   6.737   0.246   2.026 -2.0044 -0.9919 -2.7666
  154RES    H1243158   6.999   7.813   2.080  1.3638 -0.0666 -1.6270
  154RES    H1343159   6.828   0.039   2.101 -0.3408  0.3005 -0.2682
  154RES    H1443160   6.901   0.000   1.951 -0.0707 -0.5250  1.1012
  154RES    H1543161   6.789   0.627   1.829 -0.5473  0.2670 -0.7383
  154RES    O1643162   6.926   0.420   1.820 -0.0361  0.6509 -0.8093
  154RES    C1743163   7.067   0.421   1.853 -0.9663 -0.6901 -0.6198
  154RES    C1843164   7.160   0.397   1.735 -0.1305 -0.4680  0.0346
  154RES    C1943165   7.150   0.245   1.707  0.6619  0.7634  0.0673
  154RES    O2043166   7.270   0.195   1.658  0.4055 -0.2128 -0.4496
  154RES    C2143167   7.258   0.063   1.618 -0.0442 -0.2850  0.1362
  154RES    H2243168   7.096   0.354   1.934  0.3485  0.0830 -0.4407
  154RES    H2343169   7.103   0.518   1.887 -1.0105 -0.6945 -0.5585
  154RES    H2443170   7.261   0.416   1.773  0.2554  0.8643 -1.6235
  154RES    H2543171   7.103   0.181   1.782 -4.6337  2.7663 -1.3807
  154RES    H2643172   7.079   0.233   1.625  0.2357 -0.2623  0.5793
  154RES    H2743173   7.194   0.053   1.530  3.4578  0.2244 -2.5927
  154RES    H2843174   7.222   0.003   1.702  0.5360 -0.2245  0.4276
  154RES    H2943175   7.354   0.019   1.593  0.6957  1.1941  0.3709
  154RES    O3043176   7.120   0.487   1.630  0.1731 -0.2087 -0.0741
  154RES    C3143177   7.154   0.626   1.656  0.1357 -0.2183  0.5084
  154RES    C3243178   7.190   0.702   1.530 -0.3072 -0.8865  0.0044
  154RES    C3343179   7.340   0.684   1.489 -0.8904  0.0914  0.1081
  154RES    O3443180   7.342   0.705   1.347 -0.1019 -0.5838  0.4122
  154RES    C3543181   7.459   0.671   1.283  0.3662  0.8486  0.2461
  154RES    H3643182   7.061   0.651   1.706  0.0965  1.5612 -0.4002
  154RES    H3743183   7.240   0.628   1.723  0.2375  1.9808  0.3681
  154RES    H3843184   7.129   0.662   1.449  1.6145 -0.9584 -1.4463
  154RES    H3943185   7.371   0.580   1.501 -0.4299  0.3801  1.5584
  154RES    H4043186   7.412   0.748   1.540  0.7238 -1.9463  0.4474
  154RES    H4143187   7.452   0.668   1.174  0.2314  0.7998  0.2553
  154RES    H4243188   7.494   0.576   1.323 -1.8088 -0.0214  0.1647
  154RES    H4343189   7.528   0.751   1.306  0.0815  1.2664 -0.3387
  154RES    O4443190   7.155   0.840   1.568  0.3331 -0.4975 -1.2152
  154RES    C4543191   7.132   0.918   1.454  0.1705  0.3585  0.1105
  154RES    C4643192   7.067   1.050   1.487 -0.6901 -0.2405 -0.3719
  154RES    C4743193   7.062   1.128   1.353  0.9132 -0.2602  0.0463
  154RES    O4843194   6.975   1.062   1.266  0.0987 -0.1561  0.0979
  154RES    C4943195   6.947   1.126   1.145  0.3069 -0.3561 -0.1235
  154RES    H5043196   7.060   0.869   1.389 -0.0987 -0.4767  1.0354
  154RES    H5143197   7.220   0.931   1.391  0.5886  3.0598  1.1682
  154RES    H5243198   7.133   1.096   1.560 -0.1163 -1.0252 -0.3951
  154RES    H5343199   7.041   1.234   1.368  0.0599 -0.4602  0.2931
  154RES    H5443200   7.158   1.131   1.300  1.1195 -0.3275  0.4157
  154RES    H5543201   6.894   1.221   1.148  0.5245 -0.2235 -0.4349
  154RES    H5643202   6.865   1.077   1.092  0.0119  1.0364 -0.9716
  154RES    H5743203   7.041   1.127   1.089  0.4309 -0.7638  0.0746
  154RES    O5843204   6.927   1.035   1.527  0.9102 -0.0428 -0.3055
  154RES    C5943205   6.897   0.998   1.659 -0.0043 -0.4522  0.5495
  154RES    C6043206   6.748   0.975   1.674  0.9228 -0.4948  0.0303
  154RES    C6143207   6.706   0.978   1.825  0.0993  0.4601 -0.2022
  154RES    O6243208   6.572   0.996   1.842 -0.0273  0.2077 -0.0117
  154RES    C6343209   6.522   0.951   1.971 -0.6109 -1.2759  0.0480
  154RES    H6443210   6.943   1.081   1.713 -0.0722  1.0022 -1.5547
  154RES    H6543211   6.941   0.908   1.702 -1.4357 -0.2994  2.3795
  154RES    H6643212   6.702   1.062   1.627 -1.4787 -1.8221 -0.1640
  154RES    H6743213   6.745   0.890   1.877 -2.1579  0.1331  1.0311
  154RES    H6843214   6.758   1.059   1.876 -0.5410  0.9935 -0.3949
  154RES    H6943215   6.581   0.994   2.051 -0.8186  2.6976 -1.7820
  154RES    H7043216   6.533   0.843   1.964  0.0250 -1.3050  1.4189
  154RES    H7143217   6.417   0.979   1.974 -0.5871 -0.9284 -1.6031
  154RES    O7243218   6.715   0.848   1.615  0.2816  0.0297 -0.1070
  154RES    C7343219   6.587   0.835   1.561 -0.2340  0.1927 -0.5734
  154RES    C7443220   6.563   0.701   1.492  0.4659 -1.0083 -0.4094
  154RES    C7543221   6.611   0.576   1.574  0.2213 -0.5386  0.6134
  154RES    O7643222   6.579   0.452   1.519 -0.0047  0.3669 -0.3906
  154RES    C7743223   6.443   0.415   1.518  0.3042 -0.8136  0.3410
  154RES    H7843224   6.505   0.851   1.631  0.1561 -1.4462  0.2678
  154RES    H7943225   6.562   0.907   1.483  3.5061  0.7662 -1.3383
  154RES    H8043226   6.454   0.693   1.496  0.4466 -0.4093  0.4292
  154RES    H8143227   6.555   0.592   1.666  0.9251  1.2724  0.7585
  154RES    H8243228   6.714   0.590   1.605  0.5096 -2.0644  0.3744
  154RES    H8343229   6.436   0.329   1.452 -0.5251 -0.0746 -0.5630
  154RES    H8443230   6.384   0.501   1.484  1.4656  0.7528  2.1624
  154RES    H8543231   6.407   0.373   1.612  0.4249  1.0332  1.2406
  154RES    O8643232   6.598   0.695   1.351 -0.6940 -0.2918  0.3654
  154RES    C8743233   6.743   0.696   1.335  0.3104 -0.6786 -0.4366
  154RES    C8843234   6.773   0.675   1.182  0.9938  1.1361  0.1760
  154RES    C8943235   6.923   0.708   1.146 -0.0771  0.6326  0.1089
  154RES    O9043236   6.962   0.668   1.015  0.2279 -0.0480  0.6458
  154RES    C9143237   6.888   0.714   0.904 -0.1742 -0.6234  0.7699
  154RES    H9243238   6.777   0.794   1.369 -2.9310 -0.2542  1.7441
  154RES    H9343239   6.792   0.623   1.399  0.9650  0.5885  0.5449
  154RES    H9443240   6.722   0.745   1.117 -1.1777  1.1613  1.8620
  154RES    H9543241   6.954   0.810   1.167  1.3157  0.4569 -1.0624
  154RES    H9643242   6.999   0.657   1.205  1.2245  1.8806 -0.4608
  154RES    H9743243   6.903   0.821   0.889 -0.3426 -0.4919  1.5032
  154RES    H9843244   6.927   0.657   0.820  1.9528  0.3792  1.0663
  154RES    H9943245   6.781   0.693   0.911 -0.1943 -0.2614  1.6700
  154RES   O10043246   6.763   0.539   1.144 -0.2119 -0.3434 -0.7583
  154RES   C10143247   6.636   0.480   1.115  0.2334 -0.0348 -0.2927
  154RES   C10243248   6.639   0.326   1.076 -0.5224 -0.0570 -0.0930
  154RES   C10343249   6.549   0.294   0.950  0.3137 -0.4760  0.4177
  154RES   O10443250   6.592   0.166   0.903  0.3934  0.3239 -0.0047
  154RES   C10543251   6.500   0.102   0.818 -0.4550 -0.5313  0.1503
  154RES   H10643252   6.598   0.527   1.024 -1.1698 -1.1996 -0.3209
  154RES   H10743253   6.558   0.507   1.186  0.8898  0.3594  0.2858
  154RES   H10843254   6.743   0.294   1.066 -0.7607 -0.0811 -2.9529
  154RES   H10943255   6.559   0.367   0.870 -1.2393 -0.5103  0.1815
  154RES   H11043256   6.444   0.297   0.978  0.5275  0.2253  1.1552
  154RES   H11143257   6.551   0.015   0.775 -2.1034 -2.0562  1.1911
  154RES   H11243258   6.481   0.161   0.729  0.6567 -0.4344 -0.0334
  154RES   H11343259   6.409   0.067   0.868 -0.3645  1.3687  1.7130
  154RES   O11443260   6.579   0.258   1.190  0.9125 -0.4517 -0.9408
  154RES   C11543261   6.663   0.176   1.270 -0.1541  0.4095 -0.2514
  154RES   C11643262   6.779   0.244   1.339 -0.8036  0.3524 -0.0241
  154RES   C11743263   6.787   0.188   1.488 -0.6602 -0.9558  0.5828
  154RES   O11843264   6.813   0.048   1.484 -0.3569  0.4939 -0.0128
  154RES   C11943265   6.777   7.796   1.602  0.0243  0.2437  0.9062
  154RES   H12043266   6.594   0.137   1.345  0.2989 -0.9967 -0.5664
  154RES   H12143267   6.701   0.092   1.213 -0.8700 -0.6101  0.7561
  154RES   H12243268   6.760   0.350   1.351 -0.2936  0.4098  0.3430
  154RES   H12343269   6.869   0.240   1.537 -0.7402 -0.8481  0.6035
  154RES   H12443270   6.697   0.209   1.546 -0.3945 -0.9462  0.9917
  154RES   H12543271   6.681   0.014   1.642 -0.6920 -1.3781  0.6366
  154RES   H12643272   6.853   0.013   1.672  1.1482  1.0805 -0.7068
  154RES   H12743273   6.783   7.692   1.571 -0.7817  0.7098 -0.9119
  154RES   O12843274   6.905   0.226   1.273 -0.4971 -0.5431  0.4403
  154RES   C12943275   6.999   0.332   1.300  0.4848 -0.3419  0.2755
  154RES   C13043276   7.140   0.283   1.264 -0.5470  0.3933  0.3285
  154RES   C13143277   7.238   0.396   1.279 -0.3721  0.7963  0.1935
  154RES   O13243278   7.369   0.357   1.241 -0.1503 -0.0276  0.4440
  154RES   C13343279   7.445   0.286   1.334  0.0774  0.9420 -0.3190
  154RES   H13443280   6.964   0.417   1.241 -0.9015 -1.1340 -0.0590
  154RES   H13543281   6.986   0.368   1.402  2.0870  0.3086  0.2612
  154RES   H13643282   7.168   0.199   1.327  1.2826  2.3870  2.2644
  154RES   H13743283   7.238   0.423   1.385 -1.5255  0.7976  0.1931
  154RES   H13843284   7.198   0.485   1.230  2.6159  1.3099 -1.4149
  154RES   H13943285   7.414   0.181   1.337  0.7987  0.6918 -1.2813
  154RES   H14043286   7.545   0.267   1.295 -0.5899  0.7451 -1.9692
  154RES   H14143287   7.447   0.316   1.439 -0.1380  0.1925 -0.0941
  154RES   O14243288   7.135   0.227   1.132  0.4004  0.0129 -0.1851
  154RES   C14343289   7.097   0.300   1.023 -0.1891  0.2480 -0.4132
  154RES   C14443290   7.101   0.204   0.912  0.4526 -0.2457  0.1209
  154RES   C14543291   7.101   0.272   0.780 -0.2118  0.5523 -0.2983
  154RES   O14643292   7.000   0.365   0.766  0.3308  0.2231 -0.1054
  154RES   C14743293   6.873   0.324   0.722  0.4853 -0.1288 -0.1078
  154RES   H14843294   6.995   0.337   1.031  0.2017  1.9219 -2.8474
  154RES   H14943295   7.156   0.391   1.028 -0.9597  0.7765 -0.8055
  154RES   H15043296   7.190   0.141   0.920  0.8574  0.5383  2.0855
  154RES   H15143297   7.104   0.190   0.708  2.3187  0.1586  0.2055
  154RES   H15243298   7.201   0.314   0.768  0.9968 -2.5881 -1.9193
  154RES   H15343299   6.831   0.242   0.781  0.4308 -0.0771 -0.0759
  154RES   H15443300   6.865   0.275   0.625  0.9058  1.7069 -1.0775
  154RES   H15543301   6.803   0.407   0.722  1.0952  0.4207  1.7931
  154RES   O15643302   7.001   0.110   0.904  0.8038  0.4947 -0.3515
  154RES   C15743303   6.973   0.025   1.014 -0.2762 -0.9936  1.1936
  154RES   C15843304   6.873   7.727   0.957  0.1927 -0.4778 -0.1904
  154RES   C15943305   6.761   7.677   1.052  0.4621  0.6623  0.2797
  154RES   O16043306   6.695   7.558   0.997 -0.3249  0.0942  0.1001
  154RES   C16143307   6.562   7.554   1.014 -0.2923  0.1197 -0.6106
  154RES   H16243308   7.068   7.796   1.041  0.6090 -0.7184 -1.3211
  154RES   H16343309   6.931   0.077   1.101  0.3749  1.1639  0.2481
  154RES   H16443310   6.824   7.764   0.868 -3.3263  1.5353  2.4569
  154RES   H16543311   6.818   7.643   1.139 -0.4849 -1.8051 -0.0425
  154RES   H16643312   6.692   7.760   1.072 -0.6059 -0.0024 -0.6038
  154RES   H16743313   6.536   7.554   1.120  1.3865 -0.6023 -0.1883
  154RES   H16843314   6.520   7.464   0.968  0.8040 -1.6555  1.7996
  154RES   H16943315   6.506   7.634   0.966  1.3993  2.4509  1.1765
  154RES   O17043316   6.949   7.607   0.933  0.0142 -0.2855  0.2114
  154RES   C17143317   7.032   7.600   0.814 -0.0089 -1.0529  0.0146
  154RES   C17243318   7.082   7.451   0.795  0.4551  0.1941  0.2661
  154RES   C17343319   6.968   7.349   0.808  0.0821  0.1185  0.2120
  154RES   O17443320   7.019   7.233   0.749  0.2021 -0.1715 -0.1374
  154RES   C17543321   6.969   7.111   0.803  0.1608 -0.3759 -0.1917
  154RES   H17643322   7.111   7.675   0.816  1.1298 -2.2690  2.6839
  154RES   H17743323   6.973   7.632   0.728 -1.5059  0.1326  1.4518
  154RES   H17843324   7.126   7.438   0.696  1.0988 -0.6662  0.6555
  154RES   H17943325   6.936   7.337   0.912  2.7250 -0.8121  0.9488
  154RES   H18043326   6.881   7.382   0.750 -0.3307  0.2574  0.8980
  154RES   H18143327   6.871   7.082   0.764 -0.4632  0.3473  0.8192
  154RES   H18243328   6.962   7.109   0.911 -0.7507 -1.9815 -0.2565
  154RES   H18343329   7.041   7.035   0.773  1.3567  0.5787  0.2349
  154RES   O18443330   7.180   7.440   0.898  0.3125  0.3900  0.0002
  154RES   C18543331   7.312   7.395   0.856  0.4899  0.3833 -0.4236
  154RES   C18643332   7.399   7.515   0.801 -0.7858  0.4380 -0.3735
  154RES   C18743333   7.521   7.462   0.724 -0.4804 -0.3118 -0.0183
  154RES   O18843334   7.594   7.573   0.670 -0.4307 -0.3386  0.4746
  154RES   C18943335   7.735   7.540   0.663 -0.1277  0.9368  0.5225
  154RES   H19043336   7.307   7.312   0.786  1.4794 -1.5706  1.7556
  154RES   H19143337   7.360   7.355   0.945  0.8031  0.8308 -0.3883
  154RES   H19243338   7.343   7.575   0.729 -0.5136  0.7941 -0.2900
  154RES   H19343339   7.491   7.383   0.655  0.5285 -0.7018 -0.0167
  154RES   H19443340   7.575   7.400   0.796 -0.6944 -1.2280 -0.6377
  154RES   H19543341   7.760   7.471   0.582  0.4349  0.2099  1.3002
  154RES   H19643342   7.785   7.625   0.617  1.1433  0.1401  0.3980
  154RES   H19743343   7.786   7.524   0.759  0.4082 -1.4018 -0.1122
  154RES   O19843344   7.452   7.577   0.925  0.0432 -0.0807  0.5107
  154RES   C19943345   7.483   7.713   0.899  0.1558  0.6556  0.2239
  154RES   C20043346   7.468   7.790   1.026 -0.1042 -0.8744 -0.2008
  154RES   C20143347   7.499   0.119   1.006  0.4827 -0.1986  0.2213
  154RES   O20243348   7.624   0.149   0.948  0.5038  0.2584 -0.2609
  154RES   C20343349   7.694   0.260   0.998  1.3216 -0.2274  0.1326
  154RES   H20443350   7.402   7.751   0.836  1.8906  1.7617 -1.4119
  154RES   H20543351   7.581   7.721   0.852 -0.1502 -0.6265 -0.6522
  154RES   H20643352   7.369   7.776   1.069 -0.2573 -1.8553 -0.8561
  154RES   H20743353   7.421   0.168   0.948  1.3666 -0.0194 -0.8544
  154RES   H20843354   7.501   0.165   1.104 -1.7472 -1.6472  0.9891
  154RES   H20943355   7.655   0.357   0.967 -1.0316 -1.0599  0.4375
  154RES   H21043356   7.793   0.269   0.953  0.9725  3.6130 -0.0647
  154RES   H21143357   7.706   0.261   1.107 -1.8788  2.0867  0.5411
  154RES   O21243358   7.562   7.740   1.125  0.7026  0.7665  0.0358
  154RES   C21343359   7.504   7.694   1.247  1.0284 -0.0228  0.5985
  154RES   C21443360   7.630   7.641   1.326 -0.6245  0.3527  0.3389
  154RES   C21543361   7.585   7.548   1.436 -0.5791 -0.5633 -0.5265
  154RES   O21643362   7.692   7.462   1.479  0.5697 -0.0650  0.7392
  154RES   C21743363   7.679   7.405   1.605 -0.4495 -0.7906 -0.2284
  154RES   H21843364   7.430   7.619   1.221 -0.1195  1.7338 -1.3314
  154RES   H21943365   7.457   7.772   1.307 -1.6643 -0.3340 -1.0305
  154RES   H22043366   7.693   7.578   1.263 -0.3837 -1.4299  2.3119
  154RES   H22143367   7.563   7.613   1.521  0.2018  2.6823 -2.7392
  154RES   H22243368   7.490   7.502   1.409 -0.4853 -1.2647  0.3011
  154RES   H22343369   7.764   7.338   1.619  0.4669  0.5880  0.8920
  154RES   H22443370   7.590   7.342   1.609 -1.2750  0.4904  2.4914
  154RES   H22543371   7.677   7.480   1.683 -1.9559 -0.2789 -0.7409
  154RES   O22643372   7.684   7.758   1.393 -0.0380  0.0160 -0.4199
  154RES   C22743373   7.808   7.805   1.343 -0.4909  0.3490  0.0320
  154RES   C22843374   0.033   0.118   1.418 -0.8280  0.0290  0.1408
  154RES   C22943375   0.115   0.070   1.535  1.1484  0.2130  0.2685
  154RES   O23043376   0.118   0.166   1.639 -0.1301  0.2043  0.6876
  154RES   C23143377   0.116   0.111   1.766  0.3479 -0.1446 -0.2293
  154RES   H23243378   7.786   0.014   1.239 -0.1968  0.2347 -0.0568
  154RES   H23343379   0.070   7.731   1.348 -2.0370 -1.2272  2.5889
  154RES   H23443380   7.751   0.152   1.447 -1.2082  0.0507 -1.1548
  154RES   H23543381   0.220   0.056   1.509  1.0285 -1.9534  0.8402
  154RES   H23643382   0.082   7.788   1.566  1.6186 -0.0886 -0.1942
  154RES   H23743383   0.210   0.063   1.792 -0.4325 -1.4742  0.1711
  154RES   H23843384   0.031   0.046   1.787 -2.5276  2.1781 -3.7805
  154RES   H23943385   0.112   0.198   1.831 -4.0643 -0.9958  0.7909
  154RES   O24043386   0.096   0.193   1.317 -0.2611 -0.1733  0.4527
  154RES   C24143387   0.149   0.320   1.349  0.3644 -0.3377  0.1938
  154RES   C24243388   0.143   0.416   1.228 -0.0363 -0.1566 -0.0463
  154RES   C24343389   0.178   0.560   1.269  0.5239 -0.4359 -0.0153
  154RES   O24443390   0.305   0.572   1.337  0.4319  0.0849  0.2593
  154RES   C24543391   0.341   0.704   1.373 -0.0175 -0.1039 -0.2408
  154RES   H24643392   0.248   0.305   1.393  1.0381 -1.3307 -1.5846
  154RES   H24743393   0.089   0.358   1.432 -0.9469 -1.8569 -0.0217
  154RES   H24843394   0.038   0.425   1.201 -0.4193  1.5020  1.8249
  154RES   H24943395   0.161   0.624   1.182 -0.3297 -0.5301  0.0786
  154RES   H25043396   0.100   0.591   1.338  1.6220  1.9075  0.1991
  154RES   H25143397   0.354   0.762   1.282 -0.8621  0.2803 -0.1206
  154RES   H25243398   0.440   0.712   1.418  1.1355 -2.8592 -2.2093
  154RES   H25343399   0.262   0.756   1.428  0.8321  0.8416  0.0894
  154RES   O25443400   0.212   0.368   1.117  0.0007 -0.1929  0.0552
  154RES   C25543401   0.354   0.372   1.120  0.4314  0.5659  0.2551
  154RES   C25643402   0.408   0.482   1.030 -0.8544 -0.0969  0.2230
  154RES   C25743403   0.539   0.555   1.078 -0.7386 -0.1636  0.6418
  154RES   O25843404   0.535   0.695   1.066  0.0728  0.9555  0.4781
  154RES   C25943405   0.556   0.728   0.924  0.0381  0.3257  0.1900
  154RES   H26043406   0.397   0.344   1.216 -2.3619 -2.9483  0.5654
  154RES   H26143407   0.383   0.279   1.071 -1.0806  0.3540 -0.2510
  154RES   H26243408   0.329   0.557   1.023  2.3919  3.3121 -1.2332
  154RES   H26343409   0.556   0.545   1.186 -2.0921  2.0046  1.0807
  154RES   H26443410   0.624   0.514   1.023 -0.8977  1.0632 -0.5324
  154RES   H26543411   0.472   0.698   0.862 -0.1279 -2.1356  1.5663
  154RES   H26643412   0.654   0.690   0.893 -0.1157  1.7344 -2.1581
  154RES   H26743413   0.577   0.834   0.932 -1.4161  0.6065  0.3842
  154RES   O26843414   0.437   0.418   0.905 -0.2965 -0.6851  0.1448
  154RES   C26943415   0.334   0.423   0.812 -0.2931 -0.3015  0.3768
  154RES   C27043416   0.396   0.353   0.693  0.0309 -0.4886 -0.0924
  154RES   C27143417   0.439   0.204   0.723  0.3241 -0.5065 -0.5158
  154RES   O27243418   0.444   0.132   0.598 -0.1929  0.0582  0.0853
  154RES   C27343419   0.471   7.812   0.617  0.3763 -0.6377  0.1124
  154RES   H27443420   0.314   0.528   0.792 -2.0434 -0.8603 -0.9310
  154RES   H27543421   0.251   0.358   0.842 -0.6100  0.0441  0.2497
  154RES   H27643422   0.335   0.354   0.603 -0.8722 -0.5791  0.5055
  154RES   H27743423   0.364   0.160   0.789 -1.0061  0.3384 -1.4526
  154RES   H27843424   0.543   0.204   0.758  0.6438  2.9745 -1.2865
  154RES   H27943425   0.403   7.768   0.690  0.6485 -1.0170  0.1383
  154RES   H28043426   0.567   7.805   0.667 -0.0500 -1.9464  0.7810
  154RES   H28143427   0.471   7.760   0.521  1.2969  0.8141 -0.6823
  154RES   H28243428   0.490   0.403   0.670 -0.0750 -0.6523 -0.8892
  155RES     O143429   4.987   3.750   5.730 -0.6620  0.1526 -0.0348
  155RES     C243430   4.918   3.785   5.619 -0.3888  0.0981 -0.6694
  155RES     C343431   5.000   3.839   5.507 -0.7623 -0.7084 -0.2221
  155RES     C443432   4.921   3.858   5.380 -0.6503  0.3491  0.1750
  155RES     O543433   4.814   3.946   5.400  0.3542 -0.5444 -0.7462
  155RES     C643434   4.730   3.942   5.284  0.1525 -0.3505 -0.1480
  155RES     H743435   4.860   3.701   5.581  0.9542 -0.0420 -2.4766
  155RES     H843436   4.844   3.857   5.655 -1.6923 -2.0071  0.9627
  155RES     H943437   5.079   3.764   5.501 -2.3839 -2.4515 -0.2652
  155RES    H1043438   4.887   3.760   5.347  0.4026  0.3093 -0.8253
  155RES    H1143439   4.981   3.889   5.295  1.1392 -1.0228  0.9140
  155RES    H1243440   4.788   3.967   5.195 -0.9723  1.0192 -0.5088
  155RES    H1343441   4.698   3.844   5.249  1.7214 -1.0790  0.4254
  155RES    H1443442   4.649   4.015   5.279  1.4111  1.1427  0.5837
  155RES    H1543443   5.032   3.824   5.766  0.7305  0.2675 -1.9266
  155RES    O1643444   5.045   3.968   5.545  0.7104 -0.4774 -0.1368
  155RES    C1743445   5.161   4.011   5.474  0.1202 -0.1224 -0.2998
  155RES    C1843446   5.202   4.144   5.539 -0.2422  0.4589  0.3437
  155RES    C1943447   5.115   4.270   5.501  0.1243  0.6634  0.1681
  155RES    O2043448   5.206   4.379   5.512  0.0870 -0.0763 -0.4850
  155RES    C2143449   5.162   4.502   5.456 -0.3403 -0.3906 -0.1731
  155RES    H2243450   5.137   4.020   5.368 -1.5578 -1.9707 -0.1275
  155RES    H2343451   5.237   3.935   5.490  0.2850  0.6778  3.2484
  155RES    H2443452   5.307   4.164   5.518 -0.0127 -1.5239 -0.5015
  155RES    H2543453   5.090   4.265   5.395  0.6820 -2.0479  0.1166
  155RES    H2643454   5.025   4.299   5.554  0.3068  3.0597 -0.7718
  155RES    H2743455   5.153   4.489   5.348 -0.7479 -1.2106 -0.0447
  155RES    H2843456   5.242   4.572   5.479  0.0247 -0.4903 -1.1146
  155RES    H2943457   5.070   4.536   5.504  0.3328  4.3304 -1.9443
  155RES    O3043458   5.192   4.128   5.675  0.1093 -0.5405 -0.1352
  155RES    C3143459   5.303   4.050   5.728  0.1221 -0.8411 -0.1419
  155RES    C3243460   5.286   4.014   5.878  0.5557 -0.5433  0.2117
  155RES    C3343461   5.393   3.911   5.917  0.7295  0.3408  0.1488
  155RES    O3443462   5.415   3.908   6.058  0.1334  0.1556 -0.0748
  155RES    C3543463   5.452   3.776   6.094 -0.5225  0.5367 -0.3327
  155RES    H3643464   5.298   3.953   5.679 -2.0059 -1.3689  1.0539
  155RES    H3743465   5.399   4.097   5.705  0.2140 -0.8743  0.1705
  155RES    H3843466   5.296   4.103   5.940  1.3071  1.1294 -2.1981
  155RES    H3943467   5.482   3.933   5.860  0.2205  1.7533 -0.1257
  155RES    H4043468   5.349   3.814   5.892  1.8073 -0.2322  0.4404
  155RES    H4143469   5.485   3.759   6.197  2.8224 -0.7702 -1.5588
  155RES    H4243470   5.531   3.734   6.033 -0.1633  3.6745 -2.1498
  155RES    H4343471   5.368   3.707   6.090  1.4868 -1.8415 -2.7271
  155RES    O4443472   5.157   3.949   5.899 -0.5778 -0.6253 -0.0008
  155RES    C4543473   5.114   3.927   6.037 -0.0156 -0.0599 -0.6187
  155RES    C4643474   4.967   3.896   6.054  0.9632  0.4132 -0.1304
  155RES    C4743475   4.934   3.847   6.197  0.4672 -0.3687  0.2932
  155RES    O4843476   4.795   3.839   6.197 -0.0893 -0.3520  0.1167
  155RES    C4943477   4.745   3.801   6.324 -0.4670 -0.9901  0.5344
  155RES    H5043478   5.147   4.007   6.104  0.6744 -0.7716 -0.0947
  155RES    H5143479   5.178   3.851   6.082 -3.7932 -3.2069 -0.3486
  155RES    H5243480   4.930   3.816   5.989  1.8196  0.0096 -0.1258
  155RES    H5343481   4.968   3.744   6.204  0.6220 -0.3626 -0.3504
  155RES    H5443482   4.984   3.897   6.280 -0.7182 -0.6976  1.2221
  155RES    H5543483   4.647   3.755   6.313  0.0880 -1.9420 -0.7078
  155RES    H5643484   4.727   3.893   6.379  1.1159  0.1401 -0.7519
  155RES    H5743485   4.807   3.730   6.380 -0.4072 -0.5614  1.0128
  155RES    O5843486   4.886   4.014   6.028  0.0132 -0.4884 -0.2291
  155RES    C5943487   4.871   4.048   5.891 -0.6414  0.3717 -0.2533
  155RES    C6043488   4.762   4.156   5.881  0.5985 -0.8180 -0.3524
  155RES    C6143489   4.709   4.174   5.734  0.2558  0.6823 -0.1220
  155RES    O6243490   4.573   4.217   5.721 -0.1637 -0.3180 -0.1703
  155RES    C6343491   4.532   4.197   5.594  0.2964 -0.1184  0.4487
  155RES    H6443492   4.837   3.960   5.835 -0.5866 -0.0899  0.4400
  155RES    H6543493   4.962   4.086   5.846  1.0661 -0.5624  2.3537
  155RES    H6643494   4.676   4.120   5.936 -0.3550 -0.6387 -1.7047
  155RES    H6743495   4.780   4.232   5.675 -0.7629  0.8872 -1.1667
  155RES    H6843496   4.718   4.084   5.673  0.4040 -0.9302  2.1983
  155RES    H6943497   4.435   4.245   5.579  1.9604  3.0696 -0.5071
  155RES    H7043498   4.509   4.091   5.588 -0.9754  0.1510  0.4644
  155RES    H7143499   4.598   4.235   5.516  1.0453  0.7202  1.4725
  155RES    O7243500   4.816   4.284   5.922 -0.4309  0.2393 -0.3588
  155RES    C7343501   4.724   4.386   5.957  0.4659 -1.0269 -0.1917
  155RES    C7443502   4.812   4.487   6.033 -0.7975  0.0737  0.1068
  155RES    C7543503   4.726   4.598   6.097  0.0434  0.2529 -0.3518
  155RES    O7643504   4.794   4.675   6.194  0.2777 -0.1908 -0.1730
  155RES    C7743505   4.711   4.756   6.271  0.5676 -0.0711  0.3140
  155RES    H7843506   4.695   4.439   5.867  1.5304 -0.5250 -0.2564
  155RES    H7943507   4.635   4.353   6.010 -1.3446  0.1641 -2.4066
  155RES    H8043508   4.870   4.437   6.110  0.3247 -0.0476 -0.7947
  155RES    H8143509   4.630   4.560   6.132 -0.1133  0.4607 -0.5457
  155RES    H8243510   4.696   4.670   6.020 -3.4141  0.0066  0.6900
  155RES    H8343511   4.764   4.788   6.361  1.1463 -2.0604  0.7029
  155RES    H8443512   4.620   4.704   6.302 -0.0645 -0.2561 -1.7412
  155RES    H8543513   4.701   4.835   6.196 -0.2723  0.8050  1.3333
  155RES    O8643514   4.888   4.552   5.936 -0.5072  0.1103  0.3696
  155RES    C8743515   5.016   4.595   5.973 -0.3449 -0.0527 -0.1831
  155RES    C8843516   5.093   4.642   5.845 -0.2007 -0.0792  0.2620
  155RES    C8943517   5.058   4.787   5.819  0.6129  0.8368 -0.4352
  155RES    O9043518   5.080   4.836   5.689 -0.4950  0.5864 -0.0783
  155RES    C9143519   5.216   4.845   5.655  0.2699  0.1524 -0.2896
  155RES    H9243520   5.010   4.672   6.051  0.2832 -1.0821  0.9126
  155RES    H9343521   5.064   4.510   6.022  1.1158  0.2866 -0.9971
  155RES    H9443522   5.051   4.588   5.761 -2.3138  0.3202  1.0266
  155RES    H9543523   4.953   4.803   5.842  0.2578 -0.4218 -1.1651
  155RES    H9643524   5.099   4.854   5.895 -1.6283 -0.2560  1.8079
  155RES    H9743525   5.264   4.749   5.676  1.6285  0.7035 -0.7767
  155RES    H9843526   5.227   4.869   5.549 -0.3653  0.9267 -0.1821
  155RES    H9943527   5.266   4.916   5.720 -1.7087  0.2594  1.1275
  155RES   O10043528   5.229   4.618   5.864 -0.2940  0.2092 -0.5872
  155RES   C10143529   5.277   4.477   5.857  0.0891  0.8006  0.2101
  155RES   C10243530   5.427   4.466   5.831  0.3434 -0.2359 -0.4283
  155RES   C10343531   5.466   4.510   5.687 -0.4544 -0.8313  0.3276
  155RES   O10443532   5.607   4.533   5.678 -0.0230 -0.0332 -0.6788
  155RES   C10543533   5.671   4.491   5.558  0.2139  0.6530 -0.1676
  155RES   H10643534   5.220   4.410   5.794  0.6003  1.1516 -0.6415
  155RES   H10743535   5.260   4.439   5.958  1.5330 -0.4128  0.0169
  155RES   H10843536   5.463   4.537   5.905 -2.4804  1.7148 -0.8274
  155RES   H10943537   5.412   4.599   5.654  0.2450 -0.6708 -0.4023
  155RES   H11043538   5.432   4.438   5.612 -1.3448 -0.7974  0.6959
  155RES   H11143539   5.778   4.500   5.575  0.4688 -1.1837 -0.6378
  155RES   H11243540   5.652   4.550   5.469  0.1770  0.2360 -0.4341
  155RES   H11343541   5.654   4.384   5.542 -0.4423  0.2756  2.6658
  155RES   O11443542   5.477   4.333   5.844  0.1728  0.0490  0.6918
  155RES   C11543543   5.606   4.325   5.901 -0.5252  0.5364  0.1372
  155RES   C11643544   5.663   4.182   5.897  0.1924  0.0376  0.0221
  155RES   C11743545   5.720   4.145   5.756  0.8253 -0.2012 -0.3568
  155RES   O11843546   5.756   4.003   5.744  0.3560  0.0451 -0.1041
  155RES   C11943547   5.828   3.979   5.615  0.4168 -0.1030 -0.9593
  155RES   H12043548   5.679   4.391   5.855  0.7917 -1.7160 -1.0503
  155RES   H12143549   5.602   4.340   6.009  0.7023  0.1016  0.2521
  155RES   H12243550   5.584   4.114   5.929 -2.4023  3.0490  0.2005
  155RES   H12343551   5.640   4.172   5.687 -0.6822  1.4028  1.9761
  155RES   H12443552   5.806   4.209   5.735  0.1339  0.9810  0.3889
  155RES   H12543553   5.935   3.994   5.628  0.6761 -1.5319 -1.3849
  155RES   H12643554   5.796   4.030   5.523 -0.0332  0.9918 -0.2073
  155RES   H12743555   5.827   3.873   5.591 -0.5307 -0.1274 -0.8260
  155RES   O12843556   5.762   4.179   5.998 -0.3325  0.2519 -0.0438
  155RES   C12943557   5.820   4.055   6.034 -0.4905 -0.5202 -0.4380
  155RES   C13043558   5.846   4.055   6.184 -0.5573 -0.2811  0.4368
  155RES   C13143559   5.959   4.151   6.213 -0.7205  0.2738  0.4739
  155RES   O13243560   5.991   4.179   6.351 -0.4325 -0.2235  0.6437
  155RES   C13343561   6.057   4.066   6.417  0.2074  0.1144  0.7971
  155RES   H13443562   5.755   3.978   5.992  0.0248 -0.8597 -0.6329
  155RES   H13543563   5.917   4.037   5.986  0.7306  1.4674  1.1704
  155RES   H13643564   5.762   4.080   6.249  0.4790  1.9085  1.0063
  155RES   H13743565   5.948   4.243   6.155 -1.5756 -0.1450 -0.0385
  155RES   H13843566   6.051   4.102   6.182 -0.4688  1.2144 -0.3028
  155RES   H13943567   6.003   3.974   6.439 -1.5888  0.5491 -1.5436
  155RES   H14043568   6.148   4.044   6.362 -0.0602 -0.7051  0.6724
  155RES   H14143569   6.087   4.103   6.515 -0.7273  1.5396  0.5582
  155RES   O14243570   5.885   3.921   6.211 -0.3798 -0.7090 -0.1356
  155RES   C14343571   5.769   3.837   6.224  0.0374  0.7675 -0.1501
  155RES   C14443572   5.817   3.706   6.292  0.4986  0.4456  0.9815
  155RES   C14543573   5.707   3.597   6.295 -0.3876  0.2185 -0.5134
  155RES   O14643574   5.675   3.566   6.162  0.2265 -0.6769  0.6595
  155RES   C14743575   5.729   3.446   6.105 -0.4165 -0.4143 -0.3146
  155RES   H14843576   5.690   3.881   6.285  0.8689  2.5728 -0.3440
  155RES   H14943577   5.732   3.813   6.125 -0.8817 -2.6497  0.9368
  155RES   H15043578   5.894   3.656   6.233 -0.4041 -0.6178  0.6878
  155RES   H15143579   5.616   3.636   6.341 -0.6655 -0.9057 -0.0949
  155RES   H15243580   5.732   3.509   6.355  1.7399  0.3257 -1.1804
  155RES   H15343581   5.693   3.355   6.153  0.3089 -0.7704 -0.4421
  155RES   H15443582   5.838   3.445   6.112 -0.4866 -0.0865  1.0000
  155RES   H15543583   5.716   3.433   5.997 -0.7602  0.7978 -0.4251
  155RES   O15643584   5.863   3.740   6.416  0.0984 -0.3956  0.1443
  155RES   C15743585   5.952   3.654   6.481  0.1877 -0.0471  0.1015
  155RES   C15843586   6.012   3.717   6.604 -0.1930  0.0623  0.0686
  155RES   C15943587   6.104   3.612   6.676  0.1570  1.2885 -0.7304
  155RES   O16043588   6.227   3.672   6.703 -0.1403 -0.4467 -0.1484
  155RES   C16143589   6.316   3.572   6.755  0.6095  0.3632 -0.4896
  155RES   H16243590   5.906   3.559   6.509  0.4382 -0.1800  0.0660
  155RES   H16343591   6.035   3.638   6.413  0.3418 -0.0055  0.2797
  155RES   H16443592   6.071   3.803   6.573 -2.4524  1.9274  0.8367
  155RES   H16543593   6.062   3.575   6.770  1.4826 -2.6121 -1.5748
  155RES   H16643594   6.124   3.521   6.619  0.9265 -1.5918  3.8806
  155RES   H16743595   6.414   3.611   6.781  1.8346 -3.0019  0.2104
  155RES   H16843596   6.332   3.480   6.699 -1.5146 -0.2184 -0.1917
  155RES   H16943597   6.280   3.547   6.855  3.0225 -0.2499  0.2608
  155RES   O17043598   5.914   3.751   6.701 -0.1465  0.3277 -0.5256
  155RES   C17143599   5.952   3.849   6.798  0.6233 -0.1945  0.4366
  155RES   C17243600   5.889   3.808   6.934  1.1414  0.1991 -0.2356
  155RES   C17343601   5.908   3.908   7.046 -0.3922 -0.2072  0.1689
  155RES   O17443602   5.806   3.876   7.147 -0.4297  0.4847  0.5978
  155RES   C17543603   5.771   4.001   7.221  0.6012 -0.9599 -0.5965
  155RES   H17643604   5.922   3.949   6.764  1.4003 -0.2100 -0.3246
  155RES   H17743605   6.058   3.855   6.822  0.3471  0.0726  1.6397
  155RES   H17843606   5.781   3.798   6.926  1.1765 -0.6066  0.3050
  155RES   H17943607   6.005   3.905   7.095 -0.7853  3.4129  1.3555
  155RES   H18043608   5.893   4.007   7.004 -1.5494  0.2302  1.5481
  155RES   H18143609   5.697   4.067   7.176  0.3750 -0.2992  0.7083
  155RES   H18243610   5.856   4.064   7.245 -0.0871 -0.0093 -0.6267
  155RES   H18343611   5.718   3.979   7.314 -1.5689  0.7245 -1.4034
  155RES   O18443612   5.940   3.680   6.966  0.4134 -0.7096 -0.3047
  155RES   C18543613   5.857   3.595   7.042  0.2254  0.1060  0.1883
  155RES   C18643614   5.939   3.470   7.097 -0.2788 -0.1540  0.2783
  155RES   C18743615   6.063   3.506   7.187  1.0260  0.5301 -0.2809
  155RES   O18843616   6.086   3.391   7.266  0.2451  0.2009  0.2354
  155RES   C18943617   6.187   3.399   7.359 -0.4793 -0.1083 -0.1606
  155RES   H19043618   5.775   3.564   6.978 -0.0948 -1.7160  1.4489
  155RES   H19143619   5.801   3.646   7.119 -1.1012  1.5383 -1.6822
  155RES   H19243620   5.870   3.412   7.158  0.3806 -0.2087  0.9778
  155RES   H19343621   6.029   3.585   7.253  2.9280 -0.3204  1.8000
  155RES   H19443622   6.154   3.537   7.134 -0.3111  0.0995 -2.9162
  155RES   H19543623   6.282   3.425   7.312  0.3091 -3.2216 -0.3823
  155RES   H19643624   6.169   3.481   7.428 -0.1110  1.6674 -2.1302
  155RES   H19743625   6.190   3.306   7.415  3.1269  0.4545  0.6677
  155RES   O19843626   5.996   3.404   6.981  0.5471  0.2590  0.1742
  155RES   C19943627   5.906   3.306   6.943  0.4174 -0.7097 -0.3553
  155RES   C20043628   5.919   3.268   6.796  0.3308 -0.0369 -0.5161
  155RES   C20143629   5.804   3.175   6.752 -0.5795  0.0500 -0.9434
  155RES   O20243630   5.810   3.068   6.840 -0.7598  0.0803 -0.4480
  155RES   C20343631   5.713   2.966   6.825  0.6144 -0.3912 -0.3846
  155RES   H20443632   5.803   3.323   6.975  0.8653  0.7885  0.3510
  155RES   H20543633   5.931   3.214   6.997 -0.3985 -1.1496 -0.7179
  155RES   H20643634   5.914   3.361   6.738 -1.6185  0.3090  0.1747
  155RES   H20743635   5.713   3.230   6.772 -1.0512 -1.1247  0.1767
  155RES   H20843636   5.819   3.139   6.650  0.3371  0.2757 -0.8980
  155RES   H20943637   5.746   2.864   6.848 -0.2929  0.1211  3.3849
  155RES   H21043638   5.689   2.951   6.719 -0.1262 -1.2996 -0.1041
  155RES   H21143639   5.617   2.993   6.870  0.7354  1.4973 -1.2329
  155RES   O21243640   6.035   3.198   6.763 -0.3505  0.8971  0.3368
  155RES   C21343641   6.162   3.253   6.801 -0.2918  0.1365  0.2432
  155RES   C21443642   6.270   3.195   6.716  0.3967 -0.5278 -0.5697
  155RES   C21543643   6.400   3.184   6.792 -0.2270  0.2342  0.0714
  155RES   O21643644   6.500   3.122   6.712  0.0342 -0.1912  0.2947
  155RES   C21743645   6.609   3.080   6.786 -0.4934 -0.5437 -0.4498
  155RES   H21843646   6.189   3.230   6.904 -0.0182 -1.5131 -0.1750
  155RES   H21943647   6.159   3.362   6.792 -0.0184  0.4566  3.4099
  155RES   H22043648   6.232   3.093   6.707 -0.1780 -0.4721  1.1294
  155RES   H22143649   6.436   3.283   6.821 -2.4651  0.3744  2.6175
  155RES   H22243650   6.385   3.133   6.887 -1.2524  0.4327  0.0235
  155RES   H22343651   6.683   3.158   6.805 -0.4111 -0.1480 -2.3343
  155RES   H22443652   6.665   3.009   6.725  2.1759 -1.0823  2.5078
  155RES   H22543653   6.587   3.030   6.881  1.1967 -1.9941 -0.7973
  155RES   O22643654   6.307   3.262   6.592  0.1011  0.0166 -0.0175
  155RES   C22743655   6.200   3.257   6.495 -0.4480 -0.2672  0.0318
  155RES   C22843656   6.229   3.353   6.379 -0.3616 -0.9244  0.0234
  155RES   C22943657   6.126   3.335   6.264 -0.2822 -0.3784  0.1043
  155RES   O23043658   6.186   3.387   6.150 -0.3857  0.1443  0.1674
  155RES   C23143659   6.118   3.346   6.036 -0.5361  0.2675  0.4166
  155RES   H23243660   6.110   3.298   6.541  0.5117 -0.6340  2.2939
  155RES   H23343661   6.183   3.155   6.458  2.4259  0.0178 -2.2516
  155RES   H23443662   6.323   3.313   6.342  1.4109  0.4624  2.8286
  155RES   H23543663   6.028   3.380   6.280 -0.6228 -0.5882 -1.3225
  155RES   H23643664   6.117   3.226   6.255 -0.0829 -0.3927  0.0649
  155RES   H23743665   6.119   3.238   6.023  1.1764 -0.1151  3.3476
  155RES   H23843666   6.187   3.381   5.959 -0.3988  0.4175  0.6088
  155RES   H23943667   6.014   3.371   6.014 -1.6322  0.2830  5.2040
  155RES   O24043668   6.231   3.493   6.411  0.4128  0.2534  0.1126
  155RES   C24143669   6.353   3.550   6.369 -0.1371 -0.1942  0.2829
  155RES   C24243670   6.340   3.699   6.352  0.7020 -0.2487  0.3816
  155RES   C24343671   6.469   3.757   6.395  0.1297 -0.0113  0.1417
  155RES   O24443672   6.453   3.898   6.385 -0.1716 -1.0841 -0.2232
  155RES   C24543673   6.560   3.973   6.455  0.4286 -0.4432 -0.6427
  155RES   H24643674   6.392   3.515   6.274 -1.2431 -1.2381  0.2093
  155RES   H24743675   6.422   3.524   6.450  0.7281  0.5928 -0.1865
  155RES   H24843676   6.263   3.742   6.417 -1.3041 -0.9296 -1.4654
  155RES   H24943677   6.483   3.728   6.499 -0.0603 -0.6336 -0.0045
  155RES   H25043678   6.557   3.726   6.340  1.1469 -1.7077  2.6139
  155RES   H25143679   6.650   3.978   6.394 -1.0527 -1.6220 -2.9655
  155RES   H25243680   6.583   3.919   6.547 -1.5841  2.5112  1.6997
  155RES   H25343681   6.534   4.076   6.480 -0.6204 -0.9847  0.5780
  155RES   O25443682   6.307   3.721   6.221 -0.3681 -0.2951 -0.0448
  155RES   C25543683   6.176   3.706   6.184 -0.4813  0.5894  0.1285
  155RES   C25643684   6.164   3.729   6.035  0.1588 -0.6020 -0.1402
  155RES   C25743685   6.029   3.687   5.981  0.4677  0.3331 -0.4043
  155RES   O25843686   6.034   3.669   5.840  0.2556  0.2848 -0.7117
  155RES   C25943687   5.924   3.606   5.786 -0.8282 -0.3213  0.0507
  155RES   H26043688   6.150   3.600   6.194 -1.4463  0.8668  0.7318
  155RES   H26143689   6.113   3.775   6.241  0.5014 -0.8940  3.0913
  155RES   H26243690   6.234   3.676   5.970 -1.0885  2.5658 -4.3328
  155RES   H26343691   6.007   3.594   6.034 -1.0442  0.5753 -0.6050
  155RES   H26443692   5.954   3.759   6.011 -0.4612  0.1039 -2.1069
  155RES   H26543693   5.832   3.656   5.817  0.4362  1.1958  1.3834
  155RES   H26643694   5.920   3.498   5.799  0.2410 -0.2721  0.7905
  155RES   H26743695   5.944   3.622   5.680 -1.2946  0.3061  0.0556
  155RES   O26843696   6.175   3.874   6.020  0.0713 -0.0194  0.4232
  155RES   C26943697   6.187   3.919   5.896  0.3036 -0.3219  0.4686
  155RES   C27043698   6.220   4.067   5.895  0.4137  0.6910 -0.2086
  155RES   C27143699   6.223   4.139   5.759 -0.2337 -0.0836  0.2698
  155RES   O27243700   6.095   4.174   5.703 -0.1304 -0.1903  0.0877
  155RES   C27343701   6.109   4.249   5.585  0.3270  1.1215 -0.7043
  155RES   H27443702   6.103   3.897   5.830  0.0996  1.5231  0.0879
  155RES   H27543703   6.268   3.860   5.852 -1.2565 -2.5546  0.5552
  155RES   H27643704   6.151   4.124   5.957 -1.1966 -0.0665 -1.2647
  155RES   H27743705   6.282   4.079   5.691 -2.9549 -2.0887 -0.4340
  155RES   H27843706   6.278   4.232   5.768 -0.6903  0.1711  0.4443
  155RES   H27943707   6.140   4.351   5.605  1.6391  0.5145  0.3718
  155RES   H28043708   6.010   4.246   5.539  0.5845 -0.4609 -1.1859
  155RES   H28143709   6.183   4.206   5.517  0.2862  2.0389 -1.3453
  155RES   H28243710   6.324   4.075   5.927  0.0344  2.2803  0.7310
  156RES     O143711   2.153   6.239   4.996  0.0852  0.3243 -0.4065
  156RES     C243712   2.280   6.269   4.934  0.3081 -0.3446  0.1682
  156RES     C343713   2.256   6.340   4.796 -0.0422 -0.2862 -0.2533
  156RES     C443714   2.389   6.396   4.758 -0.7914  0.1649  0.0966
  156RES     O543715   2.372   6.499   4.660  0.2260 -0.3691 -0.4268
  156RES     C643716   2.489   6.575   4.637 -0.2270 -0.4894 -0.1977
  156RES     H743717   2.324   6.350   4.990  0.3334 -0.0974 -0.2070
  156RES     H843718   2.346   6.182   4.928 -0.6946 -1.0553 -0.8550
  156RES     H943719   2.178   6.410   4.824 -0.3137 -0.7276  0.1167
  156RES    H1043720   2.450   6.322   4.706 -0.5707 -0.3126  1.0294
  156RES    H1143721   2.449   6.436   4.840  0.5308 -0.8090 -0.3833
  156RES    H1243722   2.592   6.539   4.639  0.7258  2.1405 -0.2459
  156RES    H1343723   2.486   6.594   4.530  0.7910 -1.2737 -0.3781
  156RES    H1443724   2.472   6.661   4.702 -1.5898 -0.8736 -0.0434
  156RES    H1543725   2.130   6.152   4.968  0.6054 -0.1968  0.7948
  156RES    O1643726   2.209   6.243   4.706 -0.3753  0.4761  0.1300
  156RES    C1743727   2.116   6.291   4.608  0.1102 -0.0602 -0.1867
  156RES    C1843728   2.071   6.190   4.500 -0.6456 -0.7114 -0.6516
  156RES    C1943729   2.197   6.135   4.429  0.0212  0.0991 -1.2384
  156RES    O2043730   2.170   6.084   4.303 -0.1578 -1.0370  0.0588
  156RES    C2143731   2.281   6.066   4.218  0.1818  0.3780 -0.1811
  156RES    H2243732   2.171   6.362   4.546 -1.9534  2.5501  0.8682
  156RES    H2343733   2.039   6.354   4.652 -0.7942 -1.0045 -0.3827
  156RES    H2443734   2.017   6.242   4.420 -0.4706  0.6898  0.1156
  156RES    H2543735   2.268   6.218   4.420  0.3702  0.3064  2.4989
  156RES    H2643736   2.252   6.068   4.495 -0.6520  2.8137  2.2094
  156RES    H2743737   2.337   5.977   4.249  1.3819  1.3898  0.6318
  156RES    H2843738   2.354   6.146   4.232 -0.4791  1.1239 -0.9642
  156RES    H2943739   2.249   6.061   4.114  0.5556  1.8974 -0.3758
  156RES    O3043740   2.006   6.084   4.565  0.0482  0.0801  0.0638
  156RES    C3143741   1.875   6.122   4.608 -0.5651 -0.3955  1.0288
  156RES    C3243742   1.823   5.991   4.673 -0.5297  0.4249 -0.6582
  156RES    C3343743   1.674   5.998   4.696  0.3302 -0.7894 -0.0772
  156RES    O3443744   1.608   5.866   4.697  0.0886 -0.5763  0.0028
  156RES    C3543745   1.473   5.864   4.746  1.0171  0.2804  0.1900
  156RES    H3643746   1.876   6.210   4.673  0.3651 -0.6394  1.3512
  156RES    H3743747   1.820   6.153   4.519  0.1156 -1.9299  0.0454
  156RES    H3843748   1.848   5.916   4.598 -1.3080  0.6984 -1.1983
  156RES    H3943749   1.627   6.057   4.618  2.2179  1.0371  0.1278
  156RES    H4043750   1.644   6.046   4.789 -1.2516 -1.5584 -0.1676
  156RES    H4143751   1.409   5.911   4.672 -1.0860 -0.5486  1.4246
  156RES    H4243752   1.456   5.903   4.847 -1.8328  0.3089 -0.2609
  156RES    H4343753   1.448   5.758   4.758  2.2912 -0.1814 -1.1068
  156RES    O4443754   1.878   5.979   4.804  0.2088  0.3801  0.2063
  156RES    C4543755   2.011   5.938   4.816 -0.4872  0.2925  0.0536
  156RES    C4643756   2.021   5.875   4.948  0.1451 -0.3905  0.4736
  156RES    C4743757   2.151   5.793   4.958  0.0706  0.2524 -0.3799
  156RES    O4843758   2.272   5.867   4.934  0.5225  0.0513  0.3735
  156RES    C4943759   2.387   5.788   4.928  0.0217  0.3037  0.0191
  156RES    H5043760   2.086   6.017   4.809 -3.2010  2.8464 -0.9263
  156RES    H5143761   2.050   5.878   4.733 -0.6257  2.5619 -1.7071
  156RES    H5243762   1.929   5.818   4.960 -0.8245  0.7881 -1.1859
  156RES    H5343763   2.157   5.763   5.062  3.4146  2.9288  0.3023
  156RES    H5443764   2.143   5.705   4.895 -0.3181  0.3277 -0.4352
  156RES    H5543765   2.370   5.702   4.863 -0.2482 -0.2306  0.7826
  156RES    H5643766   2.408   5.735   5.021 -0.7864 -1.2656 -0.6713
  156RES    H5743767   2.460   5.856   4.886  1.7611 -0.6625  1.4084
  156RES    O5843768   2.018   5.986   5.046  0.4722  0.0760 -0.6039
  156RES    C5943769   1.971   5.947   5.178 -0.8661 -0.0076 -0.1996
  156RES    C6043770   1.929   6.072   5.257  0.9529 -0.6340 -0.2324
  156RES    C6143771   1.929   6.031   5.406  0.7093 -0.3458  0.6801
  156RES    O6243772   1.891   6.133   5.495 -0.2266  0.0206 -0.1526
  156RES    C6343773   1.890   6.097   5.629 -0.0469 -0.2316 -0.4035
  156RES    H6443774   2.051   5.895   5.230  0.5635  0.5930 -1.7810
  156RES    H6543775   1.888   5.876   5.168  1.3075 -2.8693  1.3800
  156RES    H6643776   2.000   6.155   5.250  0.1935  0.0387 -0.0349
  156RES    H6743777   1.855   5.952   5.419  1.7800 -1.3393  0.6996
  156RES    H6843778   2.032   6.003   5.426  0.5523 -0.8144  0.8359
  156RES    H6943779   1.824   6.011   5.629  0.3179 -0.5128 -1.6921
  156RES    H7043780   1.849   6.177   5.691 -2.9197 -1.0237 -1.2105
  156RES    H7143781   1.992   6.068   5.655  0.2187 -0.6565 -1.9225
  156RES    O7243782   1.795   6.123   5.231 -0.2907  0.4230 -0.0359
  156RES    C7343783   1.766   6.179   5.097 -0.7625  0.4863 -0.1864
  156RES    C7443784   1.803   6.328   5.096 -0.1730 -0.8832 -0.2555
  156RES    C7543785   1.727   6.407   5.217  0.3383 -0.1418  0.3046
  156RES    O7643786   1.780   6.539   5.231  0.3117  0.2768  0.8325
  156RES    C7743787   1.914   6.549   5.269  0.2816 -0.2749 -0.5595
  156RES    H7843788   1.824   6.123   5.023  0.2607 -1.3725  1.9539
  156RES    H7943789   1.659   6.169   5.081 -1.0781  1.5255  1.1425
  156RES    H8043790   1.911   6.333   5.115  0.2193 -2.2906 -2.0084
  156RES    H8143791   1.739   6.375   5.321 -0.6829 -0.0552  0.4549
  156RES    H8243792   1.623   6.424   5.190  0.0124  0.5498  1.9130
  156RES    H8343793   1.979   6.564   5.183  0.1673  0.9060 -0.4399
  156RES    H8443794   1.965   6.467   5.320  0.6354 -0.1213 -0.6638
  156RES    H8543795   1.927   6.641   5.326 -0.8024 -0.0590 -0.6415
  156RES    O8643796   1.759   6.383   4.982  0.2436 -0.4233 -0.6410
  156RES    C8743797   1.833   6.496   4.941 -0.5867  0.9390 -0.3195
  156RES    C8843798   1.789   6.546   4.801 -0.0677  0.0930  0.7739
  156RES    C8943799   1.680   6.660   4.816  0.4035  0.3730 -0.3690
  156RES    O9043800   1.596   6.669   4.698 -0.4001 -0.0111 -0.7952
  156RES    C9143801   1.514   6.781   4.703 -0.6474 -0.2974  0.3095
  156RES    H9243802   1.831   6.578   5.013 -0.6485  1.5031 -0.9576
  156RES    H9343803   1.934   6.461   4.922 -0.6533 -1.0934  2.6251
  156RES    H9443804   1.747   6.467   4.739  0.2885 -0.7972  1.6603
  156RES    H9543805   1.621   6.637   4.904  2.1770 -3.2163  0.0104
  156RES    H9643806   1.728   6.755   4.836 -0.8168  0.8431  0.3271
  156RES    H9743807   1.476   6.801   4.804  0.2395 -0.8053  0.7411
  156RES    H9843808   1.570   6.872   4.680 -1.3309  0.0289 -0.0970
  156RES    H9943809   1.431   6.762   4.635 -0.5192  1.0565 -0.2432
  156RES   O10043810   1.896   6.595   4.714 -0.7702  0.3675 -0.0605
  156RES   C10143811   1.991   6.683   4.770 -0.1005  0.2863  0.0478
  156RES   C10243812   2.089   6.732   4.658  0.1811 -0.0945 -0.2564
  156RES   C10343813   2.208   6.805   4.715  0.0768 -0.2231  0.0848
  156RES   O10443814   2.296   6.829   4.606 -0.1151 -0.4261 -0.7891
  156RES   C10543815   2.379   6.945   4.623  0.4173 -0.2509 -0.3446
  156RES   H10643816   2.048   6.635   4.849  2.5785  2.8973 -0.1899
  156RES   H10743817   1.951   6.778   4.804 -1.4217  0.0961 -0.9490
  156RES   H10843818   2.126   6.638   4.618  1.2488 -0.1214  0.7849
  156RES   H10943819   2.256   6.743   4.790  0.4122  2.4327  2.1326
  156RES   H11043820   2.172   6.900   4.755 -0.0430  0.0341 -0.6207
  156RES   H11143821   2.331   7.042   4.631 -1.3982 -1.2837  1.8667
  156RES   H11243822   2.450   6.950   4.540 -0.9375  0.9829 -1.4704
  156RES   H11343823   2.436   6.927   4.714 -0.4487 -0.4570  0.1596
  156RES   O11443824   2.003   6.808   4.568 -0.1317  0.5875 -0.0096
  156RES   C11543825   2.045   6.796   4.427  0.4869 -0.0274 -0.5950
  156RES   C11643826   2.007   6.655   4.374 -0.2803 -0.1920 -0.8649
  156RES   C11743827   1.860   6.625   4.373 -0.4269 -0.2150 -0.6202
  156RES   O11843828   1.837   6.484   4.391 -0.2376  0.6136 -0.3187
  156RES   C11943829   1.704   6.449   4.382 -0.5844 -0.5773 -0.3744
  156RES   H12043830   1.997   6.872   4.365 -1.5135 -0.0832  0.8454
  156RES   H12143831   2.151   6.815   4.411  0.6159  0.5397  0.8093
  156RES   H12243832   2.067   6.586   4.435  0.2434  0.6550 -0.4140
  156RES   H12343833   1.818   6.670   4.463 -0.0283 -0.7082 -0.1843
  156RES   H12443834   1.807   6.668   4.287  0.3441 -1.2214 -1.6174
  156RES   H12543835   1.643   6.511   4.448  1.6914  0.9617  0.3224
  156RES   H12643836   1.678   6.350   4.421  0.0205  0.0186  1.6113
  156RES   H12743837   1.657   6.459   4.284 -0.7276  0.5282 -0.2067
  156RES   O12843838   2.057   6.641   4.240 -0.2492  1.2529  0.8580
  156RES   C12943839   2.070   6.505   4.195  0.5438  0.1681  0.0701
  156RES   C13043840   2.159   6.501   4.068  0.6887 -0.4324 -0.1262
  156RES   C13143841   2.131   6.363   4.001 -0.7984 -0.7042 -0.0656
  156RES   O13243842   2.212   6.348   3.888  0.1759 -0.0429  0.5690
  156RES   C13343843   2.183   6.228   3.824 -0.7864  0.1065 -0.0182
  156RES   H13443844   2.108   6.432   4.266  1.9730 -2.3652 -3.1370
  156RES   H13543845   1.966   6.486   4.166  0.4322  1.1981 -0.2572
  156RES   H13643846   2.142   6.579   3.994 -1.0034 -0.6815 -0.0066
  156RES   H13743847   2.023   6.364   3.982 -0.5977  0.5393 -1.1890
  156RES   H13843848   2.159   6.285   4.072 -3.5861  0.3222  2.2524
  156RES   H13943849   2.080   6.234   3.790 -1.3949  1.4085  1.9948
  156RES   H14043850   2.240   6.196   3.737  0.0136 -1.1543  0.9572
  156RES   H14143851   2.189   6.145   3.894 -0.4356  0.1005 -0.0538
  156RES   O14243852   2.299   6.473   4.088  0.4346  0.2789  0.4256
  156RES   C14343853   2.352   6.591   4.143 -0.4648 -0.1631 -0.4498
  156RES   C14443854   2.509   6.585   4.142  0.4132 -0.1291  0.1036
  156RES   C14543855   2.557   6.596   3.997  0.3456  0.0285 -0.2302
  156RES   O14643856   2.608   6.727   3.985 -0.4959  0.2926  0.8533
  156RES   C14743857   2.664   6.748   3.858 -0.4233 -0.1404  0.5551
  156RES   H14843858   2.309   6.676   4.091  0.4723  0.7007  0.1750
  156RES   H14943859   2.325   6.589   4.249 -0.2568 -3.5739 -0.3932
  156RES   H15043860   2.541   6.670   4.204  0.8300  0.2430 -0.6130
  156RES   H15143861   2.484   6.573   3.920 -0.3668  1.9386 -0.1576
  156RES   H15243862   2.638   6.525   3.976 -0.9804 -1.2550 -1.0872
  156RES   H15343863   2.598   6.700   3.786 -0.7338 -1.2513  1.5802
  156RES   H15443864   2.763   6.702   3.858 -0.1908  0.3584  1.2945
  156RES   H15543865   2.668   6.854   3.831 -0.0866  0.1766  1.7969
  156RES   O15643866   2.555   6.467   4.202 -0.7413  0.7668  0.0329
  156RES   C15743867   2.686   6.471   4.255 -0.6459  0.3185 -0.5184
  156RES   C15843868   2.718   6.345   4.331  0.3072  0.2534  0.1478
  156RES   C15943869   2.844   6.358   4.419  0.4871 -0.7911 -0.2295
  156RES   O16043870   2.938   6.439   4.350  0.0766  0.3470  0.0481
  156RES   C16143871   3.039   6.503   4.429 -0.3538  0.3433  0.6933
  156RES   H16243872   2.759   6.482   4.175  1.0154  1.4156  1.1274
  156RES   H16343873   2.694   6.560   4.318  0.5342  0.3367 -0.6879
  156RES   H16443874   2.632   6.313   4.390 -0.9247 -0.7918 -2.1399
  156RES   H16543875   2.817   6.405   4.513  0.8936  0.1109 -0.5589
  156RES   H16643876   2.884   6.257   4.427  1.9251 -0.1722  0.6633
  156RES   H16743877   3.093   6.565   4.358 -2.1687  0.9687 -0.1705
  156RES   H16843878   3.099   6.435   4.489 -1.0718  0.3752  1.4506
  156RES   H16943879   2.988   6.567   4.500  0.1802  0.8442  0.6245
  156RES   O17043880   2.759   6.249   4.239  1.0464 -0.1316  0.3647
  156RES   C17143881   2.658   6.171   4.181  0.1150  0.5864 -0.4072
  156RES   C17243882   2.727   6.046   4.112 -0.1072 -0.0984  0.0123
  156RES   C17343883   2.618   5.974   4.024  0.1166  0.0216 -0.1270
  156RES   O17443884   2.658   5.987   3.884 -0.1853  0.0434 -0.1436
  156RES   C17543885   2.534   5.960   3.813 -0.3031  0.2723  0.5173
  156RES   H17643886   2.618   6.237   4.104  2.4868  0.8234 -1.4990
  156RES   H17743887   2.583   6.141   4.254  1.6704 -1.4907  0.4150
  156RES   H17843888   2.815   6.075   4.054 -1.6230  2.2756 -1.1600
  156RES   H17943889   2.594   5.870   4.046  1.7598 -1.0610 -3.0906
  156RES   H18043890   2.524   6.021   4.052 -0.1851 -0.1719 -0.8034
  156RES   H18143891   2.554   5.957   3.706  1.6919  0.4398  0.8755
  156RES   H18243892   2.457   6.032   3.841  1.7555  2.4934  0.6158
  156RES   H18343893   2.498   5.858   3.829  1.2299 -0.2700  0.5311
  156RES   O18443894   2.773   5.974   4.227  0.0436  0.4481 -0.0497
  156RES   C18543895   2.835   5.848   4.207  0.3071  0.2014  0.1815
  156RES   C18643896   2.982   5.865   4.160  0.4501 -0.5723  0.3661
  156RES   C18743897   3.047   5.724   4.133  1.4541 -0.2810 -0.1034
  156RES   O18843898   3.161   5.738   4.047  0.4842 -0.0855  0.0397
  156RES   C18943899   3.228   5.616   4.024  0.5848  0.9088 -0.4628
  156RES   H19043900   2.798   5.791   4.122 -1.1444  1.0173  0.2624
  156RES   H19143901   2.829   5.791   4.299 -0.9057  0.9664  0.5764
  156RES   H19243902   2.980   5.924   4.068 -0.0820 -1.8000 -0.4304
  156RES   H19343903   2.974   5.663   4.080 -0.7236  2.0499  0.1076
  156RES   H19443904   3.077   5.689   4.232  1.8648  0.6453  0.1058
  156RES   H19543905   3.301   5.588   4.100 -0.5243  0.2305  0.3670
  156RES   H19643906   3.160   5.538   3.991  0.6740  0.2256  0.9576
  156RES   H19743907   3.294   5.631   3.938  2.0092  1.5077  0.7014
  156RES   O19843908   3.067   5.917   4.268 -0.4802 -0.1984 -0.3937
  156RES   C19943909   3.078   6.058   4.280  0.1721 -0.3078 -0.0826
  156RES   C20043910   3.186   6.104   4.195 -0.9568  0.0599 -0.4213
  156RES   C20143911   3.228   6.249   4.237 -0.8240  0.3877 -0.1105
  156RES   O20243912   3.364   6.273   4.204  0.1425 -0.2999  0.2119
  156RES   C20343913   3.411   6.401   4.244  0.1066 -0.1694  0.4230
  156RES   H20443914   3.101   6.073   4.386 -0.4853 -0.2528  0.0572
  156RES   H20543915   2.982   6.108   4.268  1.0639  0.9140 -2.2513
  156RES   H20643916   3.272   6.038   4.209 -0.4506  0.0870 -3.1557
  156RES   H20743917   3.172   6.328   4.186 -2.1337 -0.2515  0.2972
  156RES   H20843918   3.224   6.273   4.343  2.6172  0.5551  0.0213
  156RES   H20943919   3.409   6.422   4.352  1.5567  0.7909  0.2803
  156RES   H21043920   3.344   6.479   4.206  0.1462 -0.3529 -0.0167
  156RES   H21143921   3.508   6.430   4.206  0.8719 -0.9449  1.7596
  156RES   O21243922   3.148   6.118   4.062  0.0478  0.1343  0.3427
  156RES   C21343923   3.244   6.120   3.960 -0.7606  0.5665  0.4932
  156RES   C21443924   3.176   6.096   3.825 -0.6995 -0.3207  0.2518
  156RES   C21543925   3.276   6.083   3.708 -0.6798  0.3586  0.3276
  156RES   O21643926   3.209   6.045   3.583 -0.0559  0.0781 -0.8030
  156RES   C21743927   3.183   6.159   3.501  0.0336  0.6008 -0.7170
  156RES   H21843928   3.324   6.047   3.974 -0.9564  0.3153  0.3047
  156RES   H21943929   3.286   6.220   3.949  0.3449  0.0656  0.1259
  156RES   H22043930   3.116   6.006   3.831 -0.2240 -0.6445  0.1687
  156RES   H22143931   3.329   6.178   3.700  0.3287 -0.2614 -0.6045
  156RES   H22243932   3.355   6.011   3.730 -1.1519 -0.9691 -2.1450
  156RES   H22343933   3.154   6.123   3.402 -1.6646  0.3443 -0.1312
  156RES   H22443934   3.255   6.241   3.491 -0.3605  0.9016 -1.0998
  156RES   H22543935   3.092   6.206   3.537 -0.1363 -0.0747 -0.2702
  156RES   O22643936   3.109   6.220   3.786 -0.2471  0.4818 -0.0243
  156RES   C22743937   2.978   6.238   3.853 -0.3412 -0.4099 -0.0471
  156RES   C22843938   2.885   6.334   3.768  0.0761  0.4701 -0.0152
  156RES   C22943939   2.732   6.309   3.797 -0.4264 -0.3536  0.4579
  156RES   O23043940   2.642   6.399   3.731 -0.1763  0.4796 -0.4718
  156RES   C23143941   2.509   6.350   3.732  0.3318  0.0387 -0.6023
  156RES   H23243942   2.971   6.253   3.961 -1.3330 -0.8105 -0.0586
  156RES   H23343943   2.929   6.143   3.830 -0.1209 -1.0596  2.0581
  156RES   H23443944   2.900   6.311   3.663  0.0892  1.8950 -0.3287
  156RES   H23543945   2.712   6.304   3.904  0.8434  0.1425  0.7322
  156RES   H23643946   2.707   6.210   3.760 -2.0198  0.1136  0.2423
  156RES   H23743947   2.458   6.356   3.828 -0.9072 -1.1309 -1.1705
  156RES   H23843948   2.504   6.253   3.684 -1.2979  0.0101 -0.3958
  156RES   H23943949   2.448   6.423   3.679  0.3702  1.2755  1.0242
  156RES   O24043950   2.908   6.472   3.803 -0.1233  0.5417 -0.0321
  156RES   C24143951   3.035   6.524   3.761 -0.0932 -0.1514 -0.6213
  156RES   C24243952   3.148   6.514   3.863  0.8000 -0.3185 -0.3389
  156RES   C24343953   3.277   6.509   3.786 -0.6678  0.1556 -0.2392
  156RES   O24443954   3.388   6.471   3.872  0.0789 -0.2673 -0.2069
  156RES   C24543955   3.512   6.529   3.827  0.1041  0.5372 -0.0490
  156RES   H24643956   3.016   6.626   3.730 -0.1314  0.4393  1.3166
  156RES   H24743957   3.078   6.470   3.676 -2.1867 -0.4934 -1.5036
  156RES   H24843958   3.143   6.427   3.927 -1.7694  1.9151  2.6789
  156RES   H24943959   3.274   6.428   3.712  1.9462 -0.9976  0.8533
  156RES   H25043960   3.291   6.606   3.740 -3.9585 -0.2371 -2.2643
  156RES   H25143961   3.593   6.477   3.879 -0.0308  0.5258  0.1490
  156RES   H25243962   3.530   6.635   3.838 -0.0695  0.5868 -0.2293
  156RES   H25343963   3.524   6.499   3.722 -0.2405 -0.2591  0.1302
  156RES   O25443964   3.147   6.635   3.932  0.3965  0.1540  0.5008
  156RES   C25543965   3.041   6.637   4.030  0.1179  0.7375 -0.6466
  156RES   C25643966   3.031   6.765   4.128 -0.2492  0.2148 -1.0424
  156RES   C25743967   2.898   6.755   4.209 -0.2827  0.1993 -0.1563
  156RES   O25843968   2.866   6.882   4.264  0.3380 -0.0764 -0.5723
  156RES   C25943969   2.735   6.879   4.326 -1.1053 -0.8147 -0.5835
  156RES   H26043970   2.947   6.634   3.974  0.0805  3.4637 -0.7979
  156RES   H26143971   3.052   6.561   4.108  1.6758  0.9031 -0.6940
  156RES   H26243972   3.035   6.863   4.080  0.0550 -0.2627 -2.0125
  156RES   H26343973   2.828   6.721   4.133 -0.7922 -3.5713  1.8926
  156RES   H26443974   2.907   6.686   4.293  2.0880  0.9852  0.2616
  156RES   H26543975   2.734   6.829   4.423 -0.7611  0.2277 -0.0351
  156RES   H26643976   2.664   6.844   4.251  0.9447 -2.2676 -1.9177
  156RES   H26743977   2.704   6.982   4.345 -1.4124 -0.7452 -1.4419
  156RES   O26843978   3.140   6.746   4.211 -0.4201 -0.7666  0.1377
  156RES   C26943979   3.143   6.832   4.323  0.0776  0.3440 -0.1517
  156RES   C27043980   3.284   6.836   4.368  0.4242 -0.4006 -0.3618
  156RES   C27143981   3.315   6.920   4.489  0.0411 -0.1891 -0.5761
  156RES   O27243982   3.458   6.921   4.503  0.4052  0.2431 -0.0554
  156RES   C27343983   3.504   6.921   4.640 -0.0487  0.3851  0.6161
  156RES   H27443984   3.087   6.800   4.411 -0.1330  0.2692 -0.3140
  156RES   H27543985   3.108   6.933   4.301 -2.8427  0.1432  3.1623
  156RES   H27643986   3.311   6.731   4.377 -0.2201 -0.4775  0.8184
  156RES   H27743987   3.267   6.872   4.574  2.6909 -0.3467  0.8894
  156RES   H27843988   3.285   7.024   4.483 -1.0142 -0.4151  0.6814
  156RES   H27943989   3.474   6.833   4.696  2.9073 -0.3585  1.0702
  156RES   H28043990   3.464   7.009   4.690 -2.2169 -0.1507 -0.0874
  156RES   H28143991   3.612   6.929   4.650 -0.2179  0.1287  2.6731
  156RES   H28243992   3.342   6.869   4.282  1.1255  2.2428  1.0966
  157RES     O143993   4.819   3.076   7.444 -0.0958  0.8734 -0.4688
  157RES     C243994   4.932   3.003   7.483 -0.8056  0.3906 -0.3781
  157RES     C343995   5.056   3.078   7.431  0.0868 -0.8494  0.1436
  157RES     C443996   5.185   2.998   7.443 -0.5169 -0.0302  0.1350
  157RES     O543997   5.283   3.089   7.419 -0.8342 -0.0384 -0.3915
  157RES     C643998   5.412   3.046   7.466 -0.3072 -0.7403 -0.1300
  157RES     H743999   4.942   2.994   7.591  0.8229  1.7709 -0.3852
  157RES     H844000   4.919   2.907   7.435  1.0395 -0.3226  0.4992
  157RES     H944001   5.059   3.171   7.487 -1.0070 -1.5596  1.4001
  157RES    H1044002   5.191   2.927   7.360  1.9404  0.4848 -0.1689
  157RES    H1144003   5.194   2.950   7.541  5.1669 -1.6391 -0.9623
  157RES    H1244004   5.411   3.032   7.574 -2.0517 -0.4779 -0.1061
  157RES    H1344005   5.438   2.955   7.412  0.2018 -0.2852 -0.6728
  157RES    H1444006   5.483   3.127   7.445 -0.7539 -0.2874  0.1089
  157RES    H1544007   4.839   3.119   7.362  0.9704  2.0623  0.3930
  157RES    O1644008   5.035   3.102   7.293  0.2042 -0.3778 -0.9799
  157RES    C1744009   5.066   3.234   7.251 -0.6916 -0.1980  0.5933
  157RES    C1844010   5.014   3.248   7.109  0.4201  0.1782  0.4323
  157RES    C1944011   5.076   3.142   7.012 -0.1457  0.2835  0.4023
  157RES    O2044012   5.039   3.163   6.878  0.1784 -0.9240  0.3773
  157RES    C2144013   4.929   3.091   6.823 -0.1119 -0.1236  0.0817
  157RES    H2244014   5.172   3.255   7.263 -0.2101 -0.6153 -2.4932
  157RES    H2344015   5.006   3.306   7.308  1.3055  1.4540  0.6708
  157RES    H2444016   5.035   3.352   7.085  0.4380 -0.3441 -1.9913
  157RES    H2544017   5.184   3.148   7.024 -0.1388  0.5225  0.2316
  157RES    H2644018   5.058   3.040   7.044 -0.4850 -0.1777 -1.1953
  157RES    H2744019   4.933   3.075   6.716 -2.8249  0.3684 -0.1301
  157RES    H2844020   4.835   3.143   6.842 -0.0920  0.0271 -0.2361
  157RES    H2944021   4.916   2.994   6.872  1.4721 -1.1569 -1.5118
  157RES    O3044022   4.867   3.213   7.117  0.6246 -0.1375 -0.0590
  157RES    C3144023   4.778   3.315   7.075  1.2920 -0.0929 -0.1847
  157RES    C3244024   4.733   3.411   7.183  0.1870  0.6149 -0.5363
  157RES    C3344025   4.613   3.493   7.137  0.0229  0.3023  0.0508
  157RES    O3444026   4.547   3.560   7.241 -0.2714 -0.4177 -0.6158
  157RES    C3544027   4.453   3.662   7.196 -0.3739  0.1979 -0.1414
  157RES    H3644028   4.817   3.374   6.992 -1.6680  0.7539 -1.0223
  157RES    H3744029   4.691   3.260   7.041  2.0106 -1.3146 -0.0787
  157RES    H3844030   4.701   3.361   7.275  0.2152 -0.3873 -1.0663
  157RES    H3944031   4.548   3.422   7.087  0.2582 -0.8826  1.3956
  157RES    H4044032   4.658   3.568   7.071 -1.3429 -0.4007 -1.7145
  157RES    H4144033   4.373   3.613   7.140  1.4646 -2.5560 -0.4553
  157RES    H4244034   4.515   3.731   7.139 -0.7459  0.1855 -0.5603
  157RES    H4344035   4.418   3.715   7.285 -2.2097 -1.8340  0.3889
  157RES    O4444036   4.840   3.507   7.201 -0.2797  0.0073 -0.1972
  157RES    C4544037   4.834   3.558   7.339 -0.2467  0.1960  0.0920
  157RES    C4644038   4.940   3.662   7.359  0.0157  0.5828  0.6593
  157RES    C4744039   4.949   3.698   7.508  0.2277 -0.1575  0.1879
  157RES    O4844040   5.046   3.792   7.537  0.4749  0.3355 -0.4176
  157RES    C4944041   5.052   3.843   7.664 -0.3603  0.1351 -0.1738
  157RES    H5044042   4.845   3.477   7.410 -0.9049  1.3047  1.4791
  157RES    H5144043   4.742   3.612   7.363 -0.4259 -0.6984  1.4123
  157RES    H5244044   4.908   3.743   7.293 -1.2296 -2.1651 -2.2404
  157RES    H5344045   4.854   3.749   7.527  0.3567  0.9455 -1.9146
  157RES    H5444046   4.947   3.610   7.573 -1.1106 -0.2721  0.0201
  157RES    H5544047   5.068   3.770   7.743 -0.5234 -0.4157 -0.6523
  157RES    H5644048   4.978   3.921   7.684  0.5243  0.2189  3.0325
  157RES    H5744049   5.144   3.901   7.659 -1.7419  2.2371 -2.0541
  157RES    O5844050   5.063   3.594   7.330  0.3702 -0.1468  0.4044
  157RES    C5944051   5.157   3.670   7.259  0.1522  0.0331 -0.2613
  157RES    C6044052   5.297   3.603   7.287  0.2922  0.1593  0.0781
  157RES    C6144053   5.406   3.709   7.305 -0.1040 -0.1562 -0.1868
  157RES    O6244054   5.510   3.652   7.393  0.5439 -0.1801  0.2375
  157RES    C6344055   5.615   3.741   7.404 -0.5997  0.2479  0.3506
  157RES    H6444056   5.155   3.771   7.299 -1.8379 -0.2559  0.4732
  157RES    H6544057   5.136   3.675   7.152 -1.3053  0.5252  0.0294
  157RES    H6644058   5.302   3.546   7.380 -0.8916  1.9855  1.2962
  157RES    H6744059   5.455   3.740   7.213  1.9319 -2.4679  0.0673
  157RES    H6844060   5.357   3.794   7.354 -0.6152 -0.3287 -0.3996
  157RES    H6944061   5.694   3.690   7.459  0.1379  1.9638  0.9104
  157RES    H7044062   5.594   3.834   7.457  1.1339  0.9713 -0.1855
  157RES    H7144063   5.651   3.773   7.306 -0.6798  0.6172  0.4428
  157RES    O7244064   5.309   3.517   7.175  0.7782 -0.3671 -0.3737
  157RES    C7344065   5.422   3.426   7.189 -0.2373  0.4908  0.1617
  157RES    C7444066   5.443   3.334   7.068  0.3541 -0.4236 -0.1487
  157RES    C7544067   5.525   3.208   7.095  0.0264 -0.8763  0.4289
  157RES    O7644068   5.648   3.240   7.164 -0.3374  0.2262  0.7604
  157RES    C7744069   5.717   3.125   7.199 -0.5907  0.5350 -0.5414
  157RES    H7844070   5.509   3.491   7.184  0.4564 -0.4057  0.4325
  157RES    H7944071   5.423   3.379   7.288  0.1932 -1.0236 -0.5536
  157RES    H8044072   5.342   3.303   7.040  0.3377  1.1685 -1.9246
  157RES    H8144073   5.542   3.163   6.997 -0.4173  1.2748 -0.6757
  157RES    H8244074   5.475   3.145   7.168  1.4807 -0.7653  1.5433
  157RES    H8344075   5.801   3.155   7.262 -1.3373  0.7030  0.3903
  157RES    H8444076   5.754   3.066   7.115 -0.5165 -2.0078  1.2262
  157RES    H8544077   5.653   3.059   7.257  4.3831 -1.8641  2.5340
  157RES    O8644078   5.499   3.408   6.955  0.1889  0.0341 -0.1299
  157RES    C8744079   5.409   3.468   6.863 -0.6132 -0.0673  0.1427
  157RES    C8844080   5.481   3.499   6.735 -0.6874  0.5497  0.1167
  157RES    C8944081   5.465   3.379   6.632 -0.9118  0.2319  0.0989
  157RES    O9044082   5.549   3.395   6.522  0.7886  0.1968  0.5542
  157RES    C9144083   5.559   3.275   6.441 -0.0478  0.6052 -0.1110
  157RES    H9244084   5.329   3.397   6.839  0.4582 -1.3168  0.1785
  157RES    H9344085   5.359   3.556   6.903  0.2964  1.7955 -2.6753
  157RES    H9444086   5.590   3.505   6.740 -0.7527  1.8928  0.0415
  157RES    H9544087   5.487   3.284   6.680  0.8208  0.3855 -0.3503
  157RES    H9644088   5.365   3.371   6.589 -0.2149  2.5800 -2.0828
  157RES    H9744089   5.628   3.296   6.359 -0.5397  2.2347 -0.1378
  157RES    H9844090   5.598   3.189   6.495  0.0816  0.7090 -0.0368
  157RES    H9944091   5.464   3.247   6.396  0.2424 -2.6050  1.1867
  157RES   O10044092   5.433   3.620   6.691 -0.0348 -0.5134  0.9479
  157RES   C10144093   5.520   3.727   6.679  0.7568  0.1505  0.3912
  157RES   C10244094   5.453   3.835   6.598  0.4110 -0.3941  0.8152
  157RES   C10344095   5.554   3.934   6.554 -0.5063  0.0758  0.3356
  157RES   O10444096   5.627   3.988   6.663  0.1282  0.2811 -0.5773
  157RES   C10544097   5.721   4.082   6.618  0.1322 -0.4362 -0.1458
  157RES   H10644098   5.608   3.701   6.620 -0.3580  1.3713 -1.8825
  157RES   H10744099   5.569   3.750   6.773  0.6808  1.8305  0.0369
  157RES   H10844100   5.406   3.790   6.511  0.3150 -1.0140  1.1810
  157RES   H10944101   5.504   4.006   6.490  2.3155  1.0860 -0.8112
  157RES   H11044102   5.617   3.878   6.485  0.5387 -0.4687  1.6931
  157RES   H11144103   5.750   4.147   6.699 -1.2275  1.5346 -1.2035
  157RES   H11244104   5.678   4.151   6.545 -0.7010 -2.6426 -1.8103
  157RES   H11344105   5.805   4.027   6.575 -0.8169 -1.6842 -0.4653
  157RES   O11444106   5.367   3.899   6.693 -0.4887  0.1576  0.0440
  157RES   C11544107   5.281   4.002   6.644  0.8045 -0.5239  0.1792
  157RES   C11644108   5.146   3.989   6.710  0.3014  0.1866 -0.0205
  157RES   C11744109   5.061   4.115   6.712  0.5235 -0.2192 -0.3072
  157RES   O11844110   4.968   4.102   6.817  0.1639  0.5925  0.0648
  157RES   C11944111   4.905   4.231   6.840  0.4151 -0.7747 -0.0665
  157RES   H12044112   5.340   4.089   6.672  2.3189 -0.6402 -2.5089
  157RES   H12144113   5.271   3.983   6.537 -0.2050  1.5625 -0.1156
  157RES   H12244114   5.157   3.972   6.817  4.6134 -4.4170 -1.0158
  157RES   H12344115   5.123   4.200   6.740 -1.3760  1.0907 -0.0387
  157RES   H12444116   5.010   4.135   6.619 -2.5994  0.4745  1.4840
  157RES   H12544117   4.854   4.273   6.753 -0.4526  0.0466  0.8347
  157RES   H12644118   4.981   4.304   6.868  0.3376 -1.2718  1.4944
  157RES   H12744119   4.850   4.232   6.934  1.7752  1.8237  0.7681
  157RES   O12844120   5.076   3.881   6.643  0.3693 -0.0063 -0.3135
  157RES   C12944121   5.042   3.785   6.745  0.2714  0.3366 -0.0359
  157RES   C13044122   4.938   3.678   6.696 -0.0229  0.0095  0.1215
  157RES   C13144123   4.848   3.624   6.812  0.2885  0.3608 -0.4922
  157RES   O13244124   4.719   3.588   6.758 -0.0158 -0.8176 -0.9555
  157RES   C13344125   4.719   3.457   6.706 -0.2459 -0.4948  0.0519
  157RES   H13444126   5.127   3.731   6.787 -0.4321 -0.8493 -0.1113
  157RES   H13544127   4.994   3.841   6.825 -0.2790 -0.9334  0.5336
  157RES   H13644128   4.866   3.721   6.626 -0.4631 -0.2231  0.4226
  157RES   H13744129   4.834   3.697   6.891  2.0185 -0.4904  0.6167
  157RES   H13844130   4.887   3.534   6.859 -0.4483 -0.8554 -2.1537
  157RES   H13944131   4.639   3.410   6.764 -0.6210 -0.5556 -0.5080
  157RES   H14044132   4.701   3.462   6.599  0.3734 -0.5647 -0.0530
  157RES   H14144133   4.819   3.414   6.706  0.1902  0.4896 -1.5178
  157RES   O14244134   5.005   3.566   6.631 -0.0145 -0.4567  0.1333
  157RES   C14344135   5.077   3.614   6.510  0.3423  0.8253  0.1406
  157RES   C14444136   5.102   3.497   6.412 -0.6145  0.5612  0.3033
  157RES   C14544137   5.216   3.521   6.314  0.5974 -1.1490 -0.7720
  157RES   O14644138   5.263   3.395   6.269  0.8770 -0.0777 -0.1865
  157RES   C14744139   5.351   3.407   6.156  0.1441  0.2966  0.4173
  157RES   H14844140   5.014   3.684   6.454  0.5765 -1.2661 -2.8398
  157RES   H14944141   5.172   3.658   6.539  0.0302 -0.2917  3.0013
  157RES   H15044142   5.115   3.405   6.469 -2.8095  0.7342  1.1278
  157RES   H15144143   5.302   3.571   6.359 -1.1482  0.6352  0.6414
  157RES   H15244144   5.184   3.575   6.225  0.9410  0.4645  0.0654
  157RES   H15344145   5.384   3.308   6.124 -0.3497 -0.3517  1.8778
  157RES   H15444146   5.438   3.470   6.171  0.1900  0.4355 -0.4121
  157RES   H15544147   5.287   3.444   6.076 -0.4007 -0.9058  0.2768
  157RES   O15644148   4.983   3.483   6.338 -0.1701  0.1640  0.1238
  157RES   C15744149   4.957   3.348   6.292  0.0570  0.4934 -0.2760
  157RES   C15844150   4.805   3.327   6.250 -0.4546 -0.3060  0.5110
  157RES   C15944151   4.748   3.184   6.273  0.2562  0.5211  0.1269
  157RES   O16044152   4.606   3.190   6.278 -0.5748 -0.2320 -0.2517
  157RES   C16144153   4.541   3.079   6.227  0.3910  0.6091  0.1449
  157RES   H16244154   5.022   3.321   6.209  0.9693  0.6968  0.3594
  157RES   H16344155   4.969   3.276   6.373 -0.6263  1.0017  0.2875
  157RES   H16444156   4.747   3.384   6.323 -0.9421 -3.2828  2.5180
  157RES   H16544157   4.791   3.119   6.197 -2.5486 -0.2548 -0.8621
  157RES   H16644158   4.767   3.139   6.370 -0.6889 -3.9108 -1.6031
  157RES   H16744159   4.432   3.085   6.234  0.2454 -0.2494 -1.2472
  157RES   H16844160   4.572   2.982   6.268  1.4675  0.6414 -0.5888
  157RES   H16944161   4.554   3.069   6.119 -2.3863  0.4919 -0.2027
  157RES   O17044162   4.783   3.381   6.121 -0.4845  0.5946  0.0528
  157RES   C17144163   4.733   3.511   6.115 -0.0523  0.5555  0.4698
  157RES   C17244164   4.658   3.517   5.981  0.3799 -0.1206  0.3633
  157RES   C17344165   4.636   3.664   5.943 -0.0163 -0.0134 -0.2494
  157RES   O17444166   4.573   3.678   5.809  0.3639  0.8812  0.0455
  157RES   C17544167   4.540   3.811   5.781 -0.4355  0.8428  0.6569
  157RES   H17644168   4.812   3.586   6.124 -0.1725  0.7246  0.1591
  157RES   H17744169   4.656   3.530   6.190 -0.4624  1.6744 -0.2222
  157RES   H17844170   4.712   3.475   5.896 -2.1815 -2.3205 -0.2685
  157RES   H17944171   4.595   3.722   6.025  2.1080  4.4288 -2.1593
  157RES   H18044172   4.736   3.707   5.933  0.8004 -1.6483  0.5627
  157RES   H18144173   4.462   3.832   5.709  0.5214  3.1296  0.2446
  157RES   H18244174   4.633   3.864   5.763  0.6613 -1.1230  0.3370
  157RES   H18344175   4.497   3.856   5.870  1.6179 -2.3644  3.4094
  157RES   O18444176   4.529   3.461   6.001  0.3229 -0.1721 -0.3824
  157RES   C18544177   4.505   3.322   5.963  0.3850 -0.5913 -0.3815
  157RES   C18644178   4.450   3.292   5.824  0.1030 -0.4893 -0.8311
  157RES   C18744179   4.412   3.139   5.807 -1.0007 -0.4113  0.0838
  157RES   O18844180   4.347   3.120   5.677  0.3731  0.2089  0.0385
  157RES   C18944181   4.302   2.986   5.655  0.2011 -0.5357  0.1846
  157RES   H19044182   4.442   3.285   6.044 -0.6120  1.0096 -0.3992
  157RES   H19144183   4.595   3.261   5.966  0.0572 -1.0882 -0.7367
  157RES   H19244184   4.361   3.352   5.805  0.0401 -0.4393 -0.3809
  157RES   H19344185   4.350   3.105   5.889  0.1016 -0.5656  0.8499
  157RES   H19444186   4.504   3.081   5.815 -0.7490  0.2728  2.3232
  157RES   H19544187   4.274   2.978   5.550  1.2203 -2.2058  0.0263
  157RES   H19644188   4.389   2.920   5.660 -0.7258 -1.7627  0.2161
  157RES   H19744189   4.220   2.955   5.719  0.7432 -0.0007  1.1732
  157RES   O19844190   4.561   3.323   5.738  0.2007  0.4210 -0.0798
  157RES   C19944191   4.518   3.369   5.608 -0.4709 -0.6229  0.3643
  157RES   C20044192   4.646   3.435   5.534 -0.2369 -0.0812 -0.7202
  157RES   C20144193   4.597   3.512   5.407 -0.0268 -0.3476  0.2120
  157RES   O20244194   4.710   3.556   5.339  0.3867  0.4238 -0.5705
  157RES   C20344195   4.680   3.594   5.209  0.4287 -0.0546 -0.1347
  157RES   H20444196   4.438   3.442   5.619 -0.2469 -0.3975  0.5003
  157RES   H20544197   4.487   3.282   5.550  1.7910 -3.4013  3.1108
  157RES   H20644198   4.698   3.503   5.602  0.8484  1.4717 -3.0683
  157RES   H20744199   4.534   3.441   5.353  0.4284 -0.4349 -0.2019
  157RES   H20844200   4.525   3.591   5.428  2.0210  2.0009 -1.4529
  157RES   H20944201   4.666   3.509   5.142  2.6295 -1.7997  1.5283
  157RES   H21044202   4.770   3.642   5.172 -0.3295  2.9122  1.7627
  157RES   H21144203   4.590   3.654   5.195 -0.9572 -1.3902  2.5034
  157RES   O21244204   4.743   3.339   5.491 -0.2958  0.4247 -0.2863
  157RES   C21344205   4.812   3.271   5.590  0.3445 -0.5934 -0.0035
  157RES   C21444206   4.784   3.121   5.581 -0.3129  0.4521 -0.4626
  157RES   C21544207   4.778   3.056   5.723 -0.0022  0.9230 -0.0091
  157RES   O21644208   4.694   2.945   5.723  0.2759  0.0453 -0.6540
  157RES   C21744209   4.732   2.844   5.637  0.5265  0.0987 -0.2106
  157RES   H21844210   4.785   3.323   5.682 -4.6608 -1.0133 -1.1183
  157RES   H21944211   4.921   3.279   5.580  0.2891 -0.9312 -0.9493
  157RES   H22044212   4.681   3.111   5.545 -0.6163 -2.0289  0.9853
  157RES   H22144213   4.881   3.028   5.745  0.0491  1.0977 -0.0308
  157RES   H22244214   4.737   3.129   5.793 -5.0285 -1.2693 -0.4292
  157RES   H22344215   4.839   2.824   5.632  0.2305 -1.3651 -0.8277
  157RES   H22444216   4.688   2.853   5.537 -2.3382 -0.7172  0.9099
  157RES   H22544217   4.678   2.754   5.665  1.7456 -0.5419  0.1055
  157RES   O22644218   4.883   3.058   5.492 -0.0524 -0.4910  0.1886
  157RES   C22744219   4.834   3.048   5.363 -0.1756  0.1209  0.2819
  157RES   C22844220   4.958   3.006   5.273 -0.1102  0.1462  0.1483
  157RES   C22944221   4.896   3.008   5.131 -0.1444  0.1946  0.2372
  157RES   O23044222   4.962   2.932   5.030 -0.3884 -0.3853 -0.6403
  157RES   C23144223   5.058   3.009   4.957 -0.5529  0.6101  0.0324
  157RES   H23244224   4.786   3.138   5.324 -0.4879  0.2512  0.9552
  157RES   H23344225   4.758   2.971   5.354 -1.0695  1.0437 -0.2228
  157RES   H23444226   4.998   2.910   5.306  0.4961  0.0693 -0.8069
  157RES   H23544227   4.856   3.107   5.111  2.2578  0.9594 -0.9510
  157RES   H23644228   4.824   2.926   5.137  0.0174 -0.0395 -0.8755
  157RES   H23744229   5.056   2.975   4.853  2.3353  1.8027 -0.4632
  157RES   H23844230   5.160   2.984   4.986 -0.6828 -0.0764 -0.1080
  157RES   H23944231   5.052   3.117   4.972  1.2748  0.8021 -0.4895
  157RES   O24044232   5.050   3.113   5.278  0.6101  0.2608 -0.2530
  157RES   C24144233   5.178   3.065   5.288 -0.0595  0.2809 -0.4497
  157RES   C24244234   5.205   3.026   5.436  0.1989  0.2865  0.0789
  157RES   C24344235   5.331   2.936   5.447 -0.2972  0.0643 -0.8384
  157RES   O24444236   5.362   2.881   5.572 -0.1670  0.2038 -0.5235
  157RES   C24544237   5.478   2.796   5.562 -1.0727 -0.5211 -0.7678
  157RES   H24644238   5.251   3.134   5.246  0.3885 -1.5649 -2.7960
  157RES   H24744239   5.189   2.983   5.217  0.1497 -0.0557 -0.0309
  157RES   H24844240   5.125   2.969   5.484 -1.1542  1.5727 -0.6125
  157RES   H24944241   5.319   2.853   5.377 -0.8945  0.0019 -0.6639
  157RES   H25044242   5.421   2.984   5.410  2.2095 -1.1862  3.2843
  157RES   H25144243   5.567   2.832   5.511  0.4513 -0.6777  1.7115
  157RES   H25244244   5.454   2.706   5.506 -0.5578 -0.9385 -0.3191
  157RES   H25344245   5.508   2.761   5.661 -0.5364 -0.4338 -0.8997
  157RES   O25444246   5.242   3.138   5.514 -0.3354 -0.1830  0.1785
  157RES   C25544247   5.188   3.142   5.649  0.0551  0.6341  0.5097
  157RES   C25644248   5.256   3.235   5.739  0.5376  0.4509  0.0100
  157RES   C25744249   5.166   3.300   5.854 -0.3055 -0.1177  0.2654
  157RES   O25844250   5.217   3.430   5.863 -0.2841 -0.2424 -0.0036
  157RES   C25944251   5.119   3.532   5.872 -0.1215  0.1279 -0.2022
  157RES   H26044252   5.083   3.168   5.639  0.2126  0.7268 -0.9724
  157RES   H26144253   5.188   3.040   5.689  2.7218  0.6446  0.6250
  157RES   H26244254   5.288   3.320   5.679  0.8056  0.2715 -0.1034
  157RES   H26344255   5.059   3.299   5.833 -0.4614  0.3195  1.0142
  157RES   H26444256   5.165   3.243   5.947 -0.1542 -2.0011 -0.8635
  157RES   H26544257   5.167   3.629   5.868 -0.6234  0.3695 -0.4216
  157RES   H26644258   5.079   3.521   5.973 -1.2867 -1.2894 -0.7928
  157RES   H26744259   5.045   3.525   5.793 -0.6717 -0.3411  0.3492
  157RES   O26844260   5.374   3.190   5.800  0.1091  0.1715 -0.0725
  157RES   C26944261   5.482   3.161   5.711 -0.2595 -0.4808  0.0119
  157RES   C27044262   5.607   3.180   5.798 -0.9209 -0.0653 -0.5911
  157RES   C27144263   5.733   3.110   5.749  0.0295  0.2030 -0.6670
  157RES   O27244264   5.851   3.160   5.814  0.4740  0.0787  0.2392
  157RES   C27344265   5.979   3.133   5.754 -0.2083 -0.3816  0.3486
  157RES   H27444266   5.482   3.226   5.623  1.3221  0.6398  0.8144
  157RES   H27544267   5.464   3.062   5.670  2.0016  0.0333 -2.4174
  157RES   H27644268   5.622   3.288   5.795 -1.9228  0.0897 -0.2433
  157RES   H27744269   5.746   3.137   5.644 -0.0404  3.7721  0.1602
  157RES   H27844270   5.740   3.004   5.773  0.4497  0.1573 -0.9730
  157RES   H27944271   6.015   3.032   5.775 -2.2555 -1.1558  0.2808
  157RES   H28044272   6.057   3.195   5.799  0.0146 -0.7299  0.4486
  157RES   H28144273   5.986   3.147   5.646  2.0915  1.8318  0.7303
  157RES   H28244274   5.589   3.145   5.900 -1.1831  2.2703  0.2118
  158RES     O144275   0.590   1.578   4.093  0.2474 -0.5646  0.1118
  158RES     C244276   0.489   1.524   4.012  0.7179  0.0347 -0.1745
  158RES     C344277   0.464   1.592   3.875 -0.4350 -0.3189 -0.9765
  158RES     C444278   0.417   1.495   3.769 -0.2861 -0.2691 -0.5697
  158RES     O544279   0.464   1.537   3.641 -0.2793 -0.5648 -0.0206
  158RES     C644280   0.417   1.445   3.537 -0.1164  0.0723  0.4259
  158RES     H744281   0.530   1.426   3.988  0.0428 -0.4940  0.7928
  158RES     H844282   0.393   1.515   4.063 -0.4494  1.6796 -2.0252
  158RES     H944283   0.556   1.639   3.842 -0.3337  0.4558  0.3929
  158RES    H1044284   0.310   1.474   3.773 -0.3777  0.3591  0.4004
  158RES    H1144285   0.480   1.408   3.788  2.0277  1.5857  0.3835
  158RES    H1244286   0.321   1.397   3.555  0.2540  0.0393  2.3997
  158RES    H1344287   0.416   1.486   3.436 -0.8798  1.5175  1.0066
  158RES    H1444288   0.483   1.359   3.527  0.3458  0.7608 -3.1170
  158RES    H1544289   0.667   1.581   4.039  1.0539 -1.6356  1.1843
  158RES    O1644290   0.364   1.699   3.894  0.0104  0.2373  0.5740
  158RES    C1744291   0.383   1.816   3.815 -0.1132  0.7134 -0.3316
  158RES    C1844292   0.279   1.915   3.860 -0.9395 -0.1371 -0.0512
  158RES    C1944293   0.332   2.055   3.836 -0.0400  0.4014 -0.1350
  158RES    O2044294   0.252   2.156   3.893  0.3550  0.1788 -0.5516
  158RES    C2144295   0.318   2.277   3.917 -0.9961 -0.1607 -0.4539
  158RES    H2244296   0.353   1.779   3.717  0.0551  0.5023 -0.3030
  158RES    H2344297   0.480   1.864   3.805 -0.5112  1.3895 -0.9683
  158RES    H2444298   0.245   1.907   3.963 -1.7800 -0.8874 -0.3696
  158RES    H2544299   0.432   2.064   3.878  0.2082 -1.2651 -0.3274
  158RES    H2644300   0.355   2.073   3.731  2.2821  1.4652  0.5259
  158RES    H2744301   0.372   2.259   4.010  2.2708  1.1146 -2.0286
  158RES    H2844302   0.243   2.356   3.930 -0.6760 -0.2670  2.2476
  158RES    H2944303   0.387   2.307   3.838 -1.9821 -1.8016 -1.9833
  158RES    O3044304   0.168   1.888   3.784 -0.0638 -0.2150 -0.1370
  158RES    C3144305   0.038   1.874   3.844 -0.4697  0.9480 -0.9608
  158RES    C3244306   7.749   1.807   3.747 -0.3581 -0.2502 -0.0962
  158RES    C3344307   7.616   1.821   3.805 -0.0161 -0.1268 -0.3130
  158RES    O3444308   7.523   1.807   3.699  0.4746 -0.0006 -0.3050
  158RES    C3544309   7.393   1.804   3.749  0.5495 -0.3648 -0.7027
  158RES    H3644310   0.039   1.828   3.943 -1.2459  0.5352 -1.1383
  158RES    H3744311   0.004   1.976   3.863 -0.8220  0.5697  0.4996
  158RES    H3844312   7.770   1.856   3.652  1.7899 -0.0745  0.4451
  158RES    H3944313   7.595   1.921   3.843 -0.8729  0.5078 -2.3998
  158RES    H4044314   7.606   1.741   3.878 -0.7648 -0.3213 -0.6179
  158RES    H4144315   7.381   1.889   3.818 -0.3345  0.1438 -1.4721
  158RES    H4244316   7.377   1.705   3.791 -2.1258  0.7299  1.0609
  158RES    H4344317   7.318   1.810   3.670 -0.8639 -0.6955  0.5744
  158RES    O4444318   7.778   1.666   3.746 -0.2482 -0.0250  0.7654
  158RES    C4544319   0.053   1.612   3.658 -0.0026 -0.0442 -0.1910
  158RES    C4644320   7.812   1.607   3.514  0.1161  0.1252 -0.2542
  158RES    C4744321   0.100   1.563   3.407  0.0566 -0.0965 -0.1443
  158RES    O4844322   0.063   1.603   3.273 -0.1557  0.4937  0.2667
  158RES    C4944323   0.177   1.598   3.183  0.2243  0.2377 -0.4052
  158RES    H5044324   0.075   1.510   3.688  0.6421  0.2274  0.2835
  158RES    H5144325   0.140   1.678   3.662 -2.1498  2.7987  1.0508
  158RES    H5244326   7.773   1.704   3.484  0.5980 -0.3451 -2.4599
  158RES    H5344327   0.197   1.604   3.434 -0.4517  1.7398 -1.0548
  158RES    H5444328   0.106   1.454   3.401  2.1373 -0.0912  1.1438
  158RES    H5544329   0.153   1.647   3.089 -1.5852  0.1154 -0.0273
  158RES    H5644330   0.220   1.499   3.165  0.1167  0.4201 -1.6974
  158RES    H5744331   0.256   1.662   3.220  0.7316  0.2919 -1.5709
  158RES    O5844332   7.713   1.509   3.503  0.7097  0.1448 -0.4244
  158RES    C5944333   7.601   1.546   3.418  0.3033  0.6487  0.2281
  158RES    C6044334   7.492   1.435   3.415  0.9332 -0.1470  0.2637
  158RES    C6144335   7.381   1.461   3.310 -0.1153  0.3561 -0.7290
  158RES    O6244336   7.307   1.348   3.267 -0.1636 -0.2200 -0.0410
  158RES    C6344337   7.198   1.314   3.348  0.0931  0.2074 -0.2009
  158RES    H6444338   7.635   1.564   3.316  2.2925  2.0362  1.0894
  158RES    H6544339   7.569   1.647   3.443  0.5649  0.9409 -0.5973
  158RES    H6644340   7.536   1.339   3.387  1.6687  1.0001 -2.6619
  158RES    H6744341   7.317   1.539   3.352 -1.7647 -2.0393  1.3468
  158RES    H6844342   7.435   1.491   3.220  2.4463 -2.2883 -0.1365
  158RES    H6944343   7.221   1.271   3.445 -0.0319  2.0642  0.6617
  158RES    H7044344   7.155   1.232   3.289  1.1344  0.5798 -1.5164
  158RES    H7144345   7.118   1.388   3.351  0.9033  1.0689 -0.0044
  158RES    O7244346   7.430   1.427   3.543  1.2901 -0.1114  0.2990
  158RES    C7344347   7.484   1.320   3.624 -0.0369  1.7058 -0.1210
  158RES    C7444348   7.452   1.328   3.772  0.1854 -0.0906 -0.3882
  158RES    C7544349   7.546   1.236   3.851  0.1534  0.0266  0.5344
  158RES    O7644350   7.526   1.235   3.994  0.0303 -0.0786  0.9076
  158RES    C7744351   7.626   1.158   4.056 -0.2710 -0.4699 -1.0593
  158RES    H7844352   7.453   1.228   3.573 -0.0694  2.4170 -1.4165
  158RES    H7944353   7.592   1.334   3.621 -0.1596  3.0328  0.8729
  158RES    H8044354   7.477   1.430   3.801 -0.3764  0.2046 -0.9103
  158RES    H8144355   7.644   1.279   3.833  0.1414 -0.1802 -0.0598
  158RES    H8244356   7.540   1.136   3.808 -2.0572 -0.6046  2.2138
  158RES    H8344357   7.616   1.178   4.163  1.4746  0.4280 -1.0590
  158RES    H8444358   7.726   1.170   4.016  0.0606 -2.2984 -0.8428
  158RES    H8544359   7.592   1.057   4.033  2.1445 -1.6520  0.3531
  158RES    O8644360   7.311   1.302   3.786 -0.7960 -0.3016 -0.0105
  158RES    C8744361   7.249   1.356   3.899 -0.0305 -0.4151  0.1006
  158RES    C8844362   7.094   1.349   3.908  0.6160  0.2652 -0.4808
  158RES    C8944363   7.023   1.399   4.031  0.1321  0.3975  0.0966
  158RES    O9044364   6.887   1.353   4.038 -0.0341  0.4007 -0.4921
  158RES    C9144365   6.815   1.434   4.132 -0.4004 -0.7663 -0.7844
  158RES    H9244366   7.300   1.319   3.988 -2.2105  2.2923  2.5506
  158RES    H9344367   7.270   1.462   3.910 -0.5690 -0.4095  1.1674
  158RES    H9444368   7.066   1.244   3.898  1.0334  0.1520 -0.4321
  158RES    H9544369   7.068   1.355   4.120 -1.1694 -0.0233  0.5554
  158RES    H9644370   7.016   1.508   4.041 -1.7439  0.2122  1.0619
  158RES    H9744371   6.874   1.452   4.222 -1.1401  0.8217 -0.6085
  158RES    H9844372   6.792   1.533   4.091  0.1667 -0.9902 -1.6664
  158RES    H9944373   6.719   1.391   4.159 -0.2790 -0.8058 -0.4262
  158RES   O10044374   7.035   1.437   3.813  0.2704  0.3640 -0.3294
  158RES   C10144375   6.998   1.375   3.692  0.0833  0.4279 -0.4811
  158RES   C10244376   6.944   1.469   3.583  0.3646  0.2111  0.6176
  158RES   C10344377   7.033   1.591   3.571  0.5275 -0.9265  0.1630
  158RES   O10444378   7.005   1.676   3.464  0.5591  0.2965  0.1776
  158RES   C10544379   7.101   1.785   3.461  0.4039  0.2089  0.0166
  158RES   H10644380   6.927   1.294   3.710 -2.3694  2.1765 -1.9522
  158RES   H10744381   7.085   1.318   3.660  0.0558 -1.6735  2.9587
  158RES   H10844382   6.936   1.410   3.492 -0.2049  2.0698 -0.5701
  158RES   H10944383   7.136   1.556   3.566  0.8016  0.0295 -1.3731
  158RES   H11044384   7.010   1.636   3.668 -1.2510  0.1748 -0.7339
  158RES   H11144385   7.095   1.844   3.553  0.7319 -1.4072  1.1008
  158RES   H11244386   7.082   1.839   3.368  3.1215  0.7005 -0.3007
  158RES   H11344387   7.201   1.742   3.451  0.2844  0.2237 -1.3431
  158RES   O11444388   6.809   1.505   3.617 -0.1925  0.9568 -0.1649
  158RES   C11544389   6.716   1.405   3.589  0.0287  0.5526  0.0856
  158RES   C11644390   6.574   1.469   3.585 -0.1703  0.2268  0.2347
  158RES   C11744391   6.503   1.432   3.453  0.0579 -0.5401  0.4220
  158RES   O11844392   6.376   1.496   3.457 -0.1827  0.3443 -0.2469
  158RES   C11944393   6.290   1.459   3.354 -0.3365  0.0857 -0.0984
  158RES   H12044394   6.736   1.384   3.484 -0.3974  2.0232 -0.2923
  158RES   H12144395   6.710   1.311   3.645 -1.0196  1.5953  1.7643
  158RES   H12244396   6.581   1.578   3.592  0.3257  0.2411 -0.4090
  158RES   H12344397   6.554   1.448   3.358  0.7110  0.6505  0.9711
  158RES   H12444398   6.485   1.324   3.461 -1.2917 -0.3969 -0.6208
  158RES   H12544399   6.334   1.468   3.254 -1.5375 -1.1531 -0.7584
  158RES   H12644400   6.199   1.518   3.358  0.5185  1.4818 -0.8223
  158RES   H12744401   6.270   1.354   3.376  1.1291 -0.3568 -0.7933
  158RES   O12844402   6.495   1.428   3.696  0.3189  0.1943  0.3366
  158RES   C12944403   6.519   1.490   3.822 -0.4108 -0.2128 -0.0769
  158RES   C13044404   6.436   1.619   3.851  0.1160  0.2729 -0.0171
  158RES   C13144405   6.489   1.698   3.966 -0.3113 -0.0456 -0.1920
  158RES   O13244406   6.413   1.816   3.986  0.0040  0.1398  0.3792
  158RES   C13344407   6.445   1.889   4.102 -0.5051  0.4044  0.1527
  158RES   H13444408   6.496   1.417   3.900  1.4835 -1.3752 -0.5750
  158RES   H13544409   6.626   1.503   3.835 -0.3965 -1.5058  1.1664
  158RES   H13644410   6.443   1.677   3.758  1.3492 -0.0959 -0.1623
  158RES   H13744411   6.595   1.718   3.947  0.2321 -0.8974  1.8055
  158RES   H13844412   6.476   1.632   4.052 -0.2631  1.0565  0.6728
  158RES   H13944413   6.466   1.820   4.183  1.5749  1.5726  0.6600
  158RES   H14044414   6.541   1.939   4.089 -1.2473  1.7105 -0.4800
  158RES   H14144415   6.366   1.961   4.120 -0.9570  0.8238 -3.1275
  158RES   O14244416   6.301   1.582   3.877  0.3822 -0.6853  0.0330
  158RES   C14344417   6.221   1.547   3.765  1.0730  0.8045 -0.3568
  158RES   C14444418   6.089   1.613   3.770 -0.0320 -0.3464  0.1938
  158RES   C14544419   6.107   1.765   3.763  0.4360  0.2480 -0.0161
  158RES   O14644420   6.006   1.810   3.677 -0.0128 -0.0177  0.0405
  158RES   C14744421   6.040   1.940   3.620  0.1100 -0.6566 -0.3183
  158RES   H14844422   6.264   1.589   3.674  2.2606  0.0965 -0.1238
  158RES   H14944423   6.219   1.439   3.754 -0.5222  0.8136 -0.2991
  158RES   H15044424   6.035   1.581   3.681 -1.1485 -0.9771  1.0790
  158RES   H15144425   6.205   1.795   3.725  0.7575  0.1940  0.7694
  158RES   H15244426   6.114   1.790   3.869  0.1459  1.6925 -0.3291
  158RES   H15344427   5.949   1.989   3.586 -0.6569 -0.8649  1.3616
  158RES   H15444428   6.100   1.920   3.532  0.0562 -1.3367 -0.2044
  158RES   H15544429   6.081   2.011   3.692  0.3941 -1.1341 -0.0009
  158RES   O15644430   6.019   1.567   3.893  0.3962  0.2088  0.7099
  158RES   C15744431   5.885   1.617   3.907  0.0493 -0.2110  0.3146
  158RES   C15844432   5.827   1.565   4.039 -0.7980 -0.2716 -0.0660
  158RES   C15944433   5.680   1.528   4.025 -0.6610  0.6925 -0.4485
  158RES   O16044434   5.641   1.458   4.146 -0.3069 -0.4016  0.4721
  158RES   C16144435   5.507   1.478   4.198 -0.0260  0.1160  0.3760
  158RES   H16244436   5.869   1.725   3.905  0.4291 -0.1351  1.0665
  158RES   H16344437   5.829   1.565   3.830  0.7140  3.3814 -2.7507
  158RES   H16444438   5.874   1.470   4.062 -0.4751  0.8869  4.5311
  158RES   H16544439   5.619   1.618   4.016 -0.1555  1.2250  1.2289
  158RES   H16644440   5.664   1.460   3.941 -3.8083  1.5415 -0.6238
  158RES   H16744441   5.491   1.584   4.219  0.0013 -0.0444  1.2048
  158RES   H16844442   5.493   1.426   4.293 -0.1038 -0.9152 -0.1935
  158RES   H16944443   5.424   1.452   4.132  1.7544 -0.5725 -1.6585
  158RES   O17044444   5.844   1.649   4.151  0.1369 -0.1724  0.1446
  158RES   C17144445   5.974   1.661   4.198  0.1888  0.1043  0.4005
  158RES   C17244446   5.990   1.776   4.308 -0.6257  0.7865  0.9279
  158RES   C17344447   6.131   1.834   4.302 -0.1109 -0.4006 -0.3002
  158RES   O17444448   6.150   1.933   4.401 -0.2019  0.4959 -0.0551
  158RES   C17544449   6.290   1.964   4.421  0.7899  0.6466  0.0060
  158RES   H17644450   6.031   1.696   4.112 -1.6926  1.0301 -0.5051
  158RES   H17744451   6.017   1.566   4.230  0.4220 -0.5665 -1.8002
  158RES   H17844452   5.908   1.848   4.295  0.2206  1.5563 -0.3727
  158RES   H17944453   6.206   1.756   4.312  0.0884 -0.2363 -0.5053
  158RES   H18044454   6.145   1.896   4.214 -1.7023  0.4602  0.0295
  158RES   H18144455   6.344   1.877   4.459 -1.3074  0.0787  1.8126
  158RES   H18244456   6.300   2.031   4.506  0.5033  1.5040 -0.6301
  158RES   H18344457   6.332   2.010   4.331  1.6125 -0.0298  0.0298
  158RES   O18444458   5.991   1.720   4.435  0.1629  0.4882  0.1518
  158RES   C18544459   5.868   1.718   4.502  0.3522  0.0361 -0.3482
  158RES   C18644460   5.869   1.600   4.600  0.6893 -0.8610  0.5884
  158RES   C18744461   5.796   1.474   4.541  0.3179  0.3667 -0.0168
  158RES   O18844462   5.849   1.351   4.588 -0.2950  0.2013 -0.3061
  158RES   C18944463   5.821   1.229   4.516 -0.9965 -0.1355 -0.0394
  158RES   H19044464   5.786   1.710   4.432  0.2379  1.3853 -0.3882
  158RES   H19144465   5.852   1.815   4.550 -2.7321 -0.1808 -0.8397
  158RES   H19244466   5.973   1.575   4.620  0.6417 -1.4806  0.1035
  158RES   H19344467   5.806   1.467   4.432  1.9159 -1.7466  0.2424
  158RES   H19444468   5.690   1.480   4.563 -0.0678 -1.5448 -1.2262
  158RES   H19544469   5.887   1.230   4.430 -1.5334 -1.3985 -0.4767
  158RES   H19644470   5.853   1.146   4.579  0.9787  1.2270  0.7820
  158RES   H19744471   5.713   1.227   4.498 -1.0310 -0.5320  0.1984
  158RES   O19844472   5.809   1.642   4.720  0.0931 -0.5915  0.1077
  158RES   C19944473   5.815   1.555   4.832 -0.1449 -0.5459  0.0731
  158RES   C20044474   5.719   1.607   4.944 -0.2780  0.1332  0.0178
  158RES   C20144475   5.728   1.521   5.077  0.3371 -0.1027 -0.5738
  158RES   O20244476   5.714   1.385   5.045 -0.5129 -0.1575 -0.6244
  158RES   C20344477   5.698   1.307   5.166  0.1381  0.0213 -0.3952
  158RES   H20444478   5.908   1.565   4.889 -0.1867 -0.1103  0.0684
  158RES   H20544479   5.794   1.454   4.798 -1.1655  0.1195 -1.3138
  158RES   H20644480   5.745   1.709   4.972 -0.1237  0.7809 -2.3228
  158RES   H20744481   5.831   1.535   5.110  0.3101 -1.9831  0.3750
  158RES   H20844482   5.662   1.558   5.155  0.6107  0.8724 -0.8017
  158RES   H20944483   5.596   1.319   5.201  1.0775  0.5807  2.2777
  158RES   H21044484   5.755   1.337   5.254  0.6565  0.2341 -0.7985
  158RES   H21144485   5.717   1.202   5.144  0.5201 -0.0980  0.4750
  158RES   O21244486   5.585   1.613   4.897 -0.5027  0.2546 -0.2494
  158RES   C21344487   5.521   1.492   4.863 -0.4739 -0.1132  0.5625
  158RES   C21444488   5.369   1.520   4.827  0.4522  0.4762 -0.2757
  158RES   C21544489   5.303   1.393   4.778 -0.7578 -0.1010 -0.6193
  158RES   O21644490   5.163   1.417   4.771 -0.5012 -0.7686  0.3894
  158RES   C21744491   5.095   1.392   4.895  0.0117  0.8814 -0.1007
  158RES   H21844492   5.522   1.418   4.943 -0.3914  0.2380  0.8864
  158RES   H21944493   5.567   1.446   4.775 -4.1618 -2.0084 -0.4637
  158RES   H22044494   5.323   1.571   4.911  0.8995  1.3890 -0.5790
  158RES   H22144495   5.336   1.364   4.678  0.5011  1.0018 -0.5420
  158RES   H22244496   5.312   1.310   4.848  0.9896  0.4266 -0.1820
  158RES   H22344497   4.988   1.405   4.875  0.3602  1.2673 -1.7291
  158RES   H22444498   5.118   1.461   4.976 -0.1797 -2.1985  2.7020
  158RES   H22544499   5.110   1.288   4.925  2.2975  0.9912 -0.8200
  158RES   O22644500   5.379   1.596   4.704 -0.1158 -0.8164  0.3793
  158RES   C22744501   5.389   1.734   4.719 -0.1255  0.0131  0.0625
  158RES   C22844502   5.505   1.779   4.631  0.3236 -0.2642  0.7611
  158RES   C22944503   5.494   1.750   4.480  0.1835 -0.3868  0.0230
  158RES   O23044504   5.378   1.808   4.427  0.2500  0.4579  0.2842
  158RES   C23144505   5.386   1.922   4.353  0.5428  0.1180  0.1968
  158RES   H23244506   5.404   1.762   4.823  2.8362 -1.2594  0.0298
  158RES   H23344507   5.303   1.783   4.673 -1.0241 -1.7369 -0.1799
  158RES   H23444508   5.593   1.720   4.655  0.2919  0.6652  3.2895
  158RES   H23544509   5.476   1.644   4.466  0.3013 -0.3368 -0.5135
  158RES   H23644510   5.581   1.772   4.418 -0.4202  0.1625 -0.6427
  158RES   H23744511   5.404   2.006   4.419  1.1406  0.9884 -1.0657
  158RES   H23844512   5.298   1.952   4.297  2.7369  2.3405 -2.1889
  158RES   H23944513   5.471   1.913   4.286  0.5604  0.1460  0.2159
  158RES   O24044514   5.538   1.912   4.661  0.0189  0.0592  0.2088
  158RES   C24144515   5.623   1.928   4.775  0.4026 -0.1211  0.3013
  158RES   C24244516   5.657   2.072   4.792  1.1094 -0.3330 -0.0840
  158RES   C24344517   5.701   2.101   4.936  0.0578 -0.2887  0.0691
  158RES   O24444518   5.659   2.232   4.975  0.3275  0.1325 -0.0292
  158RES   C24544519   5.667   2.248   5.116  0.6551 -0.1295  0.1664
  158RES   H24644520   5.719   1.876   4.764  0.9330  0.9723 -0.3471
  158RES   H24744521   5.576   1.881   4.861 -0.2470 -1.4543 -0.7685
  158RES   H24844522   5.566   2.131   4.775  2.5923  2.0589  0.0434
  158RES   H24944523   5.649   2.027   4.996 -2.9387  0.9312 -0.9433
  158RES   H25044524   5.810   2.098   4.940 -0.0155 -0.7696  1.7861
  158RES   H25144525   5.767   2.249   5.158 -0.3815 -1.3033  2.7594
  158RES   H25244526   5.608   2.174   5.170 -1.4476  1.5813  0.2737
  158RES   H25344527   5.619   2.344   5.137 -0.1675 -0.7896  1.3808
  158RES   O25444528   5.755   2.122   4.697 -0.1553 -0.0146  0.1373
  158RES   C25544529   5.703   2.155   4.567 -0.5041  0.2616 -0.2477
  158RES   C25644530   5.812   2.141   4.462  0.4229 -0.6902 -0.0102
  158RES   C25744531   5.754   2.139   4.324  0.7179  0.4774  0.2048
  158RES   O25844532   5.701   2.008   4.298 -0.0837 -0.5386  0.2887
  158RES   C25944533   5.674   1.976   4.164  0.3843  0.0632 -0.1160
  158RES   H26044534   5.615   2.098   4.537  0.3006 -1.1541  0.0524
  158RES   H26144535   5.683   2.262   4.579 -1.1103  0.5736 -3.6054
  158RES   H26244536   5.867   2.047   4.472 -0.4984 -1.1660  0.6506
  158RES   H26344537   5.673   2.211   4.316  0.7690  0.5573  0.3944
  158RES   H26444538   5.830   2.171   4.253  2.6450 -1.8542  1.1301
  158RES   H26544539   5.760   2.015   4.110  0.0983  0.1403 -0.5154
  158RES   H26644540   5.588   2.027   4.121 -0.7321 -1.7769 -0.0660
  158RES   H26744541   5.665   1.868   4.158  1.3377 -0.0432  0.2161
  158RES   O26844542   5.910   2.245   4.470 -0.8398  0.0558  0.4777
  158RES   C26944543   6.027   2.207   4.543 -0.3969  0.1426  0.7913
  158RES   C27044544   6.051   2.325   4.647  0.4336  0.4801 -0.1894
  158RES   C27144545   5.951   2.351   4.757  0.5554  0.4201  0.6008
  158RES   O27244546   5.971   2.477   4.816  0.2905 -0.0168  0.0204
  158RES   C27344547   5.892   2.510   4.933  0.5844 -0.1164 -0.3690
  158RES   H27444548   6.112   2.202   4.476 -1.0251 -0.6319  0.0451
  158RES   H27544549   6.014   2.112   4.596 -2.7547  0.5046  0.9515
  158RES   H27644550   6.148   2.311   4.694 -0.4173 -1.4980  1.0330
  158RES   H27744551   5.956   2.272   4.832  2.0696  0.2490  0.3433
  158RES   H27844552   5.851   2.351   4.714  1.0591 -2.9880 -0.7364
  158RES   H27944553   5.908   2.616   4.955 -0.2327  0.3179 -1.8213
  158RES   H28044554   5.934   2.463   5.022 -0.8429  0.9005  0.8630
  158RES   H28144555   5.787   2.485   4.926  1.0344 -1.6226 -1.7974
  158RES   H28244556   6.047   2.417   4.588  0.9069  0.4972 -0.2029
  159RES     O144557   7.139   7.032   5.078  0.7189 -0.9693  0.1277
  159RES     C244558   7.052   7.079   4.981  0.0305  0.0288 -0.3525
  159RES     C344559   7.140   7.097   4.849  0.2943  0.0299  0.6176
  159RES     C444560   7.050   7.094   4.726 -0.0239 -0.0862 -0.3934
  159RES     O544561   7.109   7.055   4.600  0.2552 -0.2730 -0.1698
  159RES     C644562   7.036   6.954   4.540 -0.4488 -0.3765 -0.3378
  159RES     H744563   6.982   6.999   4.955  0.9005  0.4505 -4.4328
  159RES     H844564   6.992   7.168   5.001  1.5542  0.8604  0.5515
  159RES     H944565   7.213   7.017   4.839  0.0841 -0.2802  1.5212
  159RES    H1044566   7.006   7.192   4.714 -0.5702 -0.4250 -1.2257
  159RES    H1144567   6.959   7.037   4.744 -0.5846  1.5938  2.1777
  159RES    H1244568   7.029   6.860   4.595 -0.2143 -0.1602  0.0645
  159RES    H1344569   6.936   6.993   4.525 -0.7076 -1.4594 -1.5080
  159RES    H1444570   7.086   6.928   4.447 -0.4461  0.6122 -0.6101
  159RES    H1544571   7.151   6.940   5.063 -0.5552 -1.2862  0.9413
  159RES    O1644572   7.208   7.222   4.840 -0.2903 -0.2198  0.1322
  159RES    C1744573   7.299   7.238   4.953 -0.4632 -0.0147 -0.6252
  159RES    C1844574   7.375   7.368   4.917  0.1381  0.4587 -0.0587
  159RES    C1944575   7.438   7.445   5.036  0.6140 -0.2649  0.0651
  159RES    O2044576   7.344   7.493   5.131 -0.1765 -0.5004  0.1801
  159RES    C2144577   7.417   7.514   5.254 -0.5181 -0.1634  0.6411
  159RES    H2244578   7.361   7.149   4.963  1.6661  1.5511  0.6818
  159RES    H2344579   7.248   7.251   5.048  1.9140  1.9653  0.4345
  159RES    H2444580   7.306   7.441   4.873 -0.8107 -1.4679 -1.8657
  159RES    H2544581   7.523   7.386   5.070 -0.1505 -1.0621  0.6297
  159RES    H2644582   7.481   7.536   4.995 -1.5067  0.7943  0.1412
  159RES    H2744583   7.453   7.426   5.308  1.2635 -0.2945 -0.6851
  159RES    H2844584   7.354   7.566   5.326  0.3506  0.1488  1.1871
  159RES    H2944585   7.504   7.579   5.239 -1.5908  0.9870 -0.7520
  159RES    O3044586   7.496   7.346   4.831  0.0997  0.2074  0.0849
  159RES    C3144587   7.479   7.334   4.690 -0.5698  0.2485  0.9009
  159RES    C3244588   7.601   7.321   4.595  0.6429 -0.1691 -0.6167
  159RES    C3344589   7.686   7.198   4.644  0.4989  0.5950 -0.1938
  159RES    O3444590   7.760   7.151   4.533 -0.4845  0.1755  0.2422
  159RES    C3544591   0.050   7.059   4.578 -0.0773 -1.1244  0.0190
  159RES    H3644592   7.413   7.250   4.671  0.6806 -0.7173  0.7224
  159RES    H3744593   7.430   7.420   4.646  0.4596  1.2192  1.6210
  159RES    H3844594   7.567   7.299   4.493 -1.8858  0.4286  0.0421
  159RES    H3944595   7.631   7.110   4.674 -0.3751  1.0366 -0.4836
  159RES    H4044596   7.749   7.235   4.725 -0.8888 -0.6712  1.4887
  159RES    H4144597   0.091   6.997   4.499 -0.8077 -0.1428 -1.1452
  159RES    H4244598   0.009   6.982   4.643  0.0381 -2.2340 -1.2112
  159RES    H4344599   0.127   7.111   4.635  0.3444  1.5567 -2.8638
  159RES    O4444600   7.666   7.443   4.582 -0.3765  0.5761  0.4970
  159RES    C4544601   7.785   7.424   4.503  0.6462  0.3832  0.0126
  159RES    C4644602   0.012   7.555   4.439  0.5267 -0.3844  0.4989
  159RES    C4744603   0.162   7.579   4.432 -0.2102 -0.4683  0.0072
  159RES    O4844604   0.180   7.710   4.391 -0.2235 -0.3136 -0.8433
  159RES    C4944605   0.314   7.755   4.382 -0.8006  0.2571  0.1827
  159RES    H5044606   7.778   7.350   4.423  0.3764  0.2566  0.1500
  159RES    H5144607   0.036   7.391   4.581 -0.2002 -1.8267 -0.1340
  159RES    H5244608   7.778   7.631   4.498 -0.0500 -0.2403 -0.1899
  159RES    H5344609   0.210   7.555   4.527  0.0602 -0.4569 -0.1239
  159RES    H5444610   0.213   7.517   4.358 -0.3007  1.0977 -1.4115
  159RES    H5544611   0.316   0.016   4.306  0.7130  1.0714  1.0400
  159RES    H5644612   0.377   7.684   4.328 -0.9154  3.0968 -3.8648
  159RES    H5744613   0.369   7.793   4.468 -0.2083 -1.1120  0.4338
  159RES    O5844614   7.784   7.537   4.302 -0.1479  0.1267  0.0086
  159RES    C5944615   7.643   7.573   4.271 -0.1691  0.0925 -0.6052
  159RES    C6044616   7.611   7.730   4.236  0.0702  0.5681  0.0506
  159RES    C6144617   7.465   7.782   4.233 -0.0517 -0.4842  0.2567
  159RES    O6244618   7.414   7.752   4.360  0.0539 -0.2876  0.5558
  159RES    C6344619   7.276   7.796   4.368  0.2887  0.9499 -0.1527
  159RES    H6444620   7.578   7.545   4.353 -0.2422 -0.7903 -0.9529
  159RES    H6544621   7.613   7.507   4.189 -1.6875  0.4472 -0.3521
  159RES    H6644622   7.671   7.800   4.294  0.2401  0.8491 -0.4653
  159RES    H6744623   7.471   0.072   4.210 -0.8834 -0.7603 -1.2890
  159RES    H6844624   7.409   7.728   4.157 -1.5885 -0.5508  1.4156
  159RES    H6944625   7.253   7.782   4.474 -0.2004  0.3228 -0.3383
  159RES    H7044626   7.207   7.735   4.310 -0.0730  1.2101 -0.0018
  159RES    H7144627   7.254   0.084   4.351 -2.5701  0.3568 -0.3882
  159RES    O7244628   7.649   7.745   4.100  0.2582 -0.0671 -0.0365
  159RES    C7344629   7.781   7.804   4.080 -0.3530 -0.9789  0.1017
  159RES    C7444630   7.791   0.026   3.929 -0.1193 -0.2998  0.1646
  159RES    C7544631   0.117   0.057   3.877  0.2954 -0.3568  0.5819
  159RES    O7644632   0.108   0.108   3.749 -0.1749  0.1754 -0.4673
  159RES    C7744633   0.228   0.158   3.698 -0.7100  0.3630 -0.2234
  159RES    H7844634   7.809   0.076   4.137  0.4975 -1.5459  0.5767
  159RES    H7944635   0.049   7.737   4.094  0.8077  0.0504 -1.7966
  159RES    H8044636   7.750   7.764   3.866 -0.8716 -1.2718  1.8400
  159RES    H8144637   0.174   7.781   3.877 -0.1823 -0.6562 -0.6336
  159RES    H8244638   0.160   0.125   3.950 -0.5830  0.0045  0.7752
  159RES    H8344639   0.213   0.173   3.591 -0.3567  2.0556 -0.0497
  159RES    H8444640   0.308   0.086   3.716  0.7579  1.9701 -0.1557
  159RES    H8544641   0.274   0.242   3.751 -1.1233  1.3408 -1.4039
  159RES    O8644642   7.725   0.156   3.923 -0.3382 -0.0378 -0.1748
  159RES    C8744643   7.602   0.154   3.864 -0.0764 -0.2199 -0.1767
  159RES    C8844644   7.542   0.289   3.890  0.3413  0.1251 -0.3530
  159RES    C8944645   7.439   0.326   3.769  0.2816  0.2326  0.4473
  159RES    O9044646   7.415   0.471   3.771 -0.7720 -0.8159  0.0060
  159RES    C9144647   7.294   0.512   3.701 -0.2159  0.5748 -0.3140
  159RES    H9244648   7.608   0.144   3.756 -3.6530  2.6170 -0.7366
  159RES    H9344649   7.539   0.076   3.906  0.9752 -0.1537  1.5784
  159RES    H9444650   7.624   0.360   3.892  1.1946 -0.8253 -1.5303
  159RES    H9544651   7.487   0.312   3.672  1.0537  0.7339  0.7522
  159RES    H9644652   7.350   0.264   3.770 -0.9988  1.9738 -1.6330
  159RES    H9744653   7.287   0.466   3.602 -0.5066 -0.6915  0.2756
  159RES    H9844654   7.210   0.480   3.763  0.0964 -1.6889 -1.0115
  159RES    H9944655   7.293   0.620   3.690  1.3918  0.6584  0.1905
  159RES   O10044656   7.478   0.281   4.013  0.1298 -0.0144 -0.1289
  159RES   C10144657   7.428   0.407   4.059 -0.2421 -0.0070  1.1791
  159RES   C10244658   7.418   0.410   4.214  0.1478  0.1568 -0.2116
  159RES   C10344659   7.328   0.535   4.251  0.2509  0.0244 -0.2718
  159RES   O10444660   7.277   0.506   4.384  0.6290 -0.2408  0.1055
  159RES   C10544661   7.238   0.623   4.455  0.0571  0.4956  0.7549
  159RES   H10644662   7.327   0.420   4.019  0.8138  1.0750 -1.1885
  159RES   H10744663   7.487   0.493   4.027 -0.2022 -0.6003 -0.3560
  159RES   H10844664   7.378   0.314   4.247 -0.7899  1.1029  1.5280
  159RES   H10944665   7.233   0.529   4.198 -0.5491  1.5173  0.9548
  159RES   H11044666   7.388   0.622   4.227  3.2803 -1.3962  1.7597
  159RES   H11144667   7.327   0.682   4.475  1.0197 -1.1755  1.5024
  159RES   H11244668   7.167   0.611   4.538 -2.4707 -2.3957 -1.7173
  159RES   H11344669   7.177   0.687   4.391  0.2844  1.6519  1.6797
  159RES   O11444670   7.538   0.434   4.279 -0.2249 -0.2252  0.0600
  159RES   C11544671   7.650   0.352   4.251 -0.7186  0.3889 -0.0873
  159RES   C11644672   7.772   0.397   4.346 -0.6340 -0.2911  0.4031
  159RES   C11744673   0.040   0.285   4.400  0.2770 -0.3360  0.5229
  159RES   O11844674   0.108   0.322   4.521 -0.8503 -0.2440 -0.0976
  159RES   C11944675   0.183   0.216   4.583  0.1161 -0.0784 -0.1608
  159RES   H12044676   7.614   0.250   4.263  1.2885 -0.3821 -0.2799
  159RES   H12144677   7.687   0.374   4.151  1.4423 -1.6008  0.2124
  159RES   H12244678   7.733   0.432   4.441  0.5924  0.4790  0.6284
  159RES   H12344679   7.800   0.193   4.415  2.3551 -2.1819 -2.1768
  159RES   H12444680   0.105   0.248   4.320 -1.7915  0.1380 -1.4108
  159RES   H12544681   0.272   0.191   4.526 -0.5588 -1.0793 -0.7934
  159RES   H12644682   0.122   0.125   4.578  0.3221 -0.3129  1.1819
  159RES   H12744683   0.201   0.229   4.690 -0.4177 -0.0713 -0.0653
  159RES   O12844684   0.030   0.500   4.282 -0.6489 -0.2604  0.2014
  159RES   C12944685   7.790   0.630   4.263  0.9140 -0.7127  0.0882
  159RES   C13044686   7.730   0.700   4.385  0.4617 -0.0317  0.7051
  159RES   C13144687   7.650   0.825   4.348  0.0741 -0.0986 -0.0831
  159RES   O13244688   7.719   0.929   4.266  0.3608 -0.1874 -0.6755
  159RES   C13344689   7.780   1.027   4.344 -0.2575  0.4241 -0.3073
  159RES   H13444690   0.042   0.698   4.212 -1.3568  1.6075 -0.0102
  159RES   H13544691   7.704   0.607   4.199 -1.2880  1.5578  2.1257
  159RES   H13644692   7.665   0.638   4.446 -0.5173  0.4076  0.1141
  159RES   H13744693   7.607   0.867   4.439 -0.5120  0.4379 -0.6007
  159RES   H13844694   7.570   0.789   4.284 -2.2639  1.0571  2.0722
  159RES   H13944695   0.046   0.970   4.385 -1.5634 -0.4177  1.2066
  159RES   H14044696   7.812   1.115   4.288 -0.6882  1.2803  0.7672
  159RES   H14144697   7.732   1.065   4.435 -0.8757  0.0308 -0.4675
  159RES   O14244698   0.024   0.743   4.469 -0.2233  0.0682  0.7168
  159RES   C14344699   0.078   0.644   4.553  0.6006 -0.3159  0.6468
  159RES   C14444700   0.153   0.700   4.672 -0.4006 -0.0973  0.3086
  159RES   C14544701   0.196   0.576   4.764  0.3225  0.1340 -0.2640
  159RES   O14644702   0.291   0.614   4.874 -0.1672  0.5101  0.5056
  159RES   C14744703   0.315   0.509   4.967  0.1003  0.4304  0.2173
  159RES   H14844704   0.002   0.585   4.604 -0.8203  2.1259  1.4277
  159RES   H14944705   0.139   0.581   4.487  0.9567  2.2716 -1.6001
  159RES   H15044706   0.236   0.761   4.635  0.3713 -1.8585 -0.9097
  159RES   H15144707   0.234   0.491   4.709  0.0659  1.2063 -2.1384
  159RES   H15244708   0.105   0.539   4.812  1.3971 -0.9219  0.9794
  159RES   H15344709   0.353   0.545   5.062  2.0388 -2.5167  0.6067
  159RES   H15444710   0.370   0.425   4.925 -2.5601 -0.9897 -0.5778
  159RES   H15544711   0.225   0.456   4.998  1.7959 -3.7189 -1.6044
  159RES   O15644712   0.064   0.766   4.755 -0.2530 -0.1074  0.1268
  159RES   C15744713   0.063   0.908   4.749 -0.5832  0.2791  0.4847
  159RES   C15844714   7.770   0.958   4.835  0.3613 -0.0453 -0.1643
  159RES   C15944715   7.732   1.099   4.799  0.3619  0.7689 -0.2172
  159RES   O16044716   7.609   1.134   4.854 -0.0036  0.3186  0.8013
  159RES   C16144717   7.569   1.274   4.825  0.7965 -0.1143 -0.0364
  159RES   H16244718   0.154   0.948   4.793 -0.7259  0.9882  0.1434
  159RES   H16344719   0.054   0.949   4.648  1.1111  2.3158  1.1216
  159RES   H16444720   7.678   0.902   4.823 -1.2203  2.3825  0.3899
  159RES   H16544721   7.804   1.172   4.835 -1.3699  0.9940  2.9383
  159RES   H16644722   7.724   1.120   4.692  1.7494  2.1377 -0.0717
  159RES   H16744723   7.467   1.304   4.849  1.5551  1.4207  1.4057
  159RES   H16844724   7.580   1.293   4.719 -0.2042  0.0787 -0.1086
  159RES   H16944725   7.632   1.348   4.874  0.0958  0.3665  0.1352
  159RES   O17044726   7.815   0.963   4.968  0.7270  0.3739  0.3629
  159RES   C17144727   0.021   0.835   5.028 -0.7014 -0.1911  0.1433
  159RES   C17244728   0.068   0.849   5.178  0.0704 -0.2898  0.7487
  159RES   C17344729   0.094   0.713   5.241 -0.4692  0.9597 -0.5222
  159RES   O17444730   7.786   0.636   5.238 -0.4837  0.1266  0.2168
  159RES   C17544731   7.798   0.496   5.266  0.5232 -0.7062  0.4559
  159RES   H17644732   0.099   0.772   4.984 -1.5608 -0.5080 -0.9370
  159RES   H17744733   7.750   0.770   5.030  0.2134 -1.5401 -1.6775
  159RES   H17844734   0.164   0.902   5.176 -0.3718  0.4856 -1.3504
  159RES   H17944735   0.175   0.657   5.193 -0.0172 -1.0090  2.4030
  159RES   H18044736   0.131   0.738   5.340  1.2397  1.5226 -1.2798
  159RES   H18144737   7.815   0.493   5.373  1.8845 -2.0627  0.2168
  159RES   H18244738   0.058   0.444   5.209  0.1309 -0.9977  0.1967
  159RES   H18344739   7.704   0.445   5.245  1.4347 -1.0188 -3.2445
  159RES   O18444740   7.781   0.913   5.260  0.2679  0.3702 -0.2170
  159RES   C18544741   7.788   1.053   5.260 -0.3038  0.6480  0.0524
  159RES   C18644742   7.649   1.110   5.290 -0.4114 -0.4401  0.0583
  159RES   C18744743   7.555   1.082   5.168  1.0188  0.0777  0.0608
  159RES   O18844744   7.412   1.100   5.202  0.5328  0.5105  0.7398
  159RES   C18944745   7.340   1.131   5.083 -0.2494  0.1371 -0.4279
  159RES   H19044746   0.005   1.090   5.164 -0.9391 -1.0570 -0.8504
  159RES   H19144747   0.046   1.074   5.336  3.4019 -1.3359 -2.9288
  159RES   H19244748   7.609   1.055   5.375  1.2812  0.0828  1.2214
  159RES   H19344749   7.573   0.984   5.124 -1.2963 -0.1594 -0.4283
  159RES   H19444750   7.584   1.152   5.089 -3.0503  1.3424 -0.4012
  159RES   H19544751   7.345   1.239   5.079 -0.7970  0.1665 -0.2452
  159RES   H19644752   7.390   1.087   4.996  1.3408  0.8881  0.0758
  159RES   H19744753   7.243   1.086   5.105 -0.3685  0.8404  0.4773
  159RES   O19844754   7.651   1.252   5.312  0.3212  0.3102  0.1920
  159RES   C19944755   7.545   1.309   5.391 -0.6617  0.0511  0.0399
  159RES   C20044756   7.609   1.420   5.479  0.8710 -0.4083  0.0582
  159RES   C20144757   7.579   1.408   5.635 -0.5093 -0.4408  0.2369
  159RES   O20244758   7.659   1.499   5.716 -0.1599  0.1620 -0.3958
  159RES   C20344759   7.625   1.497   5.854 -0.6704 -1.0574  0.1634
  159RES   H20444760   7.492   1.246   5.463 -0.1484  2.2385  2.4090
  159RES   H20544761   7.472   1.344   5.318  1.0004  3.1896 -0.1752
  159RES   H20644762   7.717   1.418   5.461  0.5650 -2.1368 -1.7688
  159RES   H20744763   7.475   1.420   5.663 -1.2250 -0.7290 -2.1841
  159RES   H20844764   7.608   1.307   5.663  0.6723  0.2175  1.4701
  159RES   H20944765   7.700   1.559   5.903 -0.8259 -0.8127  0.0872
  159RES   H21044766   7.631   1.396   5.896 -2.1809 -1.2017  0.0641
  159RES   H21144767   7.527   1.541   5.869 -0.1965 -0.2034  0.8166
  159RES   O21244768   7.559   1.547   5.442  0.3712  0.4373 -0.3522
  159RES   C21344769   7.649   1.656   5.451 -0.6752 -0.3071 -0.0275
  159RES   C21444770   7.575   1.791   5.450 -0.0189  0.3899 -0.4308
  159RES   C21544771   7.537   1.855   5.324 -0.6805 -0.2868 -0.1227
  159RES   O21644772   7.408   1.909   5.345 -0.3912 -0.1114 -0.1380
  159RES   C21744773   7.352   1.972   5.234  0.1037  0.0951 -0.0295
  159RES   H21844774   7.727   1.650   5.376 -0.2909  2.1613  0.1416
  159RES   H21944775   7.695   1.664   5.549 -0.0448 -4.4349  0.1233
  159RES   H22044776   7.488   1.766   5.512  0.6710 -0.8437  0.0617
  159RES   H22144777   7.605   1.938   5.306  0.4248 -0.4013  3.1738
  159RES   H22244778   7.537   1.781   5.245  0.6679  0.9507 -1.3148
  159RES   H22344779   7.247   1.990   5.253 -0.2477 -0.0442 -1.7832
  159RES   H22444780   7.351   1.909   5.145 -0.2391 -1.3491  0.9902
  159RES   H22544781   7.400   2.069   5.218  3.1112 -1.1709  0.8668
  159RES   O22644782   7.664   1.873   5.518 -0.0616  0.1656  0.7325
  159RES   C22744783   7.604   1.987   5.575  0.0808 -0.8897  0.5518
  159RES   C22844784   7.675   2.036   5.706  0.1160  0.5402 -0.0497
  159RES   C22944785   7.645   2.183   5.736  0.5965 -0.2953  0.2204
  159RES   O23044786   7.728   2.212   5.854 -0.3720  0.0754  0.1960
  159RES   C23144787   7.711   2.348   5.906 -0.0872  0.1068 -0.0708
  159RES   H23244788   7.505   1.964   5.613 -0.5490  0.5067 -0.1810
  159RES   H23344789   7.584   2.071   5.508 -1.6176  1.1754  3.5281
  159RES   H23444790   7.784   2.038   5.707  0.1627 -0.1502  3.2990
  159RES   H23544791   7.541   2.203   5.760  0.2133 -0.1828 -1.4787
  159RES   H23644792   7.681   2.238   5.648  1.4235 -0.2356  0.5838
  159RES   H23744793   7.704   2.426   5.830 -3.9293  1.2876  1.3923
  159RES   H23844794   7.789   2.378   5.976 -1.0600 -2.5517  2.2161
  159RES   H23944795   7.620   2.356   5.966  0.0663 -0.0366  0.1799
  159RES   O24044796   7.626   1.967   5.817  0.3940 -0.1418 -0.3530
  159RES   C24144797   7.683   1.842   5.860  0.8763 -0.5393 -0.0754
  159RES   C24244798   0.012   1.859   5.917  0.3170 -0.6854  0.4352
  159RES   C24344799   0.021   1.943   6.049  0.2162 -0.0933  0.2188
  159RES   O24444800   0.155   1.955   6.096  0.1657  0.4999 -0.2572
  159RES   C24544801   0.175   2.051   6.198  0.5624 -0.9915 -0.5185
  159RES   H24644802   7.681   1.767   5.781  3.3967 -1.4101  0.6271
  159RES   H24744803   7.623   1.808   5.944  0.9850 -0.1744  0.1553
  159RES   H24844804   0.069   1.920   5.847 -1.5266  0.1856 -0.3346
  159RES   H24944805   7.790   2.040   6.035  1.1816  0.7683  2.7076
  159RES   H25044806   7.772   1.897   6.122 -0.8150 -0.4140 -0.9085
  159RES   H25144807   0.117   2.019   6.284 -0.4281  0.6730 -0.5477
  159RES   H25244808   0.142   2.150   6.167 -0.2496 -1.3948 -0.9614
  159RES   H25344809   0.282   2.047   6.220  0.7484  0.3301 -1.1194
  159RES   O25444810   0.074   1.731   5.944 -0.2150 -0.5243  0.6839
  159RES   C25544811   0.149   1.693   5.832 -0.4791  0.3054  0.1435
  159RES   C25644812   0.180   1.543   5.827 -0.6375  0.0950 -0.4005
  159RES   C25744813   0.203   1.500   5.684 -0.4495 -0.3944  0.0348
  159RES   O25844814   0.212   1.356   5.678  1.2061  0.2503  0.1748
  159RES   C25944815   0.236   1.295   5.556 -0.5387 -0.0237 -0.0325
  159RES   H26044816   0.099   1.722   5.740  0.3592 -0.3313 -0.5261
  159RES   H26144817   0.242   1.749   5.828  0.9662 -2.1196 -1.5458
  159RES   H26244818   0.093   1.488   5.863  1.0642 -1.3316  1.7143
  159RES   H26344819   0.128   1.517   5.607 -0.4289  1.7498  0.4419
  159RES   H26444820   0.298   1.542   5.650 -0.6846 -1.5118 -2.0688
  159RES   H26544821   0.325   1.342   5.513 -1.6303  1.2996 -0.9090
  159RES   H26644822   0.148   1.320   5.496  0.1049  1.2300 -0.4704
  159RES   H26744823   0.252   1.189   5.574 -1.1259 -0.3862 -1.5254
  159RES   O26844824   0.305   1.508   5.883  0.6016  0.5411 -0.3387
  159RES   C26944825   0.286   1.467   6.012 -0.3095  0.1978  0.2886
  159RES   C27044826   0.415   1.437   6.090 -0.1400  0.2039  0.0464
  159RES   C27144827   0.509   1.561   6.090  0.6834 -0.6366  0.2072
  159RES   O27244828   0.641   1.522   6.084  0.3431 -0.3331 -0.3164
  159RES   C27344829   0.730   1.631   6.088 -0.5835  0.4070 -0.5400
  159RES   H27444830   0.227   1.376   5.997 -0.3648  0.4305 -1.0073
  159RES   H27544831   0.223   1.536   6.068 -1.2097  0.0647 -0.5352
  159RES   H27644832   0.398   1.403   6.193  1.8637  1.7171  0.9135
  159RES   H27744833   0.494   1.635   6.169  0.4642  0.8556 -1.2104
  159RES   H27844834   0.491   1.615   5.998  1.2362  0.1787  0.5738
  159RES   H27944835   0.718   1.712   6.017  3.1585  2.2054  0.7341
  159RES   H28044836   0.830   1.586   6.085 -1.6192 -1.8431 -2.1876
  159RES   H28144837   0.722   1.674   6.188  1.6106  1.8353 -0.9532
  159RES   H28244838   0.475   1.360   6.041  0.1630  0.0058  0.7158
  160RES     O144839   1.250   7.305   0.881 -0.6956  0.1159  0.3287
  160RES     C244840   1.272   7.448   0.856  0.3272  0.4726 -0.3693
  160RES     C344841   1.165   7.528   0.929 -0.6502  0.4937 -0.7341
  160RES     C444842   1.193   7.682   0.909 -0.0993  0.4654  0.0015
  160RES     O544843   1.172   7.722   0.774  0.7644 -0.0310  0.3212
  160RES     C644844   1.235   0.025   0.735  0.3315  0.1159 -0.2870
  160RES     H744845   1.377   7.464   0.881  0.1667 -0.2223  0.7820
  160RES     H844846   1.262   7.468   0.749 -0.8289  1.7183 -0.0394
  160RES     H944847   1.167   7.490   1.031  2.6083  1.2084 -0.4744
  160RES    H1044848   1.297   7.701   0.937  0.2489 -1.3563 -0.0240
  160RES    H1144849   1.120   7.729   0.975  0.2872  0.6393  0.3087
  160RES    H1244850   1.213   0.038   0.630 -3.0885  0.6925  0.4584
  160RES    H1344851   1.191   0.119   0.768 -0.8190 -1.1138  1.8006
  160RES    H1444852   1.344   0.025   0.738  0.3399 -0.2354 -0.5387
  160RES    H1544853   1.157   7.289   0.883 -0.9311  1.4871  1.1256
  160RES    O1644854   1.041   7.483   0.861  0.3855 -0.1710  0.3231
  160RES    C1744855   0.912   7.508   0.924 -1.2607 -0.2052  0.5841
  160RES    C1844856   0.806   7.435   0.843  0.8585  0.7808 -0.5279
  160RES    C1944857   0.674   7.436   0.916  0.2208 -0.1319 -0.0683
  160RES    O2044858   0.590   7.344   0.857 -0.2348 -0.1229 -0.1800
  160RES    C2144859   0.457   7.327   0.900 -0.0138 -0.2578 -0.3379
  160RES    H2244860   0.889   7.614   0.938 -0.1825 -0.0035  0.9196
  160RES    H2344861   0.928   7.477   1.027  0.9198  1.3963  0.7728
  160RES    H2444862   0.839   7.332   0.832  0.9536  0.8225 -0.6353
  160RES    H2544863   0.692   7.403   1.018  0.0606  0.1848  0.0653
  160RES    H2644864   0.637   7.538   0.924  0.7785 -0.0082  1.0906
  160RES    H2744865   0.397   7.408   0.859 -1.1616 -0.7103  0.4514
  160RES    H2844866   0.452   7.311   1.007 -3.3742 -0.9018 -0.5638
  160RES    H2944867   0.416   7.235   0.858  0.6717 -0.0329 -1.5273
  160RES    O3044868   0.813   7.511   0.719 -0.5919  0.1403  0.1361
  160RES    C3144869   0.718   7.453   0.627  0.0435  0.1611 -0.7196
  160RES    C3244870   0.775   7.489   0.487  0.5809  0.6955 -0.5025
  160RES    C3344871   0.666   7.443   0.384  0.0713  0.2064 -0.2191
  160RES    O3444872   0.675   7.530   0.265 -0.3727 -0.4662  0.0193
  160RES    C3544873   0.593   7.493   0.152 -0.3069 -0.2695 -0.4965
  160RES    H3644874   0.714   7.344   0.631 -0.6985  0.2296  1.8859
  160RES    H3744875   0.619   7.496   0.636  0.9075  1.9980  0.1629
  160RES    H3844876   0.787   7.597   0.478 -1.1438  0.9649  0.2485
  160RES    H3944877   0.569   7.443   0.432 -0.0771 -2.3746 -0.4168
  160RES    H4044878   0.694   7.344   0.346  1.4845 -0.4995  2.5390
  160RES    H4144879   0.620   7.529   0.052 -0.6402  0.7165 -0.2312
  160RES    H4244880   0.488   7.515   0.171 -0.7891 -3.1768  0.4020
  160RES    H4344881   0.606   7.389   0.124  2.8042  0.1091 -0.6926
  160RES    O4444882   0.898   7.418   0.481  0.2015  0.1928 -0.3826
  160RES    C4544883   1.011   7.500   0.523  0.1034 -0.0227 -0.0283
  160RES    C4644884   1.085   7.553   0.399 -0.2112 -0.8090  0.7363
  160RES    C4744885   1.170   7.671   0.421  0.0427  0.6354 -0.7653
  160RES    O4844886   1.199   7.713   0.290  0.5856 -0.1932 -0.2230
  160RES    C4944887   1.236   0.032   0.284  0.7519  0.1712 -0.0345
  160RES    H5044888   1.070   7.433   0.585 -0.0349  0.2625  0.4153
  160RES    H5144889   0.975   7.586   0.581 -1.5563  0.0331 -1.0851
  160RES    H5244890   1.005   7.582   0.332  1.8102  0.2855 -1.2363
  160RES    H5344891   1.120   7.749   0.478 -0.0550 -0.2765  0.4181
  160RES    H5444892   1.257   7.635   0.476  0.0719 -0.6526 -1.6450
  160RES    H5544893   1.159   0.103   0.315  0.1614  0.3926 -1.9326
  160RES    H5644894   1.272   0.039   0.181 -1.7143  1.7528 -0.8208
  160RES    H5744895   1.321   0.054   0.349 -2.1288  2.5740  3.0815
  160RES    O5844896   1.174   7.448   0.350  0.1266 -0.0517  0.2357
  160RES    C5944897   1.120   7.348   0.269 -0.3298 -0.3355 -0.1447
  160RES    C6044898   1.228   7.249   0.222  0.0729  0.5354  0.2431
  160RES    C6144899   1.215   7.201   0.074  0.5513 -0.8995  0.3114
  160RES    O6244900   1.080   7.158   0.052 -0.0226  0.5082  0.2374
  160RES    C6344901   1.070   7.072   7.755 -0.4941 -0.1308  0.4964
  160RES    H6444902   1.088   7.398   0.177 -0.1066  0.3302  0.1327
  160RES    H6544903   1.035   7.294   0.309 -0.9954  0.1973 -0.8179
  160RES    H6644904   1.323   7.301   0.229  0.3780 -0.1311  1.1227
  160RES    H6744905   1.241   7.280   0.004  2.6805 -1.1511  0.7768
  160RES    H6844906   1.291   7.125   0.057  2.4134  0.9657  0.0624
  160RES    H6944907   1.111   7.128   7.671 -0.4285  0.6245  1.0277
  160RES    H7044908   0.972   7.038   7.723 -1.1451  0.3499  1.9365
  160RES    H7144909   1.134   6.985   7.765  2.2826  1.8536  0.7716
  160RES    O7244910   1.217   7.129   0.292 -0.1438  0.1988 -0.4617
  160RES    C7344911   1.266   7.135   0.428 -0.0668  0.0160  0.3806
  160RES    C7444912   1.219   7.000   0.501 -0.6589 -0.9900 -1.0936
  160RES    C7544913   1.172   7.019   0.646 -0.3934 -0.8653 -0.9212
  160RES    O7644914   1.028   7.016   0.657 -0.2572  0.1645  0.6719
  160RES    C7744915   0.977   7.140   0.609 -0.3290  0.1678 -0.0186
  160RES    H7844916   1.367   7.170   0.446 -0.0902 -0.1594  0.8396
  160RES    H7944917   1.203   7.215   0.468  1.8619  1.6248  0.2980
  160RES    H8044918   1.141   6.959   0.439 -0.7381  1.0180 -2.3609
  160RES    H8144919   1.218   7.105   0.696 -3.2952  1.1253 -1.5453
  160RES    H8244920   1.204   6.931   0.701 -0.0361  0.0339  0.3254
  160RES    H8344921   1.011   7.229   0.661  0.3164 -0.9328  1.4750
  160RES    H8444922   0.870   7.151   0.630 -0.9076  0.2755 -2.7979
  160RES    H8544923   0.994   7.151   0.502 -1.5901  0.0878 -0.2401
  160RES    O8644924   1.322   6.897   0.505  0.1945  0.2480  0.5293
  160RES    C8744925   1.362   6.843   0.381  0.4193 -0.7113  0.1338
  160RES    C8844926   1.253   6.747   0.324  0.3141  0.0761 -0.8291
  160RES    C8944927   1.240   6.768   0.177 -0.1157 -0.6001 -0.0754
  160RES    O9044928   1.140   6.679   0.132  0.2765 -0.0071  0.0266
  160RES    C9144929   1.062   6.705   0.013  0.0281  0.5511  0.2730
  160RES    H9244930   1.386   6.918   0.306  0.8049 -0.0845  0.8769
  160RES    H9344931   1.456   6.799   0.412  1.0008  0.4612  0.0704
  160RES    H9444932   1.151   6.759   0.362  0.8594 -2.0336  1.3924
  160RES    H9544933   1.189   6.864   0.165 -0.4222 -0.6543  0.7692
  160RES    H9644934   1.329   6.765   0.114 -1.7535 -0.9188 -2.4626
  160RES    H9744935   1.016   6.611   7.799  1.4281  0.4429 -1.5442
  160RES    H9844936   0.984   6.780   0.025  0.3654  1.2151 -1.5474
  160RES    H9944937   1.124   6.736   7.747  1.1872  1.7243  1.5610
  160RES   O10044938   1.293   6.609   0.336 -0.0083 -0.2740  0.2518
  160RES   C10144939   1.291   6.567   0.475  0.0393 -0.1251  0.4419
  160RES   C10244940   1.322   6.418   0.487  0.1196 -0.0167 -0.6883
  160RES   C10344941   1.252   6.351   0.604 -0.7450  0.0386  0.3774
  160RES   O10444942   1.288   6.210   0.597 -0.1506  0.2888 -0.8302
  160RES   C10544943   1.385   6.158   0.687  0.0105  0.0217  0.2433
  160RES   H10644944   1.197   6.594   0.522 -1.0187  2.7259 -3.0913
  160RES   H10744945   1.366   6.620   0.533  0.3734  0.4704 -0.5154
  160RES   H10844946   1.291   6.370   0.394  0.8656 -1.2262 -0.3191
  160RES   H10944947   1.144   6.358   0.597 -0.8629 -1.8427 -0.0464
  160RES   H11044948   1.292   6.393   0.697  0.9447 -3.7229  1.4676
  160RES   H11144949   1.401   6.050   0.689 -2.3198 -0.3475  3.9996
  160RES   H11244950   1.376   6.190   0.791 -1.3542 -0.1495  0.1962
  160RES   H11344951   1.482   6.200   0.662 -0.7284  3.6021  2.9865
  160RES   O11444952   1.462   6.406   0.501 -0.5317 -0.4381  0.4176
  160RES   C11544953   1.542   6.423   0.380  0.6469  0.2018 -0.4632
  160RES   C11644954   1.696   6.388   0.417 -0.3519  0.4967  1.0299
  160RES   C11744955   1.781   6.383   0.291  0.2340 -0.0659  0.1267
  160RES   O11844956   1.904   6.314   0.314 -0.8135  0.0509  0.3633
  160RES   C11944957   1.974   6.342   0.429 -0.1166 -0.5874 -0.8089
  160RES   H12044958   1.518   6.346   0.307  1.4678 -1.8791  1.3868
  160RES   H12144959   1.539   6.521   0.333 -1.1164  0.7849  0.8289
  160RES   H12244960   1.708   6.291   0.465  0.5751 -1.2060 -2.4951
  160RES   H12344961   1.740   6.336   0.201 -3.0934  2.5957  0.1480
  160RES   H12444962   1.803   6.485   0.259 -0.0868 -0.3997 -1.1967
  160RES   H12544963   1.994   6.448   0.450 -1.1900 -0.6968  0.8845
  160RES   H12644964   2.071   6.295   0.418 -0.4661 -1.6279  0.3623
  160RES   H12744965   1.938   6.287   0.516  0.0649 -0.3850 -0.6044
  160RES   O12844966   1.737   6.495   0.507 -0.4531 -0.0568  0.1256
  160RES   C12944967   1.742   6.468   0.645 -0.2398  0.6748 -0.2281
  160RES   C13044968   1.786   6.588   0.731  0.2842  0.6152 -0.0844
  160RES   C13144969   1.692   6.704   0.701  0.2445  0.0507 -0.7822
  160RES   O13244970   1.669   6.778   0.825  0.4830 -0.5445 -0.1568
  160RES   C13344971   1.609   6.910   0.809  0.4133  0.0093  0.2239
  160RES   H13444972   1.642   6.441   0.678  0.3221  0.8224  1.6272
  160RES   H13544973   1.812   6.389   0.671 -1.5121 -0.9221 -1.5569
  160RES   H13644974   1.790   6.557   0.835  0.2442  1.5927  0.2073
  160RES   H13744975   1.593   6.670   0.670 -0.9127  1.2199  1.4883
  160RES   H13844976   1.726   6.763   0.616 -0.9260  2.3898  0.3150
  160RES   H13944977   1.519   6.892   0.751  0.6231 -0.2350 -0.0294
  160RES   H14044978   1.581   6.955   0.904  2.5627 -2.6220  2.1758
  160RES   H14144979   1.669   6.975   0.745  0.9989 -2.1981 -1.5297
  160RES   O14244980   1.921   6.611   0.698 -0.2084 -0.7919 -0.1580
  160RES   C14344981   1.998   6.678   0.805  0.0005  0.1099  0.0385
  160RES   C14444982   2.127   6.748   0.749 -0.8083 -0.3108 -0.5540
  160RES   C14544983   2.229   6.765   0.861  0.3829  0.4473  0.2382
  160RES   O14644984   2.358   6.742   0.804 -0.1900  0.5579 -0.1221
  160RES   C14744985   2.459   6.759   0.891 -0.1971 -0.1583  0.5867
  160RES   H14844986   1.935   6.754   0.852 -0.5721  1.5589 -2.9234
  160RES   H14944987   2.019   6.600   0.878 -1.7288 -0.6988 -0.2978
  160RES   H15044988   2.175   6.681   0.678  0.8706  0.4786 -0.1851
  160RES   H15144989   2.204   6.721   0.958  0.4499 -0.3241 -0.0926
  160RES   H15244990   2.229   6.873   0.877 -1.2633  0.2315  1.9233
  160RES   H15344991   2.553   6.738   0.840 -0.2946 -1.3293  0.8878
  160RES   H15444992   2.446   6.691   0.975  0.8503 -1.0545  0.0365
  160RES   H15544993   2.462   6.862   0.928 -0.3283 -0.1558  0.5888
  160RES   O15644994   2.104   6.875   0.684  0.2903  0.5349  0.0829
  160RES   C15744995   2.058   6.869   0.552  0.4845  0.5990  0.5957
  160RES   C15844996   1.955   6.971   0.513 -0.7072  0.3694 -0.6071
  160RES   C15944997   1.905   6.941   0.373  0.2051  0.0340  0.0121
  160RES   O16044998   1.815   7.035   0.329 -0.5743  0.4747  0.1190
  160RES   C16144999   1.685   7.026   0.366 -0.7373 -0.3238  0.2361
  160RES   H16245000   2.147   6.891   0.494  2.8964  3.6092  5.1144
  160RES   H16345001   2.014   6.769   0.542 -1.5847  1.3888  1.4865
  160RES   H16445002   1.871   6.980   0.583 -1.9982  2.1059 -2.3151
  160RES   H16545003   1.985   6.939   0.299 -0.3988  1.5309 -0.6962
  160RES   H16645004   1.858   6.843   0.372 -0.4663  0.3602 -0.9064
  160RES   H16745005   1.663   6.962   0.452  0.1239 -0.6690  0.2026
  160RES   H16845006   1.632   7.001   0.274 -1.9561  0.2254  0.7694
  160RES   H16945007   1.652   7.124   0.400  0.7038  0.5412 -0.8595
  160RES   O17045008   2.023   7.094   0.504 -0.5147 -0.0698  0.1061
  160RES   C17145009   2.065   7.159   0.626 -0.0649 -0.7573 -0.2003
  160RES   C17245010   2.065   7.317   0.600 -0.2881  0.2739 -0.4703
  160RES   C17345011   2.137   7.389   0.716 -0.0063  0.3589 -0.5230
  160RES   O17445012   2.082   7.346   0.838  0.2137  0.0803  0.5877
  160RES   C17545013   2.130   7.421   0.948 -0.1063  0.0517  0.1354
  160RES   H17645014   2.169   7.137   0.651  0.1012 -0.4666 -0.6238
  160RES   H17745015   2.006   7.140   0.716 -0.3448 -1.0206 -0.4408
  160RES   H17845016   2.107   7.342   0.502 -1.0574  2.1469 -0.3484
  160RES   H17945017   2.243   7.368   0.709  0.4141  1.0022  2.9700
  160RES   H18045018   2.115   7.495   0.700 -0.0914  0.1239 -2.0689
  160RES   H18145019   2.096   7.374   1.040  0.5971  2.1886  1.5140
  160RES   H18245020   2.085   7.519   0.959  3.0541  1.5144  0.7042
  160RES   H18345021   2.239   7.426   0.953 -0.2944  1.8034  3.0334
  160RES   O18445022   1.925   7.360   0.604 -0.3458  0.3706 -0.1932
  160RES   C18545023   1.853   7.360   0.480  0.3011  0.3285 -0.2240
  160RES   C18645024   1.784   7.491   0.441 -0.3354  0.8486  0.3840
  160RES   C18745025   1.651   7.475   0.365  0.2934 -1.0686 -0.0571
  160RES   O18845026   1.609   7.605   0.312  0.4429  0.3924 -0.1285
  160RES   C18945027   1.484   7.578   0.249 -0.0781  0.2316  0.9212
  160RES   H19045028   1.775   7.287   0.500  0.5680 -0.5063 -2.1512
  160RES   H19145029   1.907   7.317   0.396 -1.2428  0.7208 -1.4622
  160RES   H19245030   1.775   7.558   0.526 -2.3089 -0.1153  0.9659
  160RES   H19345031   1.569   7.440   0.428 -0.1240 -0.6449 -0.3587
  160RES   H19445032   1.651   7.404   0.281 -0.4352 -0.5510 -0.5022
  160RES   H19545033   1.405   7.578   0.324 -0.2493 -1.4563  0.7511
  160RES   H19645034   1.468   7.670   0.192  0.2465 -0.3972 -0.2076
  160RES   H19745035   1.489   7.498   0.176 -1.9203  0.3975  0.5810
  160RES   O19845036   1.868   7.555   0.343  0.5474 -0.1280 -0.8278
  160RES   C19945037   1.991   7.619   0.388 -0.0663  0.1965 -0.6574
  160RES   C20045038   1.974   7.745   0.474 -0.0298  0.5901 -0.1356
  160RES   C20145039   1.894   0.041   0.397 -1.0821  0.1641  0.5252
  160RES   O20245040   1.824   0.134   0.483  0.0516 -0.6227  0.1257
  160RES   C20345041   1.706   0.077   0.548  0.1567 -0.0329  0.8729
  160RES   H20445042   2.056   7.642   0.305 -2.7179  2.3281 -2.2141
  160RES   H20545043   2.053   7.547   0.442 -0.7070 -0.3486 -0.6317
  160RES   H20645044   1.913   7.720   0.561 -0.6016 -1.7191 -1.1630
  160RES   H20745045   1.961   0.087   0.325  0.6773 -1.5747  1.0022
  160RES   H20845046   1.808   7.816   0.345  0.0565 -1.7066  0.1027
  160RES   H20945047   1.733   7.815   0.619 -0.2083  0.1381  1.2060
  160RES   H21045048   1.626   0.035   0.487  0.4181 -0.4585  0.8242
  160RES   H21145049   1.664   0.154   0.613  1.6176  3.1725 -1.8623
  160RES   O21245050   2.098   7.780   0.518  0.1270 -0.2207  0.3956
  160RES   C21345051   2.105   0.043   0.636 -0.2613  0.8775 -0.2213
  160RES   C21445052   2.243   0.065   0.690 -0.1331  0.2461  0.0446
  160RES   C21545053   2.251   0.093   0.840  0.3164 -0.0844  0.2223
  160RES   O21645054   2.172   0.004   0.915 -0.2989  0.4835 -0.2648
  160RES   C21745055   2.146   0.049   1.043 -0.7310 -0.2988 -0.9670
  160RES   H21845056   2.047   7.809   0.714 -1.3958  1.0497 -0.9350
  160RES   H21945057   2.059   0.140   0.614  1.6015  2.1953  1.5145
  160RES   H22045058   2.288   7.784   0.671  0.3354  0.6941 -1.2816
  160RES   H22145059   2.350   0.095   0.885 -0.3373 -1.6314  1.7814
  160RES   H22245060   2.219   0.197   0.851  0.3464 -0.1672  1.1190
  160RES   H22345061   2.084   0.138   1.054 -0.7822 -0.6135  1.7418
  160RES   H22445062   2.239   0.067   1.096 -0.2713  3.1335 -2.8230
  160RES   H22545063   2.095   7.781   1.089  1.2473 -0.6549  0.6289
  160RES   O22645064   2.302   0.176   0.631 -0.5615  0.6155  0.4088
  160RES   C22745065   2.378   0.139   0.516 -0.3208  0.1790 -0.8737
  160RES   C22845066   2.448   0.275   0.467 -0.1651 -0.2871  0.1643
  160RES   C22945067   2.565   0.261   0.366 -0.8365  0.0880 -0.2512
  160RES   O23045068   2.523   0.182   0.254 -0.4622  0.4412 -0.6184
  160RES   C23145069   2.615   0.151   0.148  0.5203 -0.2143 -0.2379
  160RES   H23245070   2.317   0.094   0.437  0.6542 -1.0235 -0.9596
  160RES   H23345071   2.459   0.067   0.529  1.1429  1.6366 -1.6052
  160RES   H23445072   2.488   0.334   0.550  2.3325  0.8608 -1.7487
  160RES   H23545073   2.653   0.210   0.407 -0.3535  0.2367 -1.0775
  160RES   H23645074   2.600   0.359   0.334 -0.0810 -0.0449  0.1347
  160RES   H23745075   2.692   0.223   0.121  1.9731 -0.7330  2.3448
  160RES   H23845076   2.554   0.119   0.064  0.2358  0.6334 -0.3615
  160RES   H23945077   2.660   0.056   0.175 -0.5748 -0.7946 -0.4422
  160RES   O24045078   2.350   0.349   0.395  0.1321 -0.3145 -0.9800
  160RES   C24145079   2.325   0.475   0.450  0.2324 -0.0893 -0.5891
  160RES   C24245080   2.252   0.568   0.354  0.1168 -0.1624 -0.3362
  160RES   C24345081   2.199   0.678   0.441 -0.1065  0.0877 -0.4737
  160RES   O24445082   2.114   0.759   0.370 -0.3464  0.3138 -0.1025
  160RES   C24545083   2.060   0.865   0.436 -0.9069 -0.2374 -0.1330
  160RES   H24645084   2.417   0.530   0.473 -0.3481  0.5050  0.3594
  160RES   H24745085   2.268   0.451   0.539  4.0161 -4.3710  0.8986
  160RES   H24845086   2.166   0.523   0.305 -2.1882  1.5746  1.9827
  160RES   H24945087   2.153   0.630   0.527  1.0691 -0.8171 -0.3403
  160RES   H25045088   2.268   0.736   0.503  2.1038 -1.5611 -1.3206
  160RES   H25145089   2.023   0.832   0.533  2.5343 -0.7112  1.0629
  160RES   H25245090   1.988   0.920   0.376 -0.0041  2.0892  0.8672
  160RES   H25345091   2.134   0.940   0.462 -0.7828 -0.4665  0.1754
  160RES   O25445092   2.343   0.614   0.249 -0.1015  0.0743  0.1921
  160RES   C25545093   2.381   0.511   0.152  0.0644  0.5121  1.1981
  160RES   C25645094   2.395   0.568   0.009 -1.4215  0.1407 -0.5820
  160RES   C25745095   2.493   0.478   7.747 -0.4789 -0.2006  0.5330
  160RES   O25845096   2.497   0.524   7.615 -0.2292  0.1153  0.2488
  160RES   C25945097   2.583   0.458   7.530 -0.5365 -0.3879  0.5927
  160RES   H26045098   2.474   0.458   0.173 -0.5820 -1.1531 -0.0752
  160RES   H26145099   2.308   0.430   0.153 -0.9156  1.3330 -0.5683
  160RES   H26245100   2.436   0.669   0.012  1.7843 -0.9686 -3.4059
  160RES   H26345101   2.587   0.480   7.802 -0.1590 -2.6512  0.1337
  160RES   H26445102   2.455   0.376   7.746  0.7486 -0.6649 -1.3743
  160RES   H26545103   2.675   0.514   7.513 -0.2215 -0.8198  0.8716
  160RES   H26645104   2.546   0.440   7.429  1.4854 -1.5433  0.0213
  160RES   H26745105   2.615   0.358   7.560 -0.0980 -0.4177  0.0338
  160RES   O26845106   2.275   0.558   7.757 -0.0682  0.1630 -0.0518
  160RES   C26945107   2.175   0.657   7.782  0.3469 -0.4082 -0.0001
  160RES   C27045108   2.052   0.641   7.693  0.4590 -0.5088  0.9503
  160RES   C27145109   1.922   0.687   7.753 -0.4829  0.4034 -0.6079
  160RES   O27245110   1.821   0.654   7.666 -0.9452  0.6312 -0.3522
  160RES   C27345111   1.689   0.663   7.714 -0.9104  0.0926  0.4528
  160RES   H27445112   2.216   0.758   7.795 -0.7035  0.0069  0.1117
  160RES   H27545113   2.143   0.638   0.067 -0.4425 -1.4977 -0.4464
  160RES   H27645114   2.061   0.692   7.597 -1.5385 -0.6148  0.6747
  160RES   H27745115   1.929   0.794   7.774  1.7948  0.1302  0.1217
  160RES   H27845116   1.901   0.631   0.027 -2.4360 -1.3975 -2.1158
  160RES   H27945117   1.629   0.655   7.623 -0.2943  1.2451 -0.0684
  160RES   H28045118   1.661   0.749   7.777 -1.3815 -0.1884  0.6310
  160RES   H28145119   1.667   0.573   7.772  0.7354 -2.2473 -2.4463
  160RES   H28245120   2.035   0.538   7.660  0.1722  0.2819 -1.4645
  161RES     O145121   0.789   4.511   1.344  0.2546  0.4296  0.1849
  161RES     C245122   0.839   4.387   1.391  0.1245  0.2752 -0.1614
  161RES     C345123   0.771   4.272   1.329  0.7420  0.0402  0.2639
  161RES     C445124   0.864   4.170   1.273 -0.0813  0.0403  0.0508
  161RES     O545125   0.916   4.214   1.150  0.2573  0.2123  0.0185
  161RES     C645126   1.027   4.138   1.106 -0.3225  0.3507  0.1133
  161RES     H745127   0.946   4.388   1.369  0.3416 -0.1088  0.8671
  161RES     H845128   0.853   4.385   1.499  0.0471  1.4108 -0.1292
  161RES     H945129   0.721   4.310   1.240  1.1673 -0.3436 -0.1458
  161RES    H1045130   0.801   4.082   1.259 -1.2160  0.9416 -0.6253
  161RES    H1145131   0.943   4.141   1.342 -0.4259  0.1701  0.5097
  161RES    H1245132   1.074   4.187   1.021 -0.0546  0.7809  0.5062
  161RES    H1345133   1.102   4.129   1.184  1.1411  1.0417 -1.1807
  161RES    H1445134   1.000   4.037   1.075  0.3850  0.1900  0.0055
  161RES    H1545135   0.845   4.524   1.269  2.7194 -0.7323  1.7655
  161RES    O1645136   0.669   4.214   1.417  0.5032 -0.0413 -0.5044
  161RES    C1745137   0.535   4.267   1.415 -1.2890  0.3975  0.3727
  161RES    C1845138   0.516   4.377   1.525 -0.1607  0.1365 -0.0673
  161RES    C1945139   0.393   4.466   1.492 -0.0302  0.0884  0.7277
  161RES    O2045140   0.285   4.399   1.430 -0.1511 -0.4815 -0.0704
  161RES    C2145141   0.162   4.463   1.440 -0.6013  0.1844 -0.6361
  161RES    H2245142   0.470   4.182   1.433 -0.5338 -0.2045  0.2644
  161RES    H2345143   0.504   4.302   1.316 -0.0335  1.3329  0.2995
  161RES    H2445144   0.604   4.441   1.526 -0.3714  0.4091  1.6725
  161RES    H2545145   0.374   4.493   1.596 -0.4454 -0.3959  0.7800
  161RES    H2645146   0.427   4.559   1.448 -0.3237  0.2779  0.9042
  161RES    H2745147   0.138   4.477   1.545  0.8571  0.7416 -0.3653
  161RES    H2845148   0.087   4.412   1.379  0.1374 -2.0291  0.2296
  161RES    H2945149   0.169   4.565   1.404  0.3056 -0.5573 -2.6388
  161RES    O3045150   0.499   4.322   1.656  0.3927  0.0317  0.2743
  161RES    C3145151   0.610   4.251   1.704  0.0136 -0.8506  0.1429
  161RES    C3245152   0.625   4.249   1.857 -0.0005  0.2984  0.1493
  161RES    C3345153   0.742   4.172   1.912 -0.3311 -0.4350 -0.0557
  161RES    O3445154   0.712   4.031   1.900  0.1380  0.3444 -0.3750
  161RES    C3545155   0.821   3.951   1.941 -0.0506  0.1999 -0.3258
  161RES    H3645156   0.593   4.154   1.658 -0.4592  0.0151 -1.5504
  161RES    H3745157   0.697   4.305   1.666 -0.2309  1.8500  3.1683
  161RES    H3845158   0.646   4.352   1.888 -0.7190  1.2379 -2.3468
  161RES    H3945159   0.768   4.186   2.017  0.4532  0.2490 -0.3396
  161RES    H4045160   0.833   4.187   1.854  1.4351  2.3250  3.2498
  161RES    H4145161   0.919   3.999   1.936  0.6642 -1.3132 -1.4020
  161RES    H4245162   0.823   3.860   1.880  1.1415  1.6629 -2.5567
  161RES    H4345163   0.810   3.917   2.044 -0.2985 -0.1142 -0.4560
  161RES    O4445164   0.497   4.209   1.907 -0.6924 -0.5444  0.2593
  161RES    C4545165   0.479   4.231   2.044  0.6733  0.3105  0.0282
  161RES    C4645166   0.333   4.198   2.077  0.2334 -0.4792 -0.0077
  161RES    C4745167   0.229   4.283   1.997 -0.7224  0.0662 -1.1357
  161RES    O4845168   0.120   4.310   2.089  0.4518 -0.7099 -0.1214
  161RES    C4945169   0.015   4.378   2.016 -0.6121  1.0740 -0.2580
  161RES    H5045170   0.519   4.327   2.077  0.1303  0.3071  0.7187
  161RES    H5145171   0.547   4.168   2.101  0.9108  0.7645  0.2467
  161RES    H5245172   0.318   4.214   2.184  3.2428 -0.7983  0.5005
  161RES    H5345173   0.282   4.374   1.968 -1.0651  0.8943  0.7852
  161RES    H5445174   0.197   4.222   1.913  0.1935 -2.2421  0.1403
  161RES    H5545175   0.046   4.475   1.975  3.6974 -0.4971 -1.0529
  161RES    H5645176   7.740   4.385   2.072 -0.7491  0.2150 -0.3697
  161RES    H5745177   7.808   4.329   1.922 -1.4919 -1.3869  1.2193
  161RES    O5845178   0.317   4.060   2.052 -0.1915  0.8577  0.5533
  161RES    C5945179   0.206   3.993   2.112 -0.5092 -0.0479 -0.3088
  161RES    C6045180   0.256   3.852   2.152  0.8297 -0.3097 -0.0228
  161RES    C6145181   0.147   3.749   2.184  0.0748  0.6449  0.1035
  161RES    O6245182   0.114   3.697   2.055 -0.0623  0.1036  0.4973
  161RES    C6345183   7.801   3.636   2.057  0.2096 -0.4031  0.2267
  161RES    H6445184   0.128   3.976   2.038  0.2023 -1.4675 -0.7519
  161RES    H6545185   0.171   4.049   2.199  3.2620  0.5929  0.8796
  161RES    H6645186   0.315   3.806   2.072 -2.2101 -0.6409 -2.1970
  161RES    H6745187   0.185   3.670   2.248 -0.9689 -0.6812 -0.8869
  161RES    H6845188   0.064   3.793   2.238 -0.8651  0.7757 -1.4004
  161RES    H6945189   7.788   3.578   1.965 -1.3843 -0.2585  0.3419
  161RES    H7045190   7.726   3.715   2.058 -0.2559 -0.8344 -0.5531
  161RES    H7145191   7.785   3.559   2.132 -0.5767 -2.4461 -1.9656
  161RES    O7245192   0.326   3.854   2.277  0.2999 -0.2423 -0.1953
  161RES    C7345193   0.461   3.906   2.270 -0.7673  0.5079  1.0772
  161RES    C7445194   0.536   3.881   2.393  0.5533 -0.4754 -0.4754
  161RES    C7545195   0.680   3.920   2.384  0.9046 -0.2206  0.7415
  161RES    O7645196   0.740   3.932   2.512 -0.3300  0.1840  0.3389
  161RES    C7745197   0.873   3.972   2.503  0.1069  0.1229 -0.0852
  161RES    H7845198   0.519   3.853   2.195 -0.6885 -1.0743  2.2239
  161RES    H7945199   0.450   4.009   2.236  1.5461  0.5127  0.2141
  161RES    H8045200   0.497   3.947   2.471 -0.7757 -2.1309  0.2995
  161RES    H8145201   0.680   4.019   2.339  0.1470 -0.8568 -0.6949
  161RES    H8245202   0.733   3.854   2.315 -1.0962  0.1708 -1.2281
  161RES    H8345203   0.886   4.066   2.449  0.6334 -0.0907 -0.3332
  161RES    H8445204   0.937   3.893   2.463  0.1526  0.6937 -1.1340
  161RES    H8545205   0.925   3.997   2.596  0.6073 -0.8487 -0.0972
  161RES    O8645206   0.524   3.740   2.420 -0.0447 -0.1134  0.9297
  161RES    C8745207   0.509   3.697   2.557  0.3166  0.5169 -0.0999
  161RES    C8845208   0.375   3.721   2.629  0.3982 -0.2612 -0.0682
  161RES    C8945209   0.377   3.658   2.774  0.2858  0.1836 -0.2293
  161RES    O9045210   0.245   3.654   2.824 -0.5892  0.8752 -0.4310
  161RES    C9145211   0.238   3.587   2.954  0.4692 -0.3896 -0.7868
  161RES    H9245212   0.527   3.590   2.554 -0.2567  0.3365  1.9738
  161RES    H9345213   0.594   3.724   2.620  1.0852 -1.8259 -0.1079
  161RES    H9445214   0.283   3.689   2.579 -0.5890  0.4347  1.2452
  161RES    H9545215   0.413   3.556   2.770  0.4637  0.1886  1.0082
  161RES    H9645216   0.440   3.715   2.842  1.7657 -1.4783 -0.1718
  161RES    H9745217   0.306   3.633   3.026 -1.2532  0.7827  0.1376
  161RES    H9845218   0.137   3.588   2.996  0.3074 -0.5779 -1.1730
  161RES    H9945219   0.266   3.484   2.933 -0.5938 -0.1057 -3.9257
  161RES   O10045220   0.381   3.857   2.660  0.0150  0.0324 -0.0272
  161RES   C10145221   0.263   3.927   2.651  0.3144  0.4139  0.3521
  161RES   C10245222   0.279   4.053   2.739 -0.0736  1.0518 -0.2578
  161RES   C10345223   0.143   4.107   2.769 -0.2729 -0.4335  0.5556
  161RES   O10445224   0.151   4.213   2.864  0.6844 -0.3998  0.0448
  161RES   C10545225   0.017   4.258   2.882 -0.6295 -0.1974 -0.1980
  161RES   H10645226   0.190   3.871   2.709  1.0284  1.8508  2.6852
  161RES   H10745227   0.224   3.942   2.550 -0.1530  1.6501  0.6986
  161RES   H10845228   0.325   4.023   2.833  0.1907 -2.9985 -1.5991
  161RES   H10945229   0.081   4.030   2.815 -0.0818 -1.3986 -0.7807
  161RES   H11045230   0.100   4.140   2.674  2.5738 -0.1324 -0.6603
  161RES   H11145231   7.788   4.276   2.784  0.9342 -0.5401 -1.0111
  161RES   H11245232   0.022   4.352   2.938 -1.4867 -1.1342  1.4919
  161RES   H11345233   7.769   4.180   2.921 -1.0751  0.6444  0.7642
  161RES   O11445234   0.358   4.151   2.665 -0.0752 -0.0909  0.4629
  161RES   C11545235   0.499   4.146   2.694 -0.0775  0.4654 -0.3647
  161RES   C11645236   0.540   4.212   2.826 -0.3364 -0.1491 -0.2736
  161RES   C11745237   0.675   4.163   2.886 -0.4684 -0.1028  0.5783
  161RES   O11845238   0.665   4.171   3.030 -0.6060 -0.4008 -0.4183
  161RES   C11945239   0.659   4.302   3.081  0.1846  0.2359 -0.2770
  161RES   H12045240   0.536   4.044   2.686  0.3851  0.5829  0.2913
  161RES   H12145241   0.553   4.201   2.617  3.6729 -0.1539  1.7236
  161RES   H12245242   0.459   4.182   2.892 -1.7427 -1.1592 -2.4085
  161RES   H12345243   0.701   4.061   2.859 -0.3641  0.5114 -1.8433
  161RES   H12445244   0.761   4.227   2.864  0.7292 -0.6859  3.3752
  161RES   H12545245   0.727   4.373   3.034  0.8482 -1.9549 -2.7678
  161RES   H12645246   0.685   4.291   3.186 -0.4513  0.4892 -0.0896
  161RES   H12745247   0.555   4.332   3.077 -0.3859 -1.7873 -1.1647
  161RES   O12845248   0.557   4.355   2.803 -0.0854  0.0318 -0.3904
  161RES   C12945249   0.431   4.424   2.790 -0.5303 -0.0533  0.4017
  161RES   C13045250   0.463   4.577   2.776  0.0738 -0.3908  0.1214
  161RES   C13145251   0.518   4.643   2.907  0.7607  0.0127  0.1286
  161RES   O13245252   0.577   4.775   2.887  0.3147  0.9681  0.1456
  161RES   C13345253   0.625   4.835   3.011  0.0081 -0.7401 -0.6192
  161RES   H13445254   0.386   4.392   2.696  1.0317  0.7641 -0.6421
  161RES   H13545255   0.346   4.392   2.849  0.4044 -0.2834  1.6497
  161RES   H13645256   0.531   4.596   2.693  3.8903 -1.4564  2.8363
  161RES   H13745257   0.595   4.582   2.955  2.7260  1.8026 -0.6223
  161RES   H13845258   0.437   4.647   2.979  2.6327 -0.7345  2.3058
  161RES   H13945259   0.664   4.936   3.001  0.1082 -1.0066 -3.1008
  161RES   H14045260   0.542   4.840   3.083 -0.3216  2.8410 -1.1328
  161RES   H14145261   0.703   4.776   3.059  1.0593 -0.0295 -1.4316
  161RES   O14245262   0.338   4.639   2.741 -0.0545 -0.3584 -0.1631
  161RES   C14345263   0.334   4.766   2.678 -0.3305  0.2277  0.2077
  161RES   C14445264   0.377   4.754   2.530 -0.4236  0.0219  0.1681
  161RES   C14545265   0.305   4.636   2.451 -0.4584 -0.2406  0.0038
  161RES   O14645266   0.281   4.689   2.322  0.3242 -0.2422 -0.1240
  161RES   C14745267   0.232   4.596   2.234 -0.1908 -0.0344 -0.3328
  161RES   H14845268   0.232   4.806   2.680 -1.3105 -2.2125  2.3962
  161RES   H14945269   0.389   4.845   2.730  0.6236 -0.1847 -0.1625
  161RES   H15045270   0.348   4.846   2.478  0.9463  0.8143  0.7851
  161RES   H15145271   0.212   4.600   2.495 -0.6698  0.2613 -0.0212
  161RES   H15245272   0.369   4.548   2.449 -2.8244 -1.9654 -0.3884
  161RES   H15345273   0.208   4.640   2.137 -1.4329  1.7693  0.7715
  161RES   H15445274   0.141   4.559   2.282  0.6624 -0.8351  0.7055
  161RES   H15545275   0.305   4.515   2.230  0.5901  0.6549 -0.0437
  161RES   O15645276   0.517   4.732   2.493  0.0094 -0.3769  0.4130
  161RES   C15745277   0.610   4.839   2.533  0.3392 -0.4080  0.1357
  161RES   C15845278   0.722   4.813   2.448  0.1022  0.2479  0.2595
  161RES   C15945279   0.841   4.895   2.504  1.3078 -0.3093 -0.0304
  161RES   O16045280   0.961   4.868   2.435 -0.1838 -0.5588 -0.0459
  161RES   C16145281   1.025   4.747   2.469  0.2729 -0.4110  0.5181
  161RES   H16245282   0.570   4.939   2.518 -0.7451 -1.0605 -1.5231
  161RES   H16345283   0.632   4.832   2.639 -4.0992  0.7979  1.2296
  161RES   H16445284   0.742   4.706   2.452 -1.3412 -0.0466 -0.4784
  161RES   H16545285   0.828   5.002   2.488 -0.4130 -0.5939 -0.5892
  161RES   H16645286   0.856   4.873   2.610 -2.2440 -1.9394  0.1823
  161RES   H16745287   1.116   4.735   2.409  0.0064 -2.4168  0.5074
  161RES   H16845288   0.961   4.666   2.436  1.3516 -0.7386 -0.8471
  161RES   H16945289   1.050   4.743   2.575 -0.0736  0.4090  0.6330
  161RES   O17045290   0.696   4.858   2.315  0.2409 -0.0166 -0.7013
  161RES   C17145291   0.672   4.754   2.222  0.3667 -0.4440  0.0397
  161RES   C17245292   0.580   4.812   2.110  0.0953 -0.3035 -0.5984
  161RES   C17345293   0.524   4.696   2.019 -0.6207  0.2339  0.3595
  161RES   O17445294   0.431   4.758   1.934  0.5738  0.1300  0.2951
  161RES   C17545295   0.359   4.657   1.868 -0.7491 -0.1443  0.5116
  161RES   H17645296   0.615   4.670   2.261 -3.2837  1.1162 -1.6210
  161RES   H17745297   0.762   4.714   2.176  0.6294 -0.5896  0.6777
  161RES   H17845298   0.495   4.850   2.167 -0.2217 -0.6774 -0.8108
  161RES   H17945299   0.607   4.645   1.970 -0.8078  1.0131 -0.7781
  161RES   H18045300   0.474   4.624   2.084  0.2499 -0.0604  0.7080
  161RES   H18145301   0.293   4.697   1.791 -0.8527 -1.9698 -0.3802
  161RES   H18245302   0.301   4.595   1.935 -1.0834 -0.2128  0.1631
  161RES   H18345303   0.420   4.582   1.817 -1.3800  1.1525 -2.2702
  161RES   O18445304   0.659   4.901   2.033  0.0962  0.4381 -0.0598
  161RES   C18545305   0.614   5.033   2.057 -0.1113  0.2211  0.0183
  161RES   C18645306   0.655   5.133   1.951 -0.1674  0.8644  0.0568
  161RES   C18745307   0.667   5.276   2.001 -0.0111 -0.2183  0.0869
  161RES   O18845308   0.714   5.356   1.897  0.0120  0.0057 -0.3698
  161RES   C18945309   0.680   5.489   1.916 -0.5113 -0.2062 -0.6415
  161RES   H19045310   0.657   5.064   2.152  1.5079 -1.7418 -0.0351
  161RES   H19145311   0.505   5.036   2.065 -0.1543 -1.2629  0.2505
  161RES   H19245312   0.754   5.094   1.929 -0.2063  0.0590  1.2857
  161RES   H19345313   0.747   5.282   2.076  0.6238 -0.5677 -0.5526
  161RES   H19445314   0.575   5.309   2.048  0.1556 -0.7122  0.7798
  161RES   H19545315   0.700   5.549   1.827 -2.1775 -1.1528 -1.6785
  161RES   H19645316   0.574   5.491   1.942 -0.1456  0.8652  0.8354
  161RES   H19745317   0.743   5.519   1.999 -1.3288 -2.2329  0.7409
  161RES   O19845318   0.558   5.133   1.846 -0.0711 -0.1052 -0.8455
  161RES   C19945319   0.585   5.031   1.759 -0.4369 -0.0408 -1.3768
  161RES   C20045320   0.501   5.040   1.627 -0.3340 -0.3265  0.4572
  161RES   C20145321   0.356   4.998   1.643 -0.1569  0.5075  0.4518
  161RES   O20245322   0.277   5.031   1.536  0.7885 -0.6727  0.1182
  161RES   C20345323   0.229   5.169   1.531 -0.2103  0.5037  0.2476
  161RES   H20445324   0.572   4.933   1.805 -0.3033  0.1655 -0.8923
  161RES   H20545325   0.690   5.036   1.730 -0.1791 -4.0746 -1.4850
  161RES   H20645326   0.499   5.145   1.598 -1.0380 -0.3451  0.4146
  161RES   H20745327   0.356   4.889   1.635 -0.4005  0.5097  0.4289
  161RES   H20845328   0.303   5.025   1.734 -0.4553 -1.3862  0.8784
  161RES   H20945329   0.216   5.202   1.428 -1.3437  1.5898  0.7280
  161RES   H21045330   0.300   5.243   1.568  1.5270 -1.9543  1.9590
  161RES   H21145331   0.138   5.186   1.589 -0.7085  0.3771 -0.4892
  161RES   O21245332   0.569   4.961   1.538 -0.1615 -0.1618 -0.1747
  161RES   C21345333   0.604   5.022   1.414  0.6027 -0.3783 -0.2073
  161RES   C21445334   0.683   4.927   1.317  0.4258 -0.5322  0.8285
  161RES   C21545335   0.807   4.994   1.248  0.0706 -0.8190 -0.5566
  161RES   O21645336   0.909   4.903   1.198  0.3020 -0.0666 -1.0198
  161RES   C21745337   0.863   4.800   1.110  0.2696  0.1840 -0.9858
  161RES   H21845338   0.656   5.116   1.433  0.5086 -0.8606  2.6745
  161RES   H21945339   0.519   5.052   1.353  0.3154  2.9542  1.7170
  161RES   H22045340   0.723   4.841   1.371  2.2532  0.0056  0.3557
  161RES   H22145341   0.775   5.059   1.166 -1.4878  2.3905  2.4517
  161RES   H22245342   0.858   5.062   1.317  1.6621 -2.4623 -0.0811
  161RES   H22345343   0.794   4.733   1.161  0.3709  0.9470  0.1568
  161RES   H22445344   0.949   4.757   1.058  0.2404  1.4845 -2.1343
  161RES   H22545345   0.801   4.827   1.025 -1.1960  1.6055  0.4998
  161RES   O22645346   0.602   4.888   1.208  0.1378  0.1858 -0.0515
  161RES   C22745347   0.495   4.796   1.226 -0.4974  0.3177  0.2828
  161RES   C22845348   0.474   4.716   1.102  0.4856  0.7559  0.6781
  161RES   C22945349   0.358   4.618   1.106  0.8892  0.6985  0.1711
  161RES   O23045350   0.392   4.503   1.024  0.7854  0.2826  0.9520
  161RES   C23145351   0.276   4.430   1.003 -0.5927  0.3729 -0.0599
  161RES   H23245352   0.407   4.850   1.261 -0.4578  0.8805 -0.4974
  161RES   H23345353   0.511   4.726   1.309  1.1244 -0.7271 -0.8614
  161RES   H23445354   0.571   4.669   1.085 -0.5245 -1.0054 -0.3981
  161RES   H23545355   0.271   4.674   1.070 -0.9235 -0.3433  2.7483
  161RES   H23645356   0.346   4.593   1.211  2.6955  1.9015  0.6683
  161RES   H23745357   0.213   4.429   1.092  2.2364  0.0211  2.0146
  161RES   H23845358   0.314   4.329   0.985 -1.9697 -0.5116  1.8863
  161RES   H23945359   0.225   4.469   0.915 -2.0845 -1.3149  0.0305
  161RES   O24045360   0.462   4.814   0.991 -0.2147 -0.9108 -0.3724
  161RES   C24145361   0.479   4.755   0.863 -0.0699  0.3931 -0.1642
  161RES   C24245362   0.523   4.845   0.752  0.1523  0.3736  0.5722
  161RES   C24345363   0.441   4.973   0.744  0.4337 -0.3601 -0.1840
  161RES   O24445364   0.454   5.045   0.616  0.4762  0.0388  0.5363
  161RES   C24545365   0.370   5.005   0.514  0.1402 -0.0717 -0.1292
  161RES   H24645366   0.383   4.707   0.844  0.2564 -0.7364  1.0253
  161RES   H24745367   0.546   4.669   0.866  1.6925  1.7306 -0.3571
  161RES   H24845368   0.510   4.796   0.656  0.2707 -1.7397  1.5965
  161RES   H24945369   0.339   4.938   0.762  0.5911 -1.2512 -0.9889
  161RES   H25045370   0.466   5.048   0.819  1.4861 -2.3660  1.5329
  161RES   H25145371   0.401   4.903   0.488  0.8920 -0.0504  0.6454
  161RES   H25245372   0.382   5.075   0.432  1.0446  1.1153  0.9996
  161RES   H25345373   0.271   5.005   0.560  0.6044 -4.1526  1.1203
  161RES   O25445374   0.661   4.877   0.781 -0.3910  0.1324  0.0601
  161RES   C25545375   0.742   4.898   0.670 -0.6455 -1.1889 -0.1277
  161RES   C25645376   0.889   4.904   0.711  0.4530  0.6287 -0.9322
  161RES   C25745377   0.975   4.852   0.598  0.2304  0.0335  0.3346
  161RES   O25845378   0.949   4.709   0.579 -0.0402 -0.3551 -0.0614
  161RES   C25945379   1.015   4.649   0.473  0.7469 -0.4829  0.1884
  161RES   H26045380   0.729   4.810   0.605 -0.1773 -1.3663  0.0214
  161RES   H26145381   0.703   4.979   0.609 -0.8084 -1.4856 -0.4222
  161RES   H26245382   0.906   4.835   0.794 -3.1699  0.1764 -0.4486
  161RES   H26345383   0.958   4.904   0.503 -0.1463  1.4975  1.1960
  161RES   H26445384   1.082   4.847   0.617  0.4335  0.4712 -0.6425
  161RES   H26545385   0.960   4.675   0.383 -0.0199 -1.0129  0.5019
  161RES   H26645386   0.985   4.545   0.486  0.0403 -0.3703 -0.5144
  161RES   H26745387   1.124   4.651   0.472  0.7452 -0.2039  0.3755
  161RES   O26845388   0.930   5.035   0.738  0.4289 -0.1103  0.4671
  161RES   C26945389   0.898   5.074   0.874 -0.8737  0.0555  0.2650
  161RES   C27045390   0.931   5.223   0.902  0.5918 -0.3130 -0.4836
  161RES   C27145391   0.861   5.313   0.802  0.5228  0.1312 -1.3308
  161RES   O27245392   0.865   5.450   0.840 -0.4622 -0.7153  0.0509
  161RES   C27345393   0.785   5.526   0.756  0.2541 -1.0243 -0.0772
  161RES   H27445394   0.950   5.015   0.949 -0.4386  0.2466  0.1147
  161RES   H27545395   0.797   5.045   0.903 -1.6958  1.1165 -1.4700
  161RES   H27645396   0.892   5.239   1.002  1.0278  0.4957 -0.4426
  161RES   H27745397   0.757   5.279   0.801  0.2217  0.8150  1.7557
  161RES   H27845398   0.889   5.300   0.698 -0.8391 -1.3309 -1.5432
  161RES   H27945399   0.823   5.515   0.655 -1.5978  0.8970 -1.0412
  161RES   H28045400   0.796   5.628   0.792 -2.4385 -1.7341  3.0650
  161RES   H28145401   0.679   5.498   0.764 -0.8590  2.9357  0.2550
  161RES   H28245402   1.038   5.237   0.891  0.1922  2.9729 -0.5582
  162RES     O145403   4.819   6.565   6.053  0.7663  0.1160  0.3701
  162RES     C245404   4.884   6.688   6.015  0.4010  0.7138  1.0582
  162RES     C345405   4.788   6.808   6.029  0.6407 -0.4131  0.3270
  162RES     C445406   4.840   6.929   5.957  0.4538 -0.4967 -0.2744
  162RES     O545407   4.754   7.042   5.990  0.1071  0.3086  0.2717
  162RES     C645408   4.797   7.160   5.937  0.2934  0.6621  1.1112
  162RES     H745409   4.980   6.694   6.065  0.3850 -2.2571  1.5248
  162RES     H845410   4.897   6.671   5.908 -1.2084  0.3794  0.8953
  162RES     H945411   4.779   6.826   6.136  1.2670 -2.3281  0.7079
  162RES    H1045412   4.846   6.907   5.850 -0.7287 -1.4534 -0.1462
  162RES    H1145413   4.939   6.954   5.996  0.0248 -0.2651  0.6726
  162RES    H1245414   4.897   7.180   5.976  0.6722 -1.9255  1.5355
  162RES    H1345415   4.799   7.171   5.828 -3.5480  0.2542  0.9369
  162RES    H1445416   4.734   7.242   5.971 -2.3355 -0.9449  0.2374
  162RES    H1545417   4.754   6.551   5.986  1.1938  0.5134 -0.1270
  162RES    O1645418   4.672   6.746   5.968 -0.2255  0.3520 -0.3161
  162RES    C1745419   4.545   6.786   6.018 -0.3428  0.3117 -1.1103
  162RES    C1845420   4.499   6.699   6.128  0.2740  0.5495  0.6421
  162RES    C1945421   4.502   6.760   6.272  0.0842  0.2045  0.7870
  162RES    O2045422   4.467   6.671   6.372  0.4694 -0.5547  0.1401
  162RES    C2145423   4.474   6.722   6.506 -0.1431  0.6870  0.0787
  162RES    H2245424   4.467   6.784   5.942 -1.9410  2.7603  0.3966
  162RES    H2345425   4.535   6.890   6.047  1.2894  0.5268 -1.2905
  162RES    H2445426   4.554   6.605   6.123 -0.0117  0.2693  2.3928
  162RES    H2545427   4.598   6.809   6.290 -1.1597  2.0540  2.6535
  162RES    H2645428   4.421   6.831   6.284 -0.8486 -0.5009 -1.1213
  162RES    H2745429   4.433   6.656   6.583 -0.2272  1.4536  0.6982
  162RES    H2845430   4.406   6.808   6.508 -0.2902  0.5861 -0.5651
  162RES    H2945431   4.578   6.736   6.535 -0.1610  1.2065 -0.1142
  162RES    O3045432   4.370   6.667   6.078 -0.9241  0.0818 -0.0729
  162RES    C3145433   4.315   6.555   6.149  0.0705  0.5316 -0.2532
  162RES    C3245434   4.196   6.495   6.075  0.4393 -0.2324 -0.2527
  162RES    C3345435   4.115   6.399   6.164  0.1854  0.1962 -0.1671
  162RES    O3445436   4.018   6.477   6.238 -0.2790 -0.0670 -0.3104
  162RES    C3545437   3.936   6.406   6.327 -0.4110 -0.3589 -0.0343
  162RES    H3645438   4.388   6.480   6.178  0.6999  1.6822  1.2583
  162RES    H3745439   4.279   6.592   6.245  1.1397  1.9993 -0.4069
  162RES    H3845440   4.121   6.569   6.047  1.8850  1.6653  0.8038
  162RES    H3945441   4.185   6.348   6.230 -0.2526  1.3765  1.2091
  162RES    H4045442   4.073   6.320   6.101  1.9735 -0.4855 -0.5390
  162RES    H4145443   3.847   6.460   6.360  1.3569  2.1751  0.6429
  162RES    H4245444   3.989   6.368   6.414 -0.7585  2.6174  1.5164
  162RES    H4345445   3.896   6.316   6.279  1.0763  0.7178 -3.4450
  162RES    O4445446   4.241   6.407   5.966  0.5713 -0.2012 -0.1826
  162RES    C4545447   4.254   6.476   5.840 -0.1661  0.0012  0.0519
  162RES    C4645448   4.366   6.417   5.762  0.0147  0.5113 -0.2061
  162RES    C4745449   4.503   6.393   5.829  0.7316 -0.0175 -0.1146
  162RES    O4845450   4.606   6.366   5.735  0.1463 -0.1891 -0.1500
  162RES    C4945451   4.736   6.341   5.798 -0.5095 -0.2381 -0.2745
  162RES    H5045452   4.297   6.573   5.866 -1.4484  1.5403 -3.1894
  162RES    H5145453   4.165   6.495   5.780 -0.3829 -2.2391 -0.3808
  162RES    H5245454   4.383   6.498   5.692 -1.0868  1.2617  0.3941
  162RES    H5345455   4.529   6.485   5.880 -2.2794 -0.3321  2.1550
  162RES    H5445456   4.490   6.317   5.906 -0.5666  1.0582  0.7492
  162RES    H5545457   4.769   6.434   5.846  0.4900 -0.0613 -1.2739
  162RES    H5645458   4.811   6.304   5.728  0.1053  0.8807 -0.2271
  162RES    H5745459   4.724   6.266   5.875 -0.8851 -0.9870 -1.0550
  162RES    O5845460   4.336   6.295   5.688  0.0941  0.4771  0.7025
  162RES    C5945461   4.311   6.176   5.765 -0.3977  0.4481  0.2731
  162RES    C6045462   4.262   6.068   5.669  0.5967  0.4436 -0.7139
  162RES    C6145463   4.190   5.955   5.737  1.1213  0.4106  0.6479
  162RES    O6245464   4.144   5.861   5.632 -0.5673  0.3358  0.2817
  162RES    C6345465   4.089   5.739   5.672  0.0773  0.3089  0.1117
  162RES    H6445466   4.235   6.180   5.842  0.0226  2.1869  0.6108
  162RES    H6545467   4.406   6.144   5.808  0.3413  2.1020 -0.0830
  162RES    H6645468   4.197   6.102   5.589 -0.6957  1.2937  0.6512
  162RES    H6745469   4.256   5.904   5.807  3.7202 -0.3738 -2.2499
  162RES    H6845470   4.106   5.991   5.796  0.9742 -1.7983  1.8229
  162RES    H6945471   3.989   5.755   5.713  0.1258  0.5094  0.1492
  162RES    H7045472   4.150   5.688   5.747 -0.7423  1.8613  1.8588
  162RES    H7145473   4.073   5.677   5.583 -0.6849  2.3301 -1.1990
  162RES    O7245474   4.371   5.994   5.616 -0.1961  0.2370  0.0680
  162RES    C7345475   4.445   6.074   5.520  0.3400 -0.0911 -0.4485
  162RES    C7445476   4.550   5.978   5.456  0.4211 -0.8778 -0.1653
  162RES    C7545477   4.671   6.048   5.391 -0.3223  0.4547 -0.8196
  162RES    O7645478   4.763   5.956   5.349 -0.3515  0.0051  0.1474
  162RES    C7745479   4.875   6.013   5.285  0.0644  0.7935 -0.0714
  162RES    H7845480   4.371   6.109   5.448  1.7273 -0.0721 -1.8825
  162RES    H7945481   4.498   6.155   5.569  0.9496  0.9668 -2.7818
  162RES    H8045482   4.579   5.908   5.533  0.3545 -1.3970 -0.6110
  162RES    H8145483   4.715   6.094   5.480  0.3831 -1.9957  0.1447
  162RES    H8245484   4.638   6.131   5.329 -0.8113  3.1287  2.8490
  162RES    H8345485   4.854   6.060   5.189 -0.8414  2.1936  0.7764
  162RES    H8445486   4.960   5.946   5.276  0.2876  1.0231  0.3012
  162RES    H8545487   4.908   6.093   5.352  0.5632 -0.3436  1.0715
  162RES    O8645488   4.495   5.899   5.351 -0.2608  0.0924  0.2221
  162RES    C8745489   4.412   5.788   5.372 -0.9284  0.2661 -0.0303
  162RES    C8845490   4.380   5.719   5.235  0.1489  0.0162 -0.6177
  162RES    C8945491   4.293   5.596   5.261 -0.0793 -0.4556 -0.0989
  162RES    O9045492   4.327   5.483   5.184  0.4626 -0.4120  0.0577
  162RES    C9145493   4.254   5.369   5.218  1.2847  0.2206 -0.1932
  162RES    H9245494   4.471   5.719   5.433 -1.6551 -1.5176 -1.3244
  162RES    H9345495   4.327   5.828   5.427  0.1203  2.6970 -0.0820
  162RES    H9445496   4.477   5.686   5.197  0.1396  2.3038 -2.7871
  162RES    H9545497   4.309   5.572   5.365 -0.4096  1.9763  0.5504
  162RES    H9645498   4.187   5.619   5.253  0.1946  1.1938  0.7384
  162RES    H9745499   4.289   5.326   5.312 -2.1566 -1.3103  0.4550
  162RES    H9845500   4.149   5.382   5.193  0.6503  0.1706  2.3060
  162RES    H9945501   4.289   5.297   5.144  1.1747  0.4970 -0.5122
  162RES   O10045502   4.335   5.816   5.141 -0.0594  0.1877 -0.0008
  162RES   C10145503   4.346   5.766   5.007  0.0605  0.1490 -0.0174
  162RES   C10245504   4.247   5.848   4.917 -0.3968  0.7014 -0.0324
  162RES   C10345505   4.251   5.786   4.772 -0.8225 -0.5122 -0.0003
  162RES   O10445506   4.376   5.735   4.732  0.4632 -0.0309 -0.3193
  162RES   C10545507   4.369   5.692   4.596  0.4449  0.1496 -0.3330
  162RES   H10645508   4.329   5.660   4.989 -1.7962  0.5852 -0.9604
  162RES   H10745509   4.448   5.755   4.969 -0.1948 -2.4301 -0.0180
  162RES   H10845510   4.148   5.847   4.965  0.3761 -1.1212  1.5713
  162RES   H10945511   4.227   5.862   4.698 -0.4195 -1.8562 -1.5316
  162RES   H11045512   4.177   5.707   4.760 -0.3504 -0.7390 -1.5534
  162RES   H11145513   4.288   5.624   4.572 -1.4203  2.1219  0.2535
  162RES   H11245514   4.459   5.632   4.587  0.1087 -0.4537  0.3510
  162RES   H11345515   4.374   5.775   4.525  0.2398  0.5161  0.0810
  162RES   O11445516   4.300   5.985   4.906  0.3075  0.0500 -0.0137
  162RES   C11545517   4.198   6.084   4.889  0.0185  0.4368  0.0068
  162RES   C11645518   4.233   6.223   4.949  0.6937  0.1974  0.4442
  162RES   C11745519   4.269   6.211   5.094  0.5007 -0.1516  0.4817
  162RES   O11845520   4.255   6.340   5.153  0.4513 -0.1885  0.2097
  162RES   C11945521   4.305   6.338   5.287  0.1536 -0.1010 -0.1696
  162RES   H12045522   4.184   6.094   4.782 -0.2871 -2.3530 -0.2495
  162RES   H12145523   4.108   6.060   4.945  1.3547 -3.3821  0.6425
  162RES   H12245524   4.142   6.282   4.938  1.9752  2.5189  1.9082
  162RES   H12345525   4.205   6.142   5.149  1.1385  1.4636  3.3564
  162RES   H12445526   4.369   6.170   5.098  1.6181  2.4204 -0.1440
  162RES   H12545527   4.246   6.269   5.347 -0.7851  0.8023 -0.0349
  162RES   H12645528   4.298   6.437   5.332  0.1943 -0.8563  1.5351
  162RES   H12745529   4.413   6.326   5.286  0.3450  1.5866 -1.5088
  162RES   O12845530   4.347   6.268   4.871  0.1559 -0.9288  0.1688
  162RES   C12945531   4.301   6.332   4.750 -0.0799  0.3660 -0.0794
  162RES   C13045532   4.424   6.394   4.678 -0.7652 -0.4844  0.1567
  162RES   C13145533   4.388   6.525   4.599 -0.4748  0.5653 -0.1007
  162RES   O13245534   4.281   6.496   4.513  0.6146  0.5340  0.8274
  162RES   C13345535   4.201   6.603   4.475  0.1457  0.1765  1.0424
  162RES   H13445536   4.248   6.266   4.682 -1.3770 -1.2855  2.4500
  162RES   H13545537   4.221   6.402   4.770  1.1453  1.0926  2.5005
  162RES   H13645538   4.493   6.416   4.759  0.6099 -1.6161 -0.6723
  162RES   H13745539   4.468   6.575   4.544 -1.1140 -0.2675 -1.8106
  162RES   H13845540   4.359   6.595   4.678  0.1354 -0.2500  0.8605
  162RES   H13945541   4.108   6.567   4.431  0.1324  1.6293 -0.1740
  162RES   H14045542   4.168   6.662   4.560 -2.3357 -1.5895  1.3480
  162RES   H14145543   4.251   6.665   4.400 -2.0284  2.4603  1.4302
  162RES   O14245544   4.493   6.304   4.594 -0.0523  0.4538  0.0678
  162RES   C14345545   4.568   6.204   4.667 -0.2273  0.3522  0.4467
  162RES   C14445546   4.611   6.102   4.560  0.5761 -0.0132 -0.0367
  162RES   C14545547   4.641   5.960   4.625  0.0930 -0.9617 -0.1313
  162RES   O14645548   4.636   5.860   4.524  0.5112  0.7193  0.1345
  162RES   C14745549   4.697   5.734   4.548  0.8242  0.0347 -0.1684
  162RES   H14845550   4.649   6.250   4.723 -0.6247  0.7014  0.7473
  162RES   H14945551   4.505   6.152   4.740  0.8104 -0.0144  1.0819
  162RES   H15045552   4.523   6.092   4.497  0.3443 -2.3400  0.5944
  162RES   H15145553   4.559   5.915   4.682 -1.8070 -0.9355 -2.7581
  162RES   H15245554   4.737   5.947   4.675  0.6025  4.0121  0.4094
  162RES   H15345555   4.687   5.671   4.460 -0.3687  1.1274 -0.8303
  162RES   H15445556   4.663   5.674   4.632 -1.4446  2.5090  0.7405
  162RES   H15545557   4.800   5.762   4.573  0.0026  0.9899  2.2978
  162RES   O15645558   4.729   6.145   4.488 -0.5076  0.0303  0.4158
  162RES   C15745559   4.716   6.227   4.377 -0.1232 -0.6157  0.1175
  162RES   C15845560   4.849   6.237   4.298 -0.3495  0.1194 -0.5375
  162RES   C15945561   4.860   6.376   4.234  0.8971  0.8486 -0.5052
  162RES   O16045562   4.990   6.411   4.187 -0.0020 -0.0315 -0.4220
  162RES   C16145563   5.013   6.542   4.166 -0.1491  0.1189 -0.0351
  162RES   H16245564   4.638   6.180   4.317 -1.1604  0.9220  0.2304
  162RES   H16345565   4.678   6.318   4.423  0.9087 -1.7404  3.3170
  162RES   H16445566   4.928   6.228   4.373 -1.7276 -1.4443  0.7757
  162RES   H16545567   4.795   6.382   4.147 -0.8570  0.2462  0.7256
  162RES   H16645568   4.845   6.449   4.313 -0.4795 -1.1504  1.1313
  162RES   H16745569   5.048   6.597   4.253  0.5801  1.9880 -1.4517
  162RES   H16845570   4.924   6.600   4.137 -1.2543 -1.3705  0.3474
  162RES   H16945571   5.098   6.550   4.098 -0.3060 -2.5754 -0.6128
  162RES   O17045572   4.856   6.137   4.195 -0.1954 -0.1487  0.3273
  162RES   C17145573   4.902   6.014   4.248 -0.2787  1.1381  0.7136
  162RES   C17245574   4.930   5.927   4.130 -0.0188  0.1252 -1.2352
  162RES   C17345575   4.949   5.781   4.175 -0.2026  0.8117  0.4876
  162RES   O17445576   4.951   5.686   4.072  0.0348  0.5357  0.5267
  162RES   C17545577   5.077   5.679   3.996 -0.0563 -0.2860  0.5537
  162RES   H17645578   4.835   5.961   4.316  0.5935 -1.1194 -0.1360
  162RES   H17745579   4.995   6.038   4.299  0.1666 -0.9085  0.9239
  162RES   H17845580   4.842   5.925   4.066 -0.6288  1.5040 -0.4626
  162RES   H17945581   5.027   5.766   4.250  2.6412  0.4870 -2.4447
  162RES   H18045582   4.859   5.753   4.230 -0.4585  0.9865  0.1578
  162RES   H18145583   5.089   5.766   3.931 -0.5987 -0.7833 -0.2389
  162RES   H18245584   5.071   5.589   3.935 -1.7204 -1.0971  1.8904
  162RES   H18345585   5.166   5.665   4.056 -0.1129 -2.9766  0.0737
  162RES   O18445586   5.048   5.964   4.067  0.1288  0.5811  0.1005
  162RES   C18545587   5.058   6.095   4.014 -0.6985  0.0425  0.1602
  162RES   C18645588   5.198   6.123   3.952 -0.3431  0.6447  0.2578
  162RES   C18745589   5.199   6.268   3.900 -0.1192 -0.0718 -0.4798
  162RES   O18845590   5.324   6.311   3.859 -0.1220 -0.5671  1.6067
  162RES   C18945591   5.332   6.454   3.854  0.3478 -0.1012 -0.1725
  162RES   H19045592   5.056   6.166   4.097  1.1120  1.2760 -0.8314
  162RES   H19145593   4.971   6.118   3.952 -0.9744 -1.3511  0.0262
  162RES   H19245594   5.274   6.113   4.028  1.3166  2.8027 -1.0467
  162RES   H19345595   5.175   6.319   3.994  0.2906  0.7610 -0.8211
  162RES   H19445596   5.127   6.282   3.819 -0.8420  0.7281  0.2907
  162RES   H19545597   5.339   6.496   3.955 -0.5863 -1.5715  0.5115
  162RES   H19645598   5.414   6.488   3.791 -0.3359 -0.4608 -1.2846
  162RES   H19745599   5.247   6.492   3.797  0.8101 -1.2289 -1.6434
  162RES   O19845600   5.213   6.038   3.845  0.2883 -0.3020  0.6216
  162RES   C19945601   5.322   5.949   3.854 -0.0104  0.0831  0.3440
  162RES   C20045602   5.317   5.853   3.738  0.4699  0.2481  0.4837
  162RES   C20145603   5.411   5.732   3.749 -0.9058 -0.5834  0.2403
  162RES   O20245604   5.416   5.668   3.623 -0.2580 -0.2647  0.8623
  162RES   C20345605   5.502   5.552   3.622  0.6481 -0.0395 -0.7904
  162RES   H20445606   5.329   5.898   3.950  0.5350  2.8732  1.8536
  162RES   H20545607   5.419   5.999   3.857  0.3739 -0.6854  0.7603
  162RES   H20645608   5.216   5.815   3.728  0.0643  1.6068 -0.7289
  162RES   H20745609   5.510   5.767   3.778 -1.6127  0.9162  0.8679
  162RES   H20845610   5.389   5.663   3.831  2.7571  1.6670  3.2285
  162RES   H20945611   5.475   5.487   3.705  1.9267  2.4398  1.6694
  162RES   H21045612   5.608   5.578   3.627  0.5260  0.2530  0.3637
  162RES   H21145613   5.492   5.493   3.531 -2.5070 -2.3041  0.9707
  162RES   O21245614   5.372   5.930   3.631 -0.2579  0.0847  0.4603
  162RES   C21345615   5.274   5.972   3.538  0.2136  0.3014  0.0679
  162RES   C21445616   5.295   6.126   3.510  0.0650  0.0998 -0.5673
  162RES   C21545617   5.224   6.158   3.386 -0.1791 -0.0329  0.0459
  162RES   O21645618   5.190   6.299   3.392 -0.2415 -0.2842  0.1959
  162RES   C21745619   5.112   6.337   3.281 -0.1648  0.2606 -0.0674
  162RES   H21845620   5.175   5.977   3.583  0.5192  0.4640  0.7156
  162RES   H21945621   5.279   5.910   3.448 -1.8879 -2.8660  2.0397
  162RES   H22045622   5.270   6.174   3.605  0.3617  2.3026 -1.5599
  162RES   H22145623   5.287   6.130   3.301  0.6566  0.6667  0.4281
  162RES   H22245624   5.137   6.095   3.369  1.0407 -1.5791 -0.5907
  162RES   H22345625   5.045   6.257   3.249 -3.2184  2.0821  1.4757
  162RES   H22445626   5.185   6.362   3.204  0.2478 -2.2205 -0.5180
  162RES   H22545627   5.064   6.433   3.301  1.4224  1.1770 -0.6251
  162RES   O22645628   5.434   6.161   3.486 -0.0134  0.5926 -0.2804
  162RES   C22745629   5.483   6.235   3.592  0.2655  0.2980  0.2317
  162RES   C22845630   5.630   6.270   3.562  0.1549 -0.2753 -0.2405
  162RES   C22945631   5.682   6.402   3.617  0.2881  0.4366 -0.9212
  162RES   O23045632   5.785   6.458   3.541  1.1043  0.8052  0.2947
  162RES   C23145633   5.848   6.558   3.615 -0.1709  0.6679 -0.0457
  162RES   H23245634   5.476   6.178   3.685  1.0922 -0.3187 -0.0674
  162RES   H23345635   5.427   6.328   3.587  0.2172  0.2614  0.0930
  162RES   H23445636   5.635   6.284   3.454  2.1081 -2.6309 -0.4929
  162RES   H23545637   5.716   6.383   3.718 -0.5795  1.8280 -0.3623
  162RES   H23645638   5.600   6.472   3.625  0.8197  1.1561 -1.6420
  162RES   H23745639   5.912   6.497   3.679 -1.1559 -0.2359  0.0800
  162RES   H23845640   5.791   6.625   3.679 -2.0564 -0.6379 -0.3097
  162RES   H23945641   5.912   6.609   3.543 -1.3073  1.4526 -0.5004
  162RES   O24045642   5.715   6.165   3.611 -0.6203  0.3480  0.8758
  162RES   C24145643   5.707   6.049   3.535 -0.0625 -0.1727  0.2906
  162RES   C24245644   5.813   5.943   3.588  0.2600 -0.9973 -0.0602
  162RES   C24345645   5.796   5.809   3.512  0.0448  0.0045 -0.4991
  162RES   O24445646   5.901   5.715   3.531  0.3886 -0.3355  0.2248
  162RES   C24545647   5.941   5.702   3.668  0.2705 -0.1015  0.0270
  162RES   H24645648   5.718   6.065   3.428 -0.3270  1.2825  0.4785
  162RES   H24745649   5.607   6.010   3.555 -0.6480  1.4187  0.5327
  162RES   H24845650   5.787   5.930   3.693 -3.6105  0.5186 -0.7200
  162RES   H24945651   5.704   5.766   3.552 -0.0536  0.0892 -0.6365
  162RES   H25045652   5.782   5.827   3.406 -4.0441  1.5118  0.2418
  162RES   H25145653   5.978   5.789   3.722 -0.4961  0.4736 -0.3684
  162RES   H25245654   6.020   5.627   3.664  1.3078  0.7441  3.1658
  162RES   H25345655   5.869   5.668   3.742  1.2250  0.0358  1.0273
  162RES   O25445656   5.946   5.987   3.571  0.0090 -0.5455 -0.1083
  162RES   C25545657   6.006   6.066   3.678  1.1034 -0.2845  0.7449
  162RES   C25645658   6.156   6.083   3.653  0.3673  0.0892  0.3963
  162RES   C25745659   6.221   6.187   3.739  0.1406  0.3810  0.2615
  162RES   O25845660   6.196   6.163   3.873  0.2940 -0.1602 -0.5949
  162RES   C25945661   6.271   6.246   3.954 -0.7034  0.4002 -0.1790
  162RES   H26045662   5.961   6.164   3.667 -0.2328 -0.8367  1.1702
  162RES   H26145663   5.985   6.027   3.778  2.0030 -0.0060  1.0424
  162RES   H26245664   6.162   6.096   3.545  1.0666  2.7676  0.7277
  162RES   H26345665   6.328   6.198   3.722 -0.0349 -0.4108 -1.4663
  162RES   H26445666   6.181   6.286   3.718  1.4448  0.6330 -1.1005
  162RES   H26545667   6.254   6.353   3.947 -0.0298  0.5119 -0.1683
  162RES   H26645668   6.378   6.226   3.950 -1.4008 -3.9139  0.2040
  162RES   H26745669   6.234   6.212   4.051  2.0401 -2.7803 -0.1509
  162RES   O26845670   6.226   5.957   3.673 -0.2536 -0.3816 -1.0453
  162RES   C26945671   6.238   5.878   3.553 -0.1363  0.3879 -0.1274
  162RES   C27045672   6.317   5.753   3.596 -0.1803  0.1456 -0.1875
  162RES   C27145673   6.450   5.766   3.679 -0.7249  0.4256 -0.6217
  162RES   O27245674   6.503   5.638   3.700 -0.1347 -0.5895  0.1601
  162RES   C27345675   6.582   5.629   3.824 -0.2743  0.0735 -1.2823
  162RES   H27445676   6.294   5.928   3.474  0.3422  1.0515  0.6264
  162RES   H27545677   6.137   5.854   3.521  0.1980 -0.7481 -0.3505
  162RES   H27645678   6.268   5.681   3.662  0.8773 -1.5993 -1.2876
  162RES   H27745679   6.421   5.830   3.762 -0.2516 -0.2662  0.0728
  162RES   H27845680   6.530   5.823   3.630 -0.4965  0.2246 -0.4823
  162RES   H27945681   6.517   5.632   3.911  1.4918 -1.0144  0.1152
  162RES   H28045682   6.653   5.710   3.838  1.2377 -1.3977 -0.3021
  162RES   H28145683   6.635   5.533   3.830 -0.3614  0.0872 -0.2764
  162RES   H28245684   6.340   5.699   3.504 -1.9023  0.4241 -0.7928
  163RES     O145685   1.426   7.660   1.996  0.5090 -0.3819  0.0493
  163RES     C245686   1.527   7.644   2.090 -0.0008  0.3268  0.3767
  163RES     C345687   1.473   7.647   2.231 -0.3995  0.4542  0.2310
  163RES     C445688   1.581   7.595   2.328  0.0801  0.5667  0.0240
  163RES     O545689   1.526   7.575   2.459  0.0624  0.0039  0.2347
  163RES     C645690   1.631   7.508   2.532 -0.3474  1.0139 -0.3291
  163RES     H745691   1.572   7.547   2.070 -0.3678  0.5095 -1.4568
  163RES     H845692   1.596   7.726   2.072  2.7053 -1.7776  0.7811
  163RES     H945693   1.387   7.581   2.244 -0.5723  0.3625 -1.2360
  163RES    H1045694   1.657   7.673   2.323  0.2423  0.2898 -2.7124
  163RES    H1145695   1.618   7.504   2.282 -2.4596 -0.8103  0.5973
  163RES    H1245696   1.700   7.585   2.564 -0.2444  0.0537  1.8775
  163RES    H1345697   1.584   7.474   2.625  0.5385  0.5036 -0.0581
  163RES    H1445698   1.679   7.433   2.469 -2.4773  0.8504 -1.8311
  163RES    H1545699   1.382   7.743   2.005  1.2872  0.0937 -0.4550
  163RES    O1645700   1.449   7.790   2.247  0.5434  0.1445 -0.2184
  163RES    C1745701   1.331   0.014   2.321  0.2347  0.7490  0.9026
  163RES    C1845702   1.220   0.020   2.216 -0.5547  0.4788  0.1476
  163RES    C1945703   1.085   0.064   2.280 -0.4238  0.8150  0.0325
  163RES    O2045704   0.986   0.049   2.174 -0.5884 -0.5106 -0.2145
  163RES    C2145705   0.923   7.742   2.178 -0.0119  0.6232 -0.1826
  163RES    H2245706   1.344   0.119   2.346 -0.8457  1.1073  0.0029
  163RES    H2345707   1.315   7.771   2.410 -3.6512  1.5184  0.8207
  163RES    H2445708   1.193   7.734   2.193 -2.1745  0.4085  2.2159
  163RES    H2545709   1.068   0.024   2.380 -3.1396 -0.1463 -0.7666
  163RES    H2645710   1.080   0.169   2.307  0.7132  0.6648  0.8549
  163RES    H2745711   0.847   7.752   2.101  0.3638 -0.3922 -0.6870
  163RES    H2845712   0.863   7.726   2.268  0.7290 -1.4947 -0.0385
  163RES    H2945713   0.991   7.658   2.163 -1.9333 -0.7294 -1.4536
  163RES    O3045714   1.258   0.081   2.094 -0.1695  0.2326 -0.1924
  163RES    C3145715   1.265   0.224   2.096  0.1268  0.1094  0.5170
  163RES    C3245716   1.365   0.268   1.983  0.2728  0.0681  0.2526
  163RES    C3345717   1.355   0.184   1.851  0.6527  0.1748 -0.3644
  163RES    O3445718   1.446   0.238   1.751  0.6451 -0.6875 -0.5790
  163RES    C3545719   1.365   0.307   1.653  0.2593  0.2666  0.4842
  163RES    H3645720   1.165   0.256   2.067 -0.8338 -1.4184  2.0459
  163RES    H3745721   1.286   0.265   2.195 -1.3134 -0.2363  0.9754
  163RES    H3845722   1.339   0.371   1.956 -2.1933  0.0906  2.6175
  163RES    H3945723   1.255   0.176   1.810  0.2497 -1.1560  0.8481
  163RES    H4045724   1.393   0.083   1.869  1.3399 -0.1083 -3.1404
  163RES    H4145725   1.422   0.346   1.569  0.4051 -0.6950  0.1301
  163RES    H4245726   1.315   0.391   1.702  0.0700  0.9348 -0.8355
  163RES    H4345727   1.285   0.246   1.612  1.7409 -1.4977  0.1628
  163RES    O4445728   1.495   0.252   2.038 -0.1818 -0.2332  0.4784
  163RES    C4545729   1.574   0.370   2.032 -0.4813  0.3265  0.1759
  163RES    C4645730   1.713   0.343   2.099  0.0812  0.2231 -0.0864
  163RES    C4745731   1.830   0.427   2.049  0.7115  0.0765  0.0044
  163RES    O4845732   1.951   0.379   2.119  0.1143 -0.0465 -0.4057
  163RES    C4945733   2.059   0.469   2.128 -0.0314 -0.4432 -1.0920
  163RES    H5045734   1.523   0.454   2.080  1.2572  0.8339  1.1631
  163RES    H5145735   1.586   0.392   1.926 -2.0395 -0.8389 -0.2703
  163RES    H5245736   1.746   0.244   2.071  1.4983  1.1470 -1.7961
  163RES    H5345737   1.842   0.434   1.941 -1.4018 -1.5988 -0.3783
  163RES    H5445738   1.809   0.530   2.078  2.1056  0.5517 -0.6345
  163RES    H5545739   2.029   0.570   2.156  0.6361 -0.2559 -1.0308
  163RES    H5645740   2.109   0.477   2.031 -0.7024 -1.9101 -1.5711
  163RES    H5745741   2.131   0.437   2.204  0.9069  0.1110 -1.7221
  163RES    O5845742   1.699   0.364   2.239  0.0943 -0.1783 -0.1360
  163RES    C5945743   1.666   0.246   2.305 -0.3330  0.1316 -0.4476
  163RES    C6045744   1.665   0.256   2.458 -0.2619  0.0604 -0.5008
  163RES    C6145745   1.717   0.134   2.531 -0.8565  0.5384  1.0054
  163RES    O6245746   1.695   0.130   2.668  0.0482 -0.6345  0.1787
  163RES    C6345747   1.740   0.012   2.735  0.0226 -0.2761  0.6344
  163RES    H6445748   1.756   0.190   2.278 -0.5471  0.5972 -2.2401
  163RES    H6545749   1.579   0.198   2.260  0.2423  0.1587 -1.6103
  163RES    H6645750   1.727   0.338   2.493 -0.6309  0.2243 -0.2179
  163RES    H6745751   1.678   0.041   2.489  2.0394  0.0728 -0.8150
  163RES    H6845752   1.825   0.131   2.515 -0.6421  0.6094  2.3892
  163RES    H6945753   1.666   7.751   2.725  0.5825 -0.4831 -2.4641
  163RES    H7045754   1.755   0.054   2.835 -0.6854  1.1236  0.1559
  163RES    H7145755   1.842   7.814   2.699 -0.2807 -0.3024 -0.2180
  163RES    O7245756   1.526   0.272   2.504 -0.0219  0.5499 -0.6378
  163RES    C7345757   1.468   0.397   2.470 -0.6577 -0.0343  0.2962
  163RES    C7445758   1.321   0.413   2.513 -0.4142  0.2116 -0.2848
  163RES    C7545759   1.229   0.491   2.409 -0.6625 -0.2907  0.3221
  163RES    O7645760   1.106   0.428   2.409 -0.4110 -0.4416 -0.1135
  163RES    C7745761   1.007   0.487   2.328  0.1118 -0.2731 -0.4881
  163RES    H7845762   1.531   0.481   2.501  1.8776 -2.4203  1.8166
  163RES    H7945763   1.476   0.402   2.361  1.2601  2.0136  0.4934
  163RES    H8045764   1.283   0.312   2.527  1.9646 -0.6774 -0.0269
  163RES    H8145765   1.266   0.480   2.308  0.4507 -1.2025  0.8177
  163RES    H8245766   1.221   0.596   2.436  1.4346 -0.3413  1.2421
  163RES    H8345767   0.980   0.578   2.380 -1.8882 -0.2057 -1.6132
  163RES    H8445768   0.919   0.423   2.327 -1.3257  1.6621 -0.7708
  163RES    H8545769   1.047   0.521   2.232 -1.5613  2.8063 -0.1522
  163RES    O8645770   1.330   0.491   2.633 -0.4142  0.1197  0.4070
  163RES    C8745771   1.224   0.478   2.725 -0.0523  1.2829  0.6527
  163RES    C8845772   1.265   0.481   2.871 -0.8063 -0.4117  0.0639
  163RES    C8945773   1.139   0.495   2.961  0.5337  0.6526 -0.2395
  163RES    O9045774   1.058   0.382   2.923 -0.2700 -0.3772 -0.1799
  163RES    C9145775   0.930   0.375   2.979 -0.3860 -0.0304  0.2751
  163RES    H9245776   1.149   0.556   2.709  0.4594  1.2614 -2.1099
  163RES    H9345777   1.173   0.382   2.714  1.6792 -0.0099  3.2528
  163RES    H9445778   1.322   0.572   2.893  0.4322 -0.5678 -2.3248
  163RES    H9545779   1.167   0.480   3.065  0.1226 -1.5177 -0.4230
  163RES    H9645780   1.070   0.577   2.941  0.2493  0.8265  1.3305
  163RES    H9745781   0.880   0.290   2.933 -2.0270  0.1498  1.6692
  163RES    H9845782   0.944   0.362   3.087  0.5419 -0.1284  0.1480
  163RES    H9945783   0.875   0.469   2.974 -0.5778 -0.2219 -1.1907
  163RES   O10045784   1.345   0.366   2.924 -0.6185 -0.4049  0.1033
  163RES   C10145785   1.472   0.338   2.855  0.5292  0.2518 -0.7260
  163RES   C10245786   1.581   0.442   2.885  0.4292  0.6423 -0.5860
  163RES   C10345787   1.691   0.444   2.776  0.2751  0.3412  0.7929
  163RES   O10445788   1.785   0.533   2.817 -0.5652 -0.2681  0.1441
  163RES   C10545789   1.877   0.573   2.716 -0.1040  0.2085  0.0100
  163RES   H10645790   1.457   0.334   2.748 -1.2817 -0.6030 -0.4552
  163RES   H10745791   1.507   0.239   2.884  0.2123  0.5556  0.7636
  163RES   H10845792   1.535   0.541   2.884  0.9440  0.8831 -0.7942
  163RES   H10945793   1.651   0.476   2.680 -0.6307 -1.6072  0.4988
  163RES   H11045794   1.731   0.345   2.752  1.0287  1.0852 -1.1201
  163RES   H11145795   1.948   0.495   2.690  1.2330  1.5132 -0.3303
  163RES   H11245796   1.936   0.658   2.749  1.4184 -0.5932 -0.6341
  163RES   H11345797   1.826   0.611   2.628 -1.3097  0.1095  0.6527
  163RES   O11445798   1.649   0.418   3.009 -0.8688 -0.0549  0.3260
  163RES   C11545799   1.571   0.444   3.125 -0.7665 -0.4906 -1.1755
  163RES   C11645800   1.655   0.475   3.249 -0.6178 -0.1469 -0.2765
  163RES   C11745801   1.573   0.537   3.365 -0.4068 -0.0627 -0.0901
  163RES   O11845802   1.515   0.661   3.347  0.3960 -0.4449  0.4851
  163RES   C11945803   1.603   0.771   3.344 -0.0902 -0.5842 -0.0149
  163RES   H12045804   1.517   0.535   3.099 -2.4377 -0.5773  1.8234
  163RES   H12145805   1.497   0.364   3.136 -1.5364  0.2145 -1.2068
  163RES   H12245806   1.729   0.547   3.213 -1.5462  1.0981  0.2588
  163RES   H12345807   1.489   0.471   3.388 -0.5799 -0.2368 -1.1893
  163RES   H12445808   1.634   0.540   3.455 -0.7802 -2.1740  0.2636
  163RES   H12545809   1.677   0.778   3.424 -1.1140  2.3453  0.7176
  163RES   H12645810   1.557   0.867   3.366 -0.2297 -0.7889  0.6157
  163RES   H12745811   1.658   0.779   3.251  0.8683  2.2294  0.7609
  163RES   O12845812   1.729   0.363   3.316  0.2496  0.3341  0.0663
  163RES   C12945813   1.849   0.316   3.239  0.0408 -0.1726 -0.3325
  163RES   C13045814   1.929   0.220   3.331  0.3727  0.4920  0.1264
  163RES   C13145815   2.085   0.218   3.315  0.3485  0.2347  0.0061
  163RES   O13245816   2.137   0.344   3.349  0.1121 -0.3442 -0.2055
  163RES   C13345817   2.267   0.369   3.321 -0.0838 -1.0886  0.2255
  163RES   H13445818   1.831   0.292   3.134 -1.3775 -0.4665 -0.0329
  163RES   H13545819   1.913   0.404   3.229  1.9950 -1.6450 -0.8217
  163RES   H13645820   1.906   0.250   3.433 -1.7353  1.7395 -0.6961
  163RES   H13745821   2.111   0.206   3.210  2.4408  2.3811  0.2313
  163RES   H13845822   2.125   0.140   3.380 -1.6989  0.3718  1.5008
  163RES   H13945823   2.272   0.406   3.219  1.9694 -0.6416  0.4759
  163RES   H14045824   2.312   0.439   3.392  0.8735 -1.5139  0.0461
  163RES   H14145825   2.321   0.274   3.326  2.3123  0.1660 -1.2147
  163RES   O14245826   1.885   0.090   3.314 -0.2320  0.5786  0.5009
  163RES   C14345827   1.755   0.069   3.356  0.4435  0.0730  0.0923
  163RES   C14445828   1.661   0.017   3.231 -0.2640 -0.3002  0.3540
  163RES   C14545829   1.516   0.067   3.256 -0.4203 -0.2276 -0.4045
  163RES   O14645830   1.432   0.047   3.144  0.3271  0.1653  0.1113
  163RES   C14745831   1.310   0.122   3.148  0.1004  0.3183 -0.6566
  163RES   H14845832   1.753   7.800   3.423 -2.7103 -0.4599 -0.5711
  163RES   H14945833   1.712   0.146   3.420  1.0538  1.9259 -1.6850
  163RES   H15045834   1.701   0.072   3.146 -0.9145  0.4528  0.5272
  163RES   H15145835   1.520   0.175   3.270  0.4860  0.0999 -2.9097
  163RES   H15245836   1.466   0.018   3.340  0.2784  0.6399  0.5204
  163RES   H15345837   1.263   0.100   3.244  0.1328 -1.2023 -0.9898
  163RES   H15445838   1.231   0.081   3.085 -0.1792  0.5184 -0.4401
  163RES   H15545839   1.315   0.231   3.146  0.6623  0.3678  1.7174
  163RES   O15645840   1.671   7.692   3.220 -0.3682  0.1318  0.0490
  163RES   C15745841   1.673   7.656   3.078 -0.3397  0.1386 -0.2939
  163RES   C15845842   1.630   7.505   3.056 -0.0244 -0.1203  0.2133
  163RES   C15945843   1.690   7.446   2.929 -0.1815  0.2111  0.2126
  163RES   O16045844   1.661   7.308   2.925 -0.4554  0.0842 -0.1818
  163RES   C16145845   1.710   7.230   2.821  0.0218 -0.7494  0.0762
  163RES   H16245846   1.620   7.726   3.013 -0.7997 -0.7840 -0.9056
  163RES   H16345847   1.771   7.677   3.034  1.3684 -3.0589  1.7964
  163RES   H16445848   1.667   7.447   3.141  3.4338  1.5865 -0.0515
  163RES   H16545849   1.649   7.502   2.845  0.8356  1.1968  0.3712
  163RES   H16645850   1.797   7.464   2.922 -0.4500  0.9761 -2.3535
  163RES   H16745851   1.657   7.135   2.827 -0.2100 -0.5656  1.0247
  163RES   H16845852   1.816   7.213   2.838 -0.0227 -1.0624  0.0383
  163RES   H16945853   1.701   7.277   2.723  0.8602  2.5987  1.5059
  163RES   O17045854   1.485   7.501   3.045 -0.0381 -0.7069  0.3264
  163RES   C17145855   1.419   7.490   3.167  0.0394  0.3098  0.4015
  163RES   C17245856   1.271   7.542   3.164 -0.0162  0.5598 -0.5701
  163RES   C17345857   1.209   7.584   3.304  0.4218 -0.3306  0.0183
  163RES   O17445858   1.207   7.475   3.395  0.5714  0.3926 -0.1407
  163RES   C17545859   1.143   7.507   3.517  0.2767 -0.6693  0.1359
  163RES   H17645860   1.477   7.536   3.247  0.8605 -0.4504  0.2449
  163RES   H17745861   1.424   7.389   3.208  1.3384 -0.7607 -2.2863
  163RES   H17845862   1.279   7.628   3.098  0.5321  1.1318  0.2185
  163RES   H17945863   1.272   7.663   3.345 -0.3766  0.0581  0.4993
  163RES   H18045864   1.106   7.616   3.291 -0.1728 -2.0678  0.2455
  163RES   H18145865   1.176   7.595   3.572 -1.1646  0.5072 -0.8433
  163RES   H18245866   1.131   7.419   3.580 -1.0603 -1.0849 -0.6852
  163RES   H18345867   1.042   7.532   3.483  0.6363  1.4457  0.5424
  163RES   O18445868   1.188   7.444   3.116 -0.3240 -0.5561 -0.2819
  163RES   C18545869   1.077   7.500   3.041 -0.4498 -0.3781  0.3452
  163RES   C18645870   0.955   7.399   3.042 -0.6453 -0.1632  0.3688
  163RES   C18745871   0.836   7.450   2.969 -0.7074 -0.5150 -0.3360
  163RES   O18845872   0.756   7.336   2.940 -0.1874 -0.0392  0.6162
  163RES   C18945873   0.656   7.358   2.847 -0.2081 -0.2858 -0.2993
  163RES   H19045874   1.118   7.519   2.942 -0.7445  0.0843  0.3117
  163RES   H19145875   1.045   7.593   3.087 -2.3354 -1.5338  1.4447
  163RES   H19245876   0.990   7.305   3.001  0.2797  0.0595  0.6431
  163RES   H19345877   0.867   7.504   2.879  0.0523  0.2682  0.3910
  163RES   H19445878   0.784   7.527   3.026  0.9390 -0.3458  0.9645
  163RES   H19545879   0.603   7.264   2.829 -4.1285  1.6454  0.5846
  163RES   H19645880   0.581   7.426   2.888  0.6797  0.6950 -0.2839
  163RES   H19745881   0.710   7.394   2.759  0.0425  1.2834  0.4935
  163RES   O19845882   0.910   7.374   3.184  0.6590  0.1873 -0.0794
  163RES   C19945883   0.972   7.264   3.253  0.6033  0.4140 -0.4454
  163RES   C20045884   0.918   7.261   3.395  0.5720 -0.5858 -0.0921
  163RES   C20145885   1.003   7.160   3.480 -0.1548 -0.1746  0.4247
  163RES   O20245886   0.967   7.129   3.612 -0.1038 -0.1670 -0.1662
  163RES   C20345887   1.048   7.019   3.658 -0.1578 -0.1309 -0.0676
  163RES   H20445888   1.075   7.298   3.265  1.4473 -1.7520 -1.4683
  163RES   H20545889   0.966   7.168   3.202  1.0081  0.4130 -0.4976
  163RES   H20645890   0.931   7.359   3.440  0.9961 -1.2551  1.2373
  163RES   H20745891   0.982   7.071   3.420  0.6246 -1.3198  1.8135
  163RES   H20845892   1.111   7.176   3.482  0.5167 -4.2624  3.8808
  163RES   H20945893   1.029   7.016   3.765 -0.2998 -2.0370 -0.1332
  163RES   H21045894   1.154   7.046   3.651 -0.0393 -0.0057  2.0697
  163RES   H21145895   1.032   6.920   3.614  2.3827 -0.8279  0.4637
  163RES   O21245896   0.791   7.214   3.406 -0.0759  0.5799  0.4346
  163RES   C21345897   0.684   7.304   3.386 -0.6254 -0.2465  0.8398
  163RES   C21445898   0.563   7.237   3.443  0.4651  0.2521 -0.2051
  163RES   C21545899   0.439   7.311   3.384 -0.1153 -0.0647 -0.2538
  163RES   O21645900   0.337   7.217   3.396  0.5621  0.3073  0.2866
  163RES   C21745901   0.236   7.228   3.297  0.1218  0.3639 -0.2867
  163RES   H21845902   0.675   7.308   3.278 -0.2809 -0.7821  0.7923
  163RES   H21945903   0.704   7.400   3.435  0.4042 -0.1370  0.2119
  163RES   H22045904   0.569   7.134   3.407  1.2191  0.7191 -1.4625
  163RES   H22145905   0.414   7.402   3.439 -0.5706 -0.7829  0.7427
  163RES   H22245906   0.458   7.347   3.283 -1.7538 -0.1461 -0.6128
  163RES   H22345907   0.251   7.164   3.210  0.2434 -1.4436  1.0232
  163RES   H22445908   0.223   7.333   3.271  1.4758  0.9386  1.2645
  163RES   H22545909   0.139   7.195   3.335  0.3195 -1.3036 -1.1820
  163RES   O22645910   0.548   7.241   3.586 -0.4326 -0.1670 -0.1260
  163RES   C22745911   0.648   7.173   3.661  0.6079  0.9868 -0.1664
  163RES   C22845912   0.592   7.129   3.800  0.1428 -0.1503 -0.1464
  163RES   C22945913   0.702   7.052   3.885  0.2657 -0.7627  0.0357
  163RES   O23045914   0.642   6.950   3.963 -0.0839 -0.4556 -0.2923
  163RES   C23145915   0.731   6.895   4.064 -0.0440  0.2992 -0.3791
  163RES   H23245916   0.737   7.235   3.665  0.8347  0.6290  0.2779
  163RES   H23345917   0.686   7.079   3.619  0.6115  1.6126 -1.6118
  163RES   H23445918   0.506   7.064   3.788 -0.8677  1.0767  0.3470
  163RES   H23545919   0.758   7.127   3.940  0.7713 -0.9161 -0.2568
  163RES   H23645920   0.782   7.005   3.827 -0.9544 -2.5793 -0.2094
  163RES   H23745921   0.829   6.858   4.033  0.8492  2.1343  0.2203
  163RES   H23845922   0.682   6.812   4.114  0.1170  1.1131  1.1521
  163RES   H23945923   0.759   6.966   4.141  1.5475 -0.6118 -0.0937
  163RES   O24045924   0.549   7.234   3.881  0.2853  0.0966  0.1438
  163RES   C24145925   0.411   7.283   3.877 -1.1652  0.5472 -0.5089
  163RES   C24245926   0.322   7.175   3.941 -0.1438 -0.4033  0.0129
  163RES   C24345927   0.220   7.243   4.033 -1.0405 -0.3111  0.1311
  163RES   O24445928   0.127   7.154   4.090 -0.4191  0.1943 -0.2503
  163RES   C24545929   0.041   7.229   4.178  0.1998  0.1839  0.0857
  163RES   H24645930   0.381   7.314   3.777 -0.2077 -1.3132 -1.4043
  163RES   H24745931   0.413   7.375   3.934  0.2274  1.2957 -1.7062
  163RES   H24845932   0.387   7.116   4.005 -0.3140  0.2207  0.7612
  163RES   H24945933   0.273   7.298   4.111  0.7675 -1.7288 -0.0692
  163RES   H25045934   0.160   7.312   3.974 -1.3227 -1.2519 -0.7000
  163RES   H25145935   7.798   7.296   4.116 -0.7242 -1.5591 -0.9168
  163RES   H25245936   0.107   7.280   4.249 -0.7407  0.6134  0.6761
  163RES   H25345937   7.788   7.161   4.226  0.8167 -1.8809 -1.8685
  163RES   O25445938   0.265   7.088   3.844 -0.2809 -0.1875  0.0219
  163RES   C25545939   0.167   7.144   3.754  0.4990  0.5109 -0.3741
  163RES   C25645940   0.118   7.028   3.667 -0.4453  0.6957  0.0227
  163RES   C25745941   7.807   7.059   3.596  0.4937  0.8032 -0.4469
  163RES   O25845942   7.762   6.935   3.537  0.2324  0.0539  0.1299
  163RES   C25945943   7.627   6.942   3.491 -0.5743 -0.2988 -0.6192
  163RES   H26045944   0.090   7.195   3.813 -0.2245 -1.1341  0.1273
  163RES   H26145945   0.222   7.210   3.687  1.1914  0.9699  0.6388
  163RES   H26245946   0.100   6.941   3.730  1.0704  1.6686  1.8376
  163RES   H26345947   7.728   7.093   3.664  0.0532  0.5616 -0.8332
  163RES   H26445948   0.006   7.140   3.525 -1.4294  2.2688  0.7179
  163RES   H26545949   7.602   6.841   3.459 -1.4002 -0.0652 -0.7374
  163RES   H26645950   7.627   7.008   3.404 -0.0719  0.3836 -0.1103
  163RES   H26745951   7.557   6.973   3.569 -0.7459 -0.8646 -0.5491
  163RES   O26845952   0.216   7.008   3.560 -0.2266  0.5539 -0.1926
  163RES   C26945953   0.308   6.904   3.584  0.2013  0.2119 -0.2010
  163RES   C27045954   0.246   6.770   3.560  0.1723  0.2935 -0.1474
  163RES   C27145955   0.355   6.669   3.549  0.2624  0.0854  0.2037
  163RES   O27245956   0.291   6.545   3.566 -0.7595  0.3483 -0.1308
  163RES   C27345957   0.379   6.427   3.576 -0.1963 -0.2365 -0.3003
  163RES   H27445958   0.335   6.912   3.689 -1.0109 -0.7132  0.1913
  163RES   H27545959   0.400   6.913   3.525  0.1456 -2.3924 -0.7285
  163RES   H27645960   0.173   6.744   3.638  0.6036  1.0139  0.5086
  163RES   H27745961   0.428   6.687   3.629 -0.4563 -2.2729  1.4354
  163RES   H27845962   0.409   6.683   3.456 -1.0989  0.0853 -0.6007
  163RES   H27945963   0.464   6.436   3.508 -0.4420  1.1692 -0.4478
  163RES   H28045964   0.312   6.350   3.538 -1.7204  0.7082  0.4223
  163RES   H28145965   0.410   6.415   3.680 -0.2812  0.9830 -0.1299
  163RES   H28245966   0.191   6.776   3.466  1.8893  1.0899 -1.1200
  164RES     O145967   7.641   0.796   5.424 -0.3521  0.4189  0.0634
  164RES     C245968   7.502   0.775   5.387  0.9756 -0.2912 -0.3749
  164RES     C345969   7.424   0.672   5.464  0.4042  0.6662 -0.0607
  164RES     C445970   7.331   0.719   5.576 -0.0560 -0.2781 -0.1864
  164RES     O545971   7.352   0.634   5.692  0.3650  0.1419  0.0692
  164RES     C645972   7.330   0.699   5.817 -0.1214 -0.2182 -0.4937
  164RES     H745973   7.445   0.868   5.386 -0.5327 -1.2014  0.2902
  164RES     H845974   7.515   0.743   5.284  1.1843 -1.2059 -0.0634
  164RES     H945975   7.492   0.599   5.508  1.3253  1.3591 -0.3224
  164RES    H1045976   7.225   0.728   5.549 -0.1537 -0.4037  0.1502
  164RES    H1145977   7.364   0.820   5.601  0.2951 -0.5455  0.4383
  164RES    H1245978   7.225   0.721   5.840 -0.0086 -0.2955  0.0904
  164RES    H1345979   7.362   0.638   5.901  1.5225  1.2551 -0.0425
  164RES    H1445980   7.388   0.790   5.807  0.2875 -0.3234  0.8724
  164RES    H1545981   7.688   0.825   5.347 -0.4637  0.4036 -0.0110
  164RES    O1645982   7.354   0.601   5.365 -0.0719  0.1096  0.4240
  164RES    C1745983   7.394   0.461   5.353 -0.0361  0.3198  0.1158
  164RES    C1845984   7.335   0.404   5.224 -0.0919 -0.9485  0.2456
  164RES    C1945985   7.385   0.261   5.174 -0.2441 -0.3830  0.1396
  164RES    O2045986   7.381   0.171   5.288  0.6122  0.0863 -0.2975
  164RES    C2145987   7.452   0.049   5.268 -0.1994  0.1768  0.0419
  164RES    H2245988   7.371   0.402   5.442 -3.1736  0.5551 -0.4922
  164RES    H2345989   7.502   0.460   5.339  0.1997 -0.8430  1.8621
  164RES    H2445990   7.364   0.477   5.148 -1.4359  0.1539  0.7808
  164RES    H2545991   7.329   0.228   5.087  0.2379 -1.0457  0.0732
  164RES    H2645992   7.487   0.288   5.145 -1.1416  0.3095 -2.4954
  164RES    H2745993   7.406   7.816   5.183 -2.7663 -0.4054  1.7128
  164RES    H2845994   7.450   7.803   5.356 -2.0437  1.5928  1.0658
  164RES    H2945995   7.557   0.068   5.244 -0.4072  0.4855 -0.6372
  164RES    O3045996   7.201   0.398   5.249 -0.1131 -0.1195  0.2841
  164RES    C3145997   7.112   0.431   5.143 -0.0589  0.6350  0.3545
  164RES    C3245998   7.110   0.582   5.106  0.6343  0.9361 -0.3936
  164RES    C3345999   6.958   0.617   5.075 -0.0772 -0.6179 -0.2075
  164RES    O3446000   6.956   0.760   5.067  0.4006 -0.3775 -0.2955
  164RES    C3546001   6.828   0.814   5.029 -0.6783  0.4628 -0.0597
  164RES    H3646002   7.141   0.379   5.052 -1.1394 -0.4680  0.6165
  164RES    H3746003   7.016   0.396   5.181  0.2022  0.0713  0.5096
  164RES    H3846004   7.135   0.645   5.192  0.6839 -1.3449  1.2972
  164RES    H3946005   6.900   0.582   5.161  1.4264  1.0185  1.5210
  164RES    H4046006   6.931   0.572   4.980 -1.1651  2.1619 -1.2650
  164RES    H4146007   6.844   0.921   5.013  1.2930  0.2128  0.1122
  164RES    H4246008   6.753   0.791   5.104 -0.5442  1.3797  0.3729
  164RES    H4346009   6.792   0.778   4.933  1.1124 -0.2999 -0.4645
  164RES    O4446010   7.198   0.609   5.000 -0.1782  0.2539 -0.7090
  164RES    C4546011   7.209   0.747   4.972 -0.7528  0.3015 -0.4989
  164RES    C4646012   7.312   0.756   4.855 -0.4071  0.2154  0.8112
  164RES    C4746013   7.342   0.897   4.804  0.3090 -0.1180 -0.6442
  164RES    O4846014   7.321   0.905   4.661  0.3059 -0.4054  0.3376
  164RES    C4946015   7.358   1.040   4.625  0.3731 -0.0817 -0.1891
  164RES    H5046016   7.242   0.796   5.063  1.1758  0.0091 -1.0154
  164RES    H5146017   7.120   0.795   4.932 -1.2370 -1.1719 -1.2527
  164RES    H5246018   7.264   0.701   4.775 -1.1436 -1.5456  2.4100
  164RES    H5346019   7.277   0.966   4.856  2.1556 -0.1910  1.8568
  164RES    H5446020   7.442   0.935   4.826  0.0724  0.0888  0.0539
  164RES    H5546021   7.466   1.052   4.626  0.4605 -0.8160  0.2787
  164RES    H5646022   7.309   1.115   4.687 -1.2817 -0.6169 -0.8147
  164RES    H5746023   7.334   1.057   4.520  0.6957  0.4323 -0.1793
  164RES    O5846024   7.429   0.682   4.898 -0.1386 -0.2821 -0.2280
  164RES    C5946025   7.512   0.626   4.797 -0.9486 -0.0869 -0.6360
  164RES    C6046026   7.510   0.475   4.811  0.6103  0.1416 -0.5237
  164RES    C6146027   7.628   0.423   4.890  0.3217  0.0267  0.5859
  164RES    O6246028   7.595   0.292   4.926 -0.0642 -1.0698 -0.0324
  164RES    C6346029   7.698   0.219   4.987 -0.0442  0.4439  0.2167
  164RES    H6446030   7.615   0.663   4.801 -0.2700 -1.9163 -0.9006
  164RES    H6546031   7.477   0.650   4.697 -0.2196  0.4487 -0.7704
  164RES    H6646032   7.412   0.454   4.854  0.2873  3.9132  0.8213
  164RES    H6746033   7.717   0.427   4.828 -0.5458  0.4152 -0.6379
  164RES    H6846034   7.624   0.471   4.989 -0.6707 -0.0568  0.5921
  164RES    H6946035   7.780   0.197   4.919 -0.1545  1.1344 -0.1456
  164RES    H7046036   7.662   0.119   5.011  0.5730  0.2217  0.2257
  164RES    H7146037   7.748   0.261   5.074  1.0866 -1.4367  0.5032
  164RES    O7246038   7.542   0.417   4.684 -0.1110  0.2919 -0.3233
  164RES    C7346039   7.428   0.354   4.632 -0.0116  0.1449  0.3216
  164RES    C7446040   7.380   0.219   4.701  0.6118  0.1603 -0.0933
  164RES    C7546041   7.477   0.113   4.656  0.3182  0.0627 -0.1078
  164RES    O7646042   7.461   7.807   4.736  0.0423 -0.0194 -0.1842
  164RES    C7746043   7.571   7.713   4.709  0.1437 -0.0588  0.8072
  164RES    H7846044   7.349   0.429   4.634  0.1461  0.3137  0.2642
  164RES    H7946045   7.437   0.337   4.524 -1.3966 -1.2163  0.4153
  164RES    H8046046   7.378   0.234   4.809  4.6180 -0.3268  0.1033
  164RES    H8146047   7.576   0.154   4.675  0.7329 -1.3179  0.8079
  164RES    H8246048   7.473   0.084   4.550  2.6877 -3.0522  0.5684
  164RES    H8346049   7.668   7.745   4.747  1.7208 -2.1317 -1.3361
  164RES    H8446050   7.570   7.690   4.603 -1.4343 -3.0287  1.4085
  164RES    H8546051   7.558   7.619   4.762 -1.1548 -1.7055 -2.3063
  164RES    O8646052   7.251   0.211   4.651  0.3420  0.2237  0.5213
  164RES    C8746053   7.172   0.105   4.713 -0.6770 -0.7439  0.4607
  164RES    C8846054   7.037   0.102   4.629  0.4437  0.6241 -0.3130
  164RES    C8946055   6.965   7.790   4.640  0.3685  0.4895 -0.9396
  164RES    O9046056   6.870   7.776   4.534  0.0052 -0.0325  0.2603
  164RES    C9146057   6.799   7.654   4.556 -0.3427  0.0055 -0.4266
  164RES    H9246058   7.216   0.006   4.695 -1.3519 -1.1795  1.2070
  164RES    H9346059   7.176   0.118   4.821  1.2320  1.6102  0.1411
  164RES    H9446060   7.069   0.114   4.525 -2.4902 -0.8360 -1.4172
  164RES    H9546061   7.043   7.715   4.622  2.3492  1.8655  1.4996
  164RES    H9646062   6.931   7.775   4.743  1.4778 -2.1623 -0.9203
  164RES    H9746063   6.744   7.648   4.649 -2.0932 -1.0770 -1.5113
  164RES    H9846064   6.726   7.626   4.480 -0.4166 -1.8763  0.3238
  164RES    H9946065   6.868   7.570   4.565 -1.5907 -0.6549  4.1696
  164RES   O10046066   6.937   0.194   4.672 -0.4415  0.0513 -0.5688
  164RES   C10146067   6.973   0.333   4.681  0.2282 -1.1073 -0.2026
  164RES   C10246068   6.846   0.419   4.700  1.3639  0.0554  0.1185
  164RES   C10346069   6.876   0.564   4.648 -0.3727 -0.0692  0.7196
  164RES   O10446070   6.767   0.654   4.655  0.2765  0.1835  0.4214
  164RES   C10546071   6.799   0.788   4.640  0.5766 -0.2378  0.1242
  164RES   H10646072   7.014   0.363   4.585  1.1354 -2.0408 -0.1198
  164RES   H10746073   7.043   0.356   4.761 -0.3710 -4.8609  1.5441
  164RES   H10846074   6.762   0.378   4.643  0.9963 -1.2928  1.5850
  164RES   H10946075   6.912   0.547   4.547 -2.8669  0.2156 -0.2723
  164RES   H11046076   6.966   0.588   4.704  1.2332 -0.0782 -1.8200
  164RES   H11146077   6.864   0.825   4.720  0.5124  2.1299 -0.8804
  164RES   H11246078   6.709   0.848   4.626  1.3305  1.1246  0.9358
  164RES   H11346079   6.872   0.801   4.559  2.1907 -3.5358  0.9656
  164RES   O11446080   6.814   0.414   4.839  0.3857  0.8782 -0.0141
  164RES   C11546081   6.678   0.450   4.878  0.6716  0.2266  0.1632
  164RES   C11646082   6.661   0.396   5.023  0.6791  0.2525 -0.6356
  164RES   C11746083   6.527   0.455   5.083  0.4667  0.0638 -0.7457
  164RES   O11846084   6.520   0.443   5.224 -0.6259  0.1886 -0.8817
  164RES   C11946085   6.392   0.481   5.269 -1.0371 -0.0328  0.2011
  164RES   H12046086   6.662   0.557   4.867 -1.0589 -0.1492 -1.2055
  164RES   H12146087   6.606   0.398   4.815  0.6806 -0.7352  0.9281
  164RES   H12246088   6.750   0.421   5.081  0.2879 -0.4298  0.2716
  164RES   H12346089   6.528   0.562   5.063  0.2651  0.4267  1.1305
  164RES   H12446090   6.444   0.417   5.023 -0.8945  3.6209 -1.2233
  164RES   H12546091   6.366   0.585   5.245 -0.2660 -0.4807 -2.7958
  164RES   H12646092   6.388   0.463   5.376 -0.4043  1.5204  0.5089
  164RES   H12746093   6.318   0.417   5.220 -0.7851 -1.2796  1.4357
  164RES   O12846094   6.650   0.251   5.030  0.2302  0.2494 -0.0241
  164RES   C12946095   6.772   0.181   5.004  0.6796  0.0400 -0.1409
  164RES   C13046096   6.782   0.044   5.077 -0.2223 -0.0206 -0.3225
  164RES   C13146097   6.929   0.003   5.101 -0.0126 -0.2526 -0.2022
  164RES   O13246098   7.001   7.768   4.989  0.1807  0.1583 -0.5447
  164RES   C13346099   7.121   7.696   5.015 -0.0058 -0.4341  0.5226
  164RES   H13446100   6.782   0.165   4.896  1.2729 -0.6945  0.0232
  164RES   H13546101   6.855   0.243   5.037  1.1241 -0.9130  0.5382
  164RES   H13646102   6.743   0.065   5.177 -0.3296 -3.0357  0.3138
  164RES   H13746103   6.926   7.740   5.175  1.6133 -0.4598 -0.3540
  164RES   H13846104   6.978   0.078   5.161 -4.5404  1.5319  1.4590
  164RES   H13946105   7.115   7.590   4.991  0.7377 -0.6503  1.2761
  164RES   H14046106   7.204   7.740   4.959 -0.1768  0.4767  0.9720
  164RES   H14146107   7.132   7.688   5.123 -1.5990 -0.8063  0.6628
  164RES   O14246108   6.722   7.749   5.016 -0.2157  0.4325 -0.1754
  164RES   C14346109   6.582   7.756   5.035 -0.0611  0.1179 -0.6097
  164RES   C14446110   6.513   7.617   5.011  0.0723 -0.1125 -0.4896
  164RES   C14546111   6.495   7.584   4.860  0.2208 -0.9195  0.1517
  164RES   O14646112   6.468   7.446   4.848 -0.0867 -0.0973  0.7178
  164RES   C14746113   6.498   7.401   4.721  0.2749 -0.7075 -0.0375
  164RES   H14846114   6.554   7.786   5.136  0.9756 -1.5168  0.1834
  164RES   H14946115   6.535   0.011   4.969 -1.0110  0.9030  0.8913
  164RES   H15046116   6.574   7.539   5.057  0.5442  0.5993  0.0954
  164RES   H15146117   6.587   7.604   4.804  1.0449  0.8997  2.1002
  164RES   H15246118   6.417   7.645   4.815  1.0132 -0.7568 -1.0367
  164RES   H15346119   6.442   7.464   4.652  1.6003 -0.0317 -0.5029
  164RES   H15446120   6.463   7.299   4.708 -0.1009 -0.6815  0.7642
  164RES   H15546121   6.604   7.410   4.698 -0.6513  2.7441 -3.5516
  164RES   O15646122   6.386   7.636   5.076  0.3958  0.3008 -0.0521
  164RES   C15746123   6.309   7.520   5.099 -0.1623 -0.5529 -0.5099
  164RES   C15846124   6.223   7.534   5.231  0.0230  0.0948  0.3958
  164RES   C15946125   6.172   7.393   5.286  0.3621  0.1231  0.0373
  164RES   O16046126   6.121   7.316   5.179 -0.2359  0.0154 -0.8222
  164RES   C16146127   6.066   7.190   5.212 -0.7604 -0.0064 -0.5045
  164RES   H16246128   6.244   7.482   5.020  0.6768 -2.1261 -0.4743
  164RES   H16346129   6.370   7.430   5.101 -1.7825 -1.6615  0.5260
  164RES   H16446130   6.289   7.580   5.304 -1.3735 -0.4500  2.0391
  164RES   H16546131   6.255   7.338   5.332  0.7076 -1.3119 -2.2294
  164RES   H16646132   6.107   7.408   5.372  1.7179 -1.8619  1.4770
  164RES   H16746133   6.127   7.150   5.293 -1.2063 -3.3001 -1.7472
  164RES   H16846134   6.064   7.129   5.122 -1.8227 -1.4717  0.4899
  164RES   H16946135   5.964   7.208   5.246 -1.0746 -0.0559 -1.4043
  164RES   O17046136   6.121   7.636   5.209 -0.0996 -0.3000  0.5686
  164RES   C17146137   5.992   7.600   5.168  0.5653 -0.5845 -0.1306
  164RES   C17246138   5.892   7.720   5.146 -0.8454 -0.3398 -0.3718
  164RES   C17346139   5.745   7.679   5.168  0.2138  0.1523  0.2897
  164RES   O17446140   5.682   7.781   5.245 -0.7498 -0.0280 -0.5851
  164RES   C17546141   5.546   7.764   5.289 -0.1049  0.1077  0.0447
  164RES   H17646142   5.954   7.528   5.242 -0.0076  0.4490  0.5904
  164RES   H17746143   5.985   7.542   5.076  2.0922  0.2043 -0.7499
  164RES   H17846144   5.946   7.789   5.212  0.1357 -0.0785 -1.4195
  164RES   H17946145   5.696   7.663   5.072  0.4880  1.3933 -0.0780
  164RES   H18046146   5.738   7.585   5.221 -1.3793 -0.8173 -1.5850
  164RES   H18146147   5.490   7.780   5.197  0.8075  0.9490 -0.3752
  164RES   H18246148   5.526   0.010   5.376  0.4781  0.2364  0.0884
  164RES   H18346149   5.523   7.661   5.314 -1.0028  0.5612  1.1292
  164RES   O18446150   5.913   7.773   5.019  0.4314  0.6294 -0.5232
  164RES   C18546151   5.855   0.083   4.989 -0.1795  0.3008 -0.4746
  164RES   C18646152   5.926   0.207   5.041 -0.2123  0.7377 -0.3268
  164RES   C18746153   5.832   0.332   5.060  0.0978 -0.2403  0.1495
  164RES   O18846154   5.910   0.448   5.071 -0.5830 -0.3875  0.2477
  164RES   C18946155   6.002   0.450   5.172  0.0691  0.1055  0.1459
  164RES   H19046156   5.755   0.076   5.032  1.0832  1.7848  2.8384
  164RES   H19146157   5.839   0.088   4.881 -0.7940  0.9382 -0.3588
  164RES   H19246158   5.977   0.190   5.136 -1.6106  1.0851  0.4972
  164RES   H19346159   5.760   0.324   5.142  0.7204  2.1359  0.9708
  164RES   H19446160   5.777   0.333   4.966 -1.1899  0.1871  0.8933
  164RES   H19546161   6.079   0.374   5.185  1.9335  1.8038 -0.5485
  164RES   H19646162   6.058   0.540   5.144  0.2278  0.0397  0.2538
  164RES   H19746163   5.960   0.456   5.272  3.2243 -1.7890  1.6562
  164RES   O19846164   6.020   0.235   4.935  0.3115 -0.3602  0.1107
  164RES   C19946165   6.153   0.190   4.954 -0.0367 -0.2256  0.1090
  164RES   C20046166   6.227   0.223   4.824  0.6605 -0.4231 -0.1115
  164RES   C20146167   6.362   0.151   4.812 -0.0628  0.1524  0.6844
  164RES   O20246168   6.392   0.146   4.676 -1.2237  0.0501  0.2865
  164RES   C20346169   6.523   0.107   4.651  0.6756  0.2691  0.0144
  164RES   H20446170   6.147   0.085   4.982  0.7209  0.2750  2.2425
  164RES   H20546171   6.199   0.236   5.041 -0.1372  2.4155 -1.1675
  164RES   H20646172   6.172   0.189   4.736  0.8395 -0.2699 -0.2815
  164RES   H20746173   6.433   0.197   4.881  1.4463 -1.1167 -0.0028
  164RES   H20846174   6.347   0.047   4.840 -0.3230 -0.2480 -0.9079
  164RES   H20946175   6.520   0.071   4.548  0.7555  2.4172 -0.7709
  164RES   H21046176   6.544   0.027   4.722 -0.7545 -0.2090 -0.0909
  164RES   H21146177   6.593   0.191   4.659  0.3541  0.3528  2.3856
  164RES   O21246178   6.262   0.360   4.815 -0.0700 -0.0995 -0.4920
  164RES   C21346179   6.163   0.425   4.744 -0.1660  0.8162 -0.2222
  164RES   C21446180   6.204   0.570   4.724 -0.2114  0.1774 -0.0662
  164RES   C21546181   6.081   0.667   4.715 -0.1546  1.1488  0.1265
  164RES   O21646182   6.115   0.801   4.684  0.0297  0.8202  0.2210
  164RES   C21746183   6.017   0.869   4.613  0.1393  0.3420  0.2849
  164RES   H21846184   6.073   0.432   4.806 -0.9982 -0.6078 -1.2323
  164RES   H21946185   6.141   0.372   4.652  2.1455  0.4248 -0.5687
  164RES   H22046186   6.284   0.597   4.792 -0.8675 -1.3034  1.3042
  164RES   H22146187   6.034   0.615   4.631 -1.4855  1.5158  0.6277
  164RES   H22246188   6.023   0.654   4.807 -1.7773 -0.0974 -1.0408
  164RES   H22346189   5.994   0.808   4.526  0.8952  1.0641 -0.4257
  164RES   H22446190   6.050   0.968   4.581 -0.3553  0.8862  1.4361
  164RES   H22546191   5.933   0.881   4.682 -0.5420 -1.4215 -0.2248
  164RES   O22646192   6.265   0.571   4.592 -0.2657  0.0131  0.1180
  164RES   C22746193   6.359   0.670   4.579  0.2233  0.0644 -0.3048
  164RES   C22846194   6.353   0.701   4.429 -0.6980  0.9196 -0.4691
  164RES   C22946195   6.399   0.842   4.398 -0.2825 -0.1204  0.1850
  164RES   O23046196   6.403   0.881   4.260 -0.3426  0.8253  0.1834
  164RES   C23146197   6.518   0.826   4.194  0.5362  0.3467  0.2768
  164RES   H23246198   6.461   0.638   4.599  0.0250 -0.9022 -0.8245
  164RES   H23346199   6.343   0.757   4.643  1.5224 -0.8853  1.3591
  164RES   H23446200   6.249   0.692   4.397 -0.5625 -0.6544 -0.5484
  164RES   H23546201   6.492   0.859   4.453 -1.0937  0.8705  1.2728
  164RES   H23646202   6.341   0.919   4.448 -0.3999 -0.2246  0.2086
  164RES   H23746203   6.609   0.828   4.254  1.5106  0.3103 -1.1704
  164RES   H23846204   6.530   0.886   4.103 -0.4403  0.3288  0.1300
  164RES   H23946205   6.508   0.724   4.158  2.0678  0.2603  0.0452
  164RES   O24046206   6.431   0.608   4.352 -0.0267  0.1706  0.3880
  164RES   C24146207   6.365   0.487   4.306 -0.5819  1.0353 -0.2760
  164RES   C24246208   6.471   0.398   4.234  0.1859  0.1250 -0.3248
  164RES   C24346209   6.578   0.342   4.332 -0.0378  0.5903  0.3939
  164RES   O24446210   6.697   0.296   4.268 -0.2807  0.2630  0.0391
  164RES   C24546211   6.803   0.256   4.353  0.2413  0.1803 -1.0974
  164RES   H24646212   6.278   0.501   4.241 -0.8798  1.7249  0.2676
  164RES   H24746213   6.317   0.428   4.385  0.2291 -2.1766 -2.0947
  164RES   H24846214   6.522   0.447   4.151 -1.3778 -2.2754 -2.7867
  164RES   H24946215   6.598   0.413   4.413  0.4184 -2.3413  2.9661
  164RES   H25046216   6.525   0.261   4.382 -0.2889 -0.1079 -0.9733
  164RES   H25146217   6.854   0.341   4.399 -0.0927  0.5565 -1.4189
  164RES   H25246218   6.878   0.192   4.307  1.0009  0.1433  0.1473
  164RES   H25346219   6.752   0.194   4.427  0.4511  2.5116  1.0673
  164RES   O25446220   6.405   0.290   4.176 -0.5403 -0.0536 -0.5662
  164RES   C25546221   6.478   0.210   4.086 -0.4986  0.4952 -0.5901
  164RES   C25646222   6.376   0.126   4.003 -0.2717 -1.1512  1.0994
  164RES   C25746223   6.449   0.080   3.867  0.9000  0.1519 -0.0915
  164RES   O25846224   6.349   0.037   3.773 -0.1598  0.0265 -0.1121
  164RES   C25946225   6.410   7.782   3.665 -0.4105 -0.4707  0.2231
  164RES   H26046226   6.528   0.267   4.008  0.4939 -0.5243 -0.7013
  164RES   H26146227   6.560   0.160   4.137  0.5045  3.8028  1.2400
  164RES   H26246228   6.282   0.173   3.976  0.0180 -0.3513  1.4705
  164RES   H26346229   6.502   0.159   3.813 -0.0792  0.5728 -0.4439
  164RES   H26446230   6.519   7.814   3.879 -0.6957 -0.8384  2.8974
  164RES   H26546231   6.464   0.035   3.601 -1.1048  0.8901  1.0871
  164RES   H26646232   6.331   7.735   3.606 -1.4379 -1.3985  2.2558
  164RES   H26746233   6.473   7.696   3.686  0.2529 -0.4358 -1.5688
  164RES   O26846234   6.340   0.003   4.065 -0.0886  0.3743  0.3214
  164RES   C26946235   6.244   0.014   4.167  0.2415 -0.3806 -0.2751
  164RES   C27046236   6.224   7.695   4.238  0.0098  0.4788  0.5488
  164RES   C27146237   6.097   7.690   4.321  0.0045 -0.3491  0.0479
  164RES   O27246238   6.080   7.555   4.362  0.2858 -0.8241  0.0440
  164RES   C27346239   6.166   7.517   4.471 -0.7734 -0.3666 -0.4089
  164RES   H27446240   6.149   0.042   4.120 -0.4614 -1.9448  0.1719
  164RES   H27546241   6.266   0.095   4.236  1.2183  0.7425 -1.8665
  164RES   H27646242   6.226   7.616   4.163  1.6422  0.8967  0.1291
  164RES   H27746243   6.010   7.712   4.259  0.7893 -2.0597 -1.6973
  164RES   H27846244   6.095   7.743   4.416 -0.1315  0.8320 -0.5991
  164RES   H27946245   6.138   7.420   4.512 -1.7897 -0.4113 -1.1924
  164RES   H28046246   6.179   7.583   4.556  4.1047 -0.2526 -1.1059
  164RES   H28146247   6.270   7.506   4.438 -1.2365  0.9084 -2.3570
  164RES   H28246248   6.316   7.694   4.297  0.8777 -1.1405 -0.7975
  165RES     O146249   0.484   1.272   5.207  0.1885  0.0644 -0.2810
  165RES     C246250   0.581   1.356   5.261  0.1326 -0.3177  0.5121
  165RES     C346251   0.627   1.449   5.150 -0.2709 -0.1386  0.3753
  165RES     C446252   0.713   1.557   5.207 -0.4686  0.3735  0.4850
  165RES     O546253   0.736   1.670   5.126  0.2329  0.3250  0.2910
  165RES     C646254   0.820   1.767   5.190 -0.7357 -0.7082 -0.1421
  165RES     H746255   0.532   1.406   5.346  0.6693  0.9412  0.0951
  165RES     H846256   0.671   1.307   5.299  0.0775 -0.1078  0.9271
  165RES     H946257   0.531   1.476   5.106  1.6796 -1.5076 -5.2590
  165RES    H1046258   0.808   1.513   5.237 -0.4116  0.0538 -0.1480
  165RES    H1146259   0.653   1.595   5.289 -0.6032 -0.5821  0.8376
  165RES    H1246260   0.839   1.848   5.120  0.6540 -2.2307 -1.5891
  165RES    H1346261   0.784   1.826   5.274  0.9938 -1.1857  0.9594
  165RES    H1446262   0.916   1.725   5.219 -0.5239 -0.7624 -0.8973
  165RES    H1546263   0.526   1.222   5.138 -0.8544 -0.6115 -0.4434
  165RES    O1646264   0.694   1.360   5.060  0.1907 -0.5907 -0.2431
  165RES    C1746265   0.695   1.409   4.931  0.2191  0.3395 -0.1824
  165RES    C1846266   0.781   1.313   4.838  0.4813 -0.2307  0.6996
  165RES    C1946267   0.750   1.326   4.685  0.0304 -0.1310 -0.1257
  165RES    O2046268   0.798   1.219   4.598 -0.1523  0.1729  0.2179
  165RES    C2146269   0.883   1.274   4.495 -0.1099 -0.2923 -0.1639
  165RES    H2246270   0.740   1.508   4.930  1.3849 -0.1861 -0.9704
  165RES    H2346271   0.596   1.427   4.889  0.6435 -1.4706 -2.0389
  165RES    H2446272   0.766   1.208   4.861  0.9420 -0.4452  0.0604
  165RES    H2546273   0.641   1.330   4.687 -0.0592 -0.3917 -2.9675
  165RES    H2646274   0.773   1.427   4.650  0.6970 -1.0950 -2.5586
  165RES    H2746275   0.967   1.325   4.542 -0.7001 -0.8101  1.4821
  165RES    H2846276   0.830   1.341   4.428 -0.5078 -0.4345  0.0045
  165RES    H2946277   0.916   1.195   4.428  0.7862  0.0723 -0.1481
  165RES    O3046278   0.919   1.336   4.854  0.1218  0.0603  0.1750
  165RES    C3146279   0.964   1.288   4.982 -0.7366 -0.0556  0.1094
  165RES    C3246280   1.117   1.268   4.972 -0.2603 -0.9529  0.6229
  165RES    C3346281   1.179   1.162   5.069  0.0938  0.7616  0.4060
  165RES    O3446282   1.317   1.127   5.038 -0.2258 -0.4118  0.4671
  165RES    C3546283   1.366   1.004   5.102 -0.5675  0.1963 -0.4181
  165RES    H3646284   0.947   1.361   5.061 -2.2106 -2.2423  1.8639
  165RES    H3746285   0.912   1.195   5.003 -2.7116  0.5287 -1.9774
  165RES    H3846286   1.144   1.232   4.872  2.2546  0.6885  0.6664
  165RES    H3946287   1.127   1.068   5.051 -0.1995  0.4465  2.7738
  165RES    H4046288   1.158   1.184   5.174 -0.9950 -0.6221  0.4878
  165RES    H4146289   1.474   0.994   5.098 -0.4900  0.7723  0.1175
  165RES    H4246290   1.309   0.920   5.063 -2.3873 -0.8986  4.2620
  165RES    H4346291   1.333   1.012   5.206 -0.1609 -1.4163 -0.1535
  165RES    O4446292   1.176   1.397   4.994  0.4409 -0.5627 -0.5879
  165RES    C4546293   1.182   1.482   4.889  0.6402 -0.3414 -0.4242
  165RES    C4646294   1.310   1.459   4.808 -0.6650  0.7578 -0.2660
  165RES    C4746295   1.316   1.551   4.693 -0.0132  0.0870 -0.5144
  165RES    O4846296   1.311   1.689   4.727 -0.3731 -0.6322  0.2760
  165RES    C4946297   1.267   1.771   4.626  0.4949  0.1094 -0.7560
  165RES    H5046298   1.184   1.586   4.921 -1.6651 -0.6706  0.8602
  165RES    H5146299   1.098   1.475   4.820 -0.7081  1.1453  0.9980
  165RES    H5246300   1.323   1.355   4.780 -1.0405  0.4799  0.5745
  165RES    H5346301   1.401   1.527   4.628  1.2087 -0.9566  1.3956
  165RES    H5446302   1.229   1.521   4.635 -0.3806  1.8329 -0.9017
  165RES    H5546303   1.160   1.756   4.612  0.0152  1.6247  1.0878
  165RES    H5646304   1.312   1.736   4.533 -1.2121 -2.4453 -0.6875
  165RES    H5746305   1.305   1.869   4.656 -1.2800  0.4227  0.5556
  165RES    O5846306   1.423   1.498   4.882 -0.2263  0.5988 -0.1332
  165RES    C5946307   1.492   1.395   4.955  0.7964 -0.7851 -0.2534
  165RES    C6046308   1.628   1.445   5.019 -0.9440  0.6285  0.4344
  165RES    C6146309   1.706   1.324   5.077  0.9217  0.7660 -0.1141
  165RES    O6246310   1.846   1.349   5.075  0.0638 -0.4929  0.3008
  165RES    C6346311   1.915   1.235   5.124 -0.3521 -0.5266 -0.2296
  165RES    H6446312   1.510   1.320   4.878 -0.0175 -2.1021  0.8156
  165RES    H6546313   1.433   1.346   5.033  0.2564  0.9939  0.4871
  165RES    H6646314   1.680   1.498   4.940  2.1925  0.6610  2.4070
  165RES    H6746315   1.672   1.298   5.177 -0.9544  0.5430 -0.7930
  165RES    H6846316   1.681   1.235   5.019 -0.7210  0.5308  0.9435
  165RES    H6946317   1.863   1.151   5.079 -1.3530  0.6008 -1.2377
  165RES    H7046318   1.906   1.241   5.232  1.0594  2.7585 -0.2339
  165RES    H7146319   2.020   1.232   5.096 -0.2698 -0.4364  0.0623
  165RES    O7246320   1.596   1.524   5.134 -0.7277 -0.4816 -0.7204
  165RES    C7346321   1.690   1.618   5.174 -0.0056  0.2507 -0.1522
  165RES    C7446322   1.647   1.686   5.310 -0.3687  0.7428 -0.8570
  165RES    C7546323   1.683   1.841   5.316 -0.2027 -0.7102  0.7039
  165RES    O7646324   1.826   1.836   5.321  0.1141 -0.1369 -0.2632
  165RES    C7746325   1.884   1.971   5.311 -0.6469 -0.0765 -0.5877
  165RES    H7846326   1.787   1.571   5.189  0.9035  1.1950 -2.8140
  165RES    H7946327   1.683   1.693   5.095  1.0075  0.3918 -0.1142
  165RES    H8046328   1.538   1.691   5.312 -0.4288 -0.6226 -0.0498
  165RES    H8146329   1.636   1.891   5.401 -1.7632 -1.0814  0.0754
  165RES    H8246330   1.651   1.888   5.224  1.0952 -2.0681 -0.4669
  165RES    H8346331   1.992   1.965   5.323 -0.8032 -0.1651  0.8715
  165RES    H8446332   1.844   2.041   5.384  0.1839  0.0479 -0.2476
  165RES    H8546333   1.865   1.999   5.208  1.2355  2.0972 -0.3630
  165RES    O8646334   1.713   1.619   5.414 -0.0966  0.0657 -0.0107
  165RES    C8746335   1.606   1.595   5.513 -0.4912 -0.6490  0.6846
  165RES    C8846336   1.532   1.458   5.480 -0.0111  0.2125 -0.1216
  165RES    C8946337   1.633   1.348   5.503  0.2312 -0.4218 -0.2873
  165RES    O9046338   1.595   1.231   5.430 -0.1161  0.7383 -0.6137
  165RES    C9146339   1.679   1.121   5.463  0.1074  0.3982 -0.1594
  165RES    H9246340   1.646   1.587   5.614  0.9193  2.0373  0.3955
  165RES    H9346341   1.543   1.683   5.522 -0.0887 -0.2143 -0.5572
  165RES    H9446342   1.501   1.455   5.375  0.6903 -1.3156 -0.3040
  165RES    H9546343   1.733   1.380   5.471 -0.4022  2.3670  0.3979
  165RES    H9646344   1.632   1.324   5.609  1.6059 -1.2500 -0.4483
  165RES    H9746345   1.641   1.045   5.394  0.0891  0.6086 -0.3816
  165RES    H9846346   1.778   1.159   5.440 -0.0979  1.0063 -0.0417
  165RES    H9946347   1.687   1.085   5.566 -2.5846 -0.8805 -0.3327
  165RES   O10046348   1.428   1.445   5.580  0.0756  0.1861 -0.1454
  165RES   C10146349   1.352   1.323   5.573 -0.0710  0.3286  0.1357
  165RES   C10246350   1.220   1.341   5.647  1.0454  0.4807 -0.3547
  165RES   C10346351   1.179   1.195   5.693 -0.1007  0.3503  0.2006
  165RES   O10446352   1.084   1.207   5.796  0.0730 -0.0345 -0.1383
  165RES   C10546353   1.004   1.084   5.824  0.4261 -0.3827 -0.4525
  165RES   H10646354   1.415   1.243   5.614  0.0268 -0.1212 -0.8975
  165RES   H10746355   1.330   1.295   5.470  0.1251 -0.2062  0.2341
  165RES   H10846356   1.236   1.403   5.736  1.3954 -0.7488  0.4572
  165RES   H10946357   1.261   1.138   5.735  0.8204  1.0683 -0.5921
  165RES   H11046358   1.141   1.136   5.609 -0.8520  1.8692 -0.5431
  165RES   H11146359   1.071   1.001   5.847  0.6559 -0.3934 -1.1464
  165RES   H11246360   0.938   1.065   5.740 -1.1524  0.6797  0.5195
  165RES   H11346361   0.928   1.096   5.902  0.4496 -1.4449 -0.2570
  165RES   O11446362   1.114   1.391   5.565 -0.2278 -0.0648  0.2742
  165RES   C11546363   1.029   1.479   5.636 -0.6526 -0.3666 -0.1842
  165RES   C11646364   0.934   1.543   5.528 -0.0943  0.6634 -0.0245
  165RES   C11746365   0.821   1.617   5.605 -0.1621  0.4627 -0.3962
  165RES   O11846366   0.712   1.651   5.520 -0.0308  0.5538 -0.2492
  165RES   C11946367   0.595   1.691   5.590  0.0834  0.0757  0.5546
  165RES   H12046368   0.975   1.413   5.704  0.9176 -1.2927  0.1955
  165RES   H12146369   1.073   1.548   5.707 -1.1674  0.1018 -0.3242
  165RES   H12246370   0.894   1.463   5.465  0.1607 -0.1735  0.8561
  165RES   H12346371   0.782   1.545   5.677  1.4495  0.9347  0.9816
  165RES   H12446372   0.873   1.696   5.659 -2.0759  1.9547 -0.6691
  165RES   H12546373   0.522   1.612   5.602  1.4086 -1.3149 -0.2676
  165RES   H12646374   0.549   1.771   5.531  0.4432 -0.4682 -0.4816
  165RES   H12746375   0.616   1.736   5.687 -0.3584  0.7829  0.3265
  165RES   O12846376   1.010   1.649   5.453 -0.4045  0.1940 -0.0853
  165RES   C12946377   1.134   1.610   5.389  0.4169 -0.2327 -0.0380
  165RES   C13046378   1.196   1.732   5.329 -0.6603 -0.1452  0.8639
  165RES   C13146379   1.274   1.687   5.205  0.2115 -0.2213  0.6970
  165RES   O13246380   1.346   1.804   5.172 -0.1985  0.2851  0.0577
  165RES   C13346381   1.382   1.819   5.038  0.0167  0.5214 -0.3017
  165RES   H13446382   1.201   1.562   5.461  0.2384  1.0455  0.9932
  165RES   H13546383   1.115   1.539   5.308 -1.4772  0.2042  0.0199
  165RES   H13646384   1.113   1.798   5.302 -0.9996 -0.7564  0.3943
  165RES   H13746385   1.193   1.677   5.132 -1.6206  1.7753  2.3931
  165RES   H13846386   1.336   1.597   5.201 -2.5477 -2.2201  1.6969
  165RES   H13946387   1.453   1.899   5.019 -1.2104  1.9829  1.0345
  165RES   H14046388   1.429   1.730   4.996 -0.9258 -1.4753  2.6799
  165RES   H14146389   1.304   1.849   4.968 -1.6671  0.6408  1.5550
  165RES   O14246390   1.283   1.791   5.418 -0.3344 -0.2326 -0.5822
  165RES   C14346391   1.218   1.868   5.522  0.0252 -0.1712  0.6967
  165RES   C14446392   1.312   1.955   5.609 -0.6245  0.6674 -0.1964
  165RES   C14546393   1.256   1.990   5.747  0.5428  0.0966  0.3321
  165RES   O14646394   1.361   2.056   5.824  0.2906  0.7162 -0.4276
  165RES   C14746395   1.319   2.107   5.946 -0.2036 -0.3307  0.3637
  165RES   H14846396   1.137   1.924   5.475  0.9738  0.7364  0.1076
  165RES   H14946397   1.177   1.806   5.602 -0.1121 -1.7386 -0.5578
  165RES   H15046398   1.403   1.900   5.632 -0.7434  0.2975 -0.5967
  165RES   H15146399   1.208   1.909   5.802 -1.0192  0.7092 -0.1038
  165RES   H15246400   1.185   2.069   5.721 -1.6657 -2.1504 -0.6606
  165RES   H15346401   1.398   2.150   6.008 -0.0047  0.7962 -0.6528
  165RES   H15446402   1.270   2.028   6.003  1.1801 -0.7194  1.0233
  165RES   H15546403   1.247   2.189   5.936  1.5406  1.1429 -0.4157
  165RES   O15646404   1.354   2.078   5.554 -0.7105 -0.2962  0.1487
  165RES   C15746405   1.401   2.072   5.422  0.2866 -0.0236  0.5642
  165RES   C15846406   1.465   2.196   5.372  0.0062 -0.0379  0.0197
  165RES   C15946407   1.487   2.197   5.212 -0.0461 -0.0816 -0.9106
  165RES   O16046408   1.372   2.230   5.145 -0.5130 -0.5201 -0.1433
  165RES   C16146409   1.384   2.239   5.006  0.3406  0.2128 -0.4141
  165RES   H16246410   1.477   1.996   5.405  0.5030  0.1842  0.6041
  165RES   H16346411   1.326   2.035   5.352  0.2970 -0.1247  0.6082
  165RES   H16446412   1.411   2.282   5.411 -1.3227 -1.8706  2.3835
  165RES   H16546413   1.566   2.269   5.188 -2.1534  2.3373 -0.7620
  165RES   H16646414   1.524   2.101   5.176  1.6256  0.2238 -0.0745
  165RES   H16746415   1.291   2.270   4.958  1.1241 -1.1818 -2.8965
  165RES   H16846416   1.388   2.137   4.967  0.0395 -0.3176  0.8911
  165RES   H16946417   1.472   2.291   4.969  0.4158  1.0720  0.9373
  165RES   O17046418   1.593   2.225   5.431 -0.6549  0.6513 -0.2760
  165RES   C17146419   1.596   2.223   5.578  0.2317 -0.3474 -0.6040
  165RES   C17246420   1.717   2.307   5.627  0.5583  0.2638  0.4742
  165RES   C17346421   1.802   2.235   5.736 -0.4742  0.4136 -0.1895
  165RES   O17446422   1.939   2.275   5.728  0.0420 -0.0401  0.7639
  165RES   C17546423   2.016   2.176   5.781 -0.2480 -0.4825 -0.2920
  165RES   H17646424   1.616   2.121   5.610  1.7220  0.1596  0.1533
  165RES   H17746425   1.501   2.258   5.618 -0.6625  0.1119 -3.0243
  165RES   H17846426   1.784   2.330   5.545  0.7384  2.1998  1.1439
  165RES   H17946427   1.761   2.252   5.836  2.5293  1.0269  0.9848
  165RES   H18046428   1.808   2.131   5.701  1.2903  0.9560 -1.5563
  165RES   H18146429   2.113   2.226   5.772 -0.2194 -0.7218 -1.4531
  165RES   H18246430   2.023   2.082   5.727 -0.4328  0.0038 -1.1736
  165RES   H18346431   2.005   2.137   5.882 -2.1873 -0.4161 -0.4643
  165RES   O18446432   1.676   2.442   5.669  0.0655 -0.1761  0.1220
  165RES   C18546433   1.616   2.531   5.569  0.7248  0.1976  0.6899
  165RES   C18646434   1.600   2.676   5.608 -0.4957 -0.3468  0.3406
  165RES   C18746435   1.498   2.757   5.524  0.3322  0.0295  0.5070
  165RES   O18846436   1.447   2.857   5.612  0.1335  0.2344 -0.0065
  165RES   C18946437   1.333   2.921   5.564 -0.2823  0.3004 -0.4620
  165RES   H19046438   1.517   2.489   5.547  0.7824  0.3413  0.1364
  165RES   H19146439   1.678   2.521   5.480  0.1666 -2.9678  0.5950
  165RES   H19246440   1.570   2.662   5.712 -0.3785 -2.3546  0.1231
  165RES   H19346441   1.410   2.697   5.503  0.0601  0.6074 -0.0558
  165RES   H19446442   1.531   2.807   5.433  1.1430  0.4722  1.0402
  165RES   H19546443   1.250   2.854   5.542 -1.7192  1.8259  0.1845
  165RES   H19646444   1.293   2.999   5.629  2.1132  1.8697 -0.8213
  165RES   H19746445   1.350   2.975   5.470 -2.4426  1.3027 -0.3312
  165RES   O19846446   1.737   2.725   5.606 -0.5265  0.0208 -0.3267
  165RES   C19946447   1.759   2.834   5.688  0.2049 -0.0427 -0.1636
  165RES   C20046448   1.865   2.923   5.626 -0.4151  0.4173 -0.2933
  165RES   C20146449   1.943   3.005   5.726  0.5317 -0.1950 -0.3648
  165RES   O20246450   1.875   3.081   5.822  0.2645  0.0900 -0.5264
  165RES   C20346451   1.873   3.215   5.777  0.0591 -0.2074  0.2728
  165RES   H20446452   1.805   2.800   5.781 -0.7178 -2.2569 -0.5120
  165RES   H20546453   1.667   2.884   5.717  0.3629 -0.6677  1.5190
  165RES   H20646454   1.934   2.859   5.572  0.8245  1.0064  0.5571
  165RES   H20746455   2.006   2.933   5.778  1.4074  0.0514 -1.0604
  165RES   H20846456   2.022   3.060   5.675  1.4062 -1.3398 -0.2663
  165RES   H20946457   1.845   3.240   5.674 -1.5167  0.9047  0.9521
  165RES   H21046458   1.973   3.252   5.795 -0.2480  0.9833 -0.4173
  165RES   H21146459   1.806   3.279   5.834 -0.7210 -0.2746 -0.5553
  165RES   O21246460   1.815   3.031   5.542  0.2696  0.1947  0.4756
  165RES   C21346461   1.796   2.981   5.407  0.2139  0.5989  0.2391
  165RES   C21446462   1.709   3.070   5.312  0.2005 -0.0317 -0.4070
  165RES   C21546463   1.664   2.996   5.188  0.1406  0.3227  0.8778
  165RES   O21646464   1.542   3.051   5.135  0.3066  0.2583 -0.1804
  165RES   C21746465   1.469   2.955   5.065 -0.1992  0.1330 -0.0605
  165RES   H21846466   1.758   2.879   5.402  0.8337  0.3641  0.2581
  165RES   H21946467   1.895   2.971   5.362 -1.5818  1.5595 -4.1789
  165RES   H22046468   1.624   3.101   5.373  0.8360 -1.1412  1.0635
  165RES   H22146469   1.748   3.000   5.119  0.1155 -2.8791  0.5564
  165RES   H22246470   1.666   2.889   5.207  2.5366  0.4509  1.4292
  165RES   H22346471   1.528   2.912   4.983 -0.5171 -0.5521  0.0669
  165RES   H22446472   1.390   3.006   5.010 -1.6459 -1.9864 -0.0160
  165RES   H22546473   1.432   2.869   5.121 -2.1223  0.9236 -0.0889
  165RES   O22646474   1.782   3.186   5.272 -0.1595 -0.0087  0.0803
  165RES   C22746475   1.785   3.294   5.360  0.3522  0.7600  0.8386
  165RES   C22846476   1.680   3.395   5.315  0.1370  0.4102  0.5217
  165RES   C22946477   1.606   3.465   5.429  0.4393  0.0216 -0.0190
  165RES   O23046478   1.467   3.463   5.419  0.0471 -0.4122 -0.2940
  165RES   C23146479   1.398   3.514   5.535 -0.1627  0.7270 -0.1222
  165RES   H23246480   1.885   3.335   5.374  1.4219 -1.4826  0.0842
  165RES   H23346481   1.760   3.260   5.461  0.5744 -3.7492 -0.5197
  165RES   H23446482   1.606   3.353   5.246 -0.7339 -0.7345  2.1041
  165RES   H23546483   1.639   3.568   5.443 -0.0735  0.0798  0.8009
  165RES   H23646484   1.635   3.419   5.524 -2.0221  1.9527  1.7185
  165RES   H23746485   1.436   3.610   5.569  0.8780  0.4917 -0.5754
  165RES   H23846486   1.417   3.447   5.620 -0.5219  1.1573  0.2976
  165RES   H23946487   1.292   3.514   5.513  0.0936  1.9145 -1.4001
  165RES   O24046488   1.752   3.490   5.237 -0.4498 -0.3381 -0.2984
  165RES   C24146489   1.810   3.443   5.121 -0.1076  0.4202  0.6441
  165RES   C24246490   1.836   3.564   5.025  0.2562  0.4614 -0.1548
  165RES   C24346491   1.928   3.506   4.906  0.6094 -0.6338  0.4351
  165RES   O24446492   1.985   3.607   4.826 -0.1092  0.1423 -0.4948
  165RES   C24546493   2.092   3.571   4.737  0.4621 -0.9982 -0.6974
  165RES   H24646494   1.750   3.361   5.083  1.3591  0.6835 -2.3335
  165RES   H24746495   1.907   3.405   5.153  0.6299  1.8984  0.2458
  165RES   H24846496   1.883   3.648   5.076 -0.7557  0.2925  1.0955
  165RES   H24946497   2.006   3.452   4.959  2.0907 -1.0112 -2.0610
  165RES   H25046498   1.860   3.435   4.859 -1.0520 -0.5629  2.6201
  165RES   H25146499   2.053   3.516   4.652 -1.3383  1.2713 -1.3851
  165RES   H25246500   2.173   3.512   4.781  0.9257  0.0374 -0.1341
  165RES   H25346501   2.116   3.669   4.698 -4.1738  0.8816  0.7562
  165RES   O25446502   1.716   3.584   4.960  0.2700 -0.8289 -0.1701
  165RES   C25546503   1.647   3.697   5.005 -0.0308  0.4194 -0.7099
  165RES   C25646504   1.526   3.734   4.917  0.2281  0.0356  0.3822
  165RES   C25746505   1.428   3.823   4.997  0.3614 -0.0208 -0.5899
  165RES   O25846506   1.298   3.823   4.945  0.2534 -0.0032 -0.0042
  165RES   C25946507   1.205   3.837   5.053 -0.5865 -0.4727  0.0991
  165RES   H26046508   1.613   3.670   5.105  0.0929  2.3923 -0.0988
  165RES   H26146509   1.710   3.785   5.019 -1.7735  1.2998  1.9820
  165RES   H26246510   1.464   3.646   4.896  2.3338 -1.4739  0.3445
  165RES   H26346511   1.438   3.785   5.098  0.6671 -0.8779 -0.9387
  165RES   H26446512   1.462   3.927   5.005 -2.0482  0.6490  1.4287
  165RES   H26546513   1.198   3.747   5.115  1.1330 -1.5150 -1.1728
  165RES   H26646514   1.108   3.867   5.012  0.6567  1.3965 -1.5498
  165RES   H26746515   1.231   3.919   5.119 -3.4433  0.5221  0.0521
  165RES   O26846516   1.556   3.808   4.796 -0.2402  0.0729 -0.5401
  165RES   C26946517   1.603   3.722   4.703 -0.1175  0.7419  0.6675
  165RES   C27046518   1.637   3.813   4.580  0.5293  0.5784  0.0603
  165RES   C27146519   1.727   3.744   4.491 -0.8970 -0.0668  0.5165
  165RES   O27246520   1.775   3.831   4.391  0.2150 -0.2789 -0.3101
  165RES   C27346521   1.802   3.763   4.264 -0.5277 -1.0654  1.1120
  165RES   H27446522   1.536   3.639   4.685  1.9657 -0.5591 -1.4059
  165RES   H27546523   1.697   3.684   4.744  0.0088  0.5054  0.1609
  165RES   H27646524   1.549   3.833   4.519  1.1113  2.8452 -0.0998
  165RES   H27746525   1.666   3.668   4.442 -0.2231  0.7070 -1.5809
  165RES   H27846526   1.808   3.691   4.541  0.0518 -0.3945 -1.3226
  165RES   H27946527   1.884   3.811   4.212 -1.0254 -0.9726  0.3932
  165RES   H28046528   1.710   3.765   4.204 -0.5318 -1.5132  1.0995
  165RES   H28146529   1.826   3.657   4.273  0.7299 -0.8045  0.9258
  165RES   H28246530   1.671   3.911   4.615  1.1157 -0.4014  2.3398
  166RES     O146531   2.592   2.998   5.087  0.4943  0.4287  0.1704
  166RES     C246532   2.514   2.899   5.149  0.1192 -0.1888  0.2889
  166RES     C346533   2.596   2.770   5.168  0.2457  0.0472 -0.4294
  166RES     C446534   2.515   2.666   5.249 -0.3002  0.3651 -0.2079
  166RES     O546535   2.593   2.549   5.284 -0.4316  0.0688 -0.1549
  166RES     C646536   2.515   2.436   5.331  0.3069  0.1386  0.3938
  166RES     H746537   2.490   2.933   5.250 -0.6338  0.1223  0.0061
  166RES     H846538   2.427   2.870   5.091 -0.8847  0.9202  1.2331
  166RES     H946539   2.681   2.803   5.228  0.2527  0.6561 -0.7658
  166RES    H1046540   2.442   2.636   5.174  0.8533 -0.4653 -1.0126
  166RES    H1146541   2.462   2.702   5.337 -1.2488 -1.1542 -0.1426
  166RES    H1246542   2.411   2.440   5.297  0.4200  1.3084  0.1382
  166RES    H1346543   2.552   2.337   5.308  3.7058  1.1558  1.2456
  166RES    H1446544   2.520   2.450   5.439  0.0357 -0.2585  0.4572
  166RES    H1546545   2.635   2.963   5.011 -1.3925 -0.8973 -0.3450
  166RES    O1646546   2.640   2.736   5.035 -0.0943 -0.3477 -0.4829
  166RES    C1746547   2.743   2.636   5.043  0.1502 -0.6557 -0.4160
  166RES    C1846548   2.807   2.614   4.899 -0.1352  0.3946 -0.4952
  166RES    C1946549   2.702   2.551   4.806 -0.0278 -0.0896  0.7241
  166RES    O2046550   2.767   2.515   4.683  0.1935 -0.5181  0.2511
  166RES    C2146551   2.659   2.499   4.589  0.0307 -0.3292 -0.4339
  166RES    H2246552   2.708   2.540   5.080 -0.0948 -1.0154 -1.5373
  166RES    H2346553   2.813   2.668   5.120  0.2904 -1.7511 -0.0817
  166RES    H2446554   2.882   2.535   4.898 -0.5669 -0.0093 -1.1903
  166RES    H2546555   2.654   2.465   4.851 -4.6463  2.9896  2.1228
  166RES    H2646556   2.626   2.628   4.787 -0.1225 -1.0215 -3.0254
  166RES    H2746557   2.694   2.450   4.497  0.5847  0.5276 -0.6807
  166RES    H2846558   2.618   2.587   4.540  1.5640  0.6027 -0.0653
  166RES    H2946559   2.583   2.437   4.636 -0.9381 -1.5651 -3.5108
  166RES    O3046560   2.862   2.731   4.836  0.3703 -0.7014 -0.1271
  166RES    C3146561   2.987   2.756   4.875  0.3571  0.0466  0.3457
  166RES    C3246562   3.094   2.673   4.803  0.3202 -0.5889 -0.5643
  166RES    C3346563   3.224   2.671   4.897 -0.1839  0.2877  1.0810
  166RES    O3446564   3.315   2.573   4.840 -0.4066 -0.3205 -0.1385
  166RES    C3546565   3.407   2.620   4.742 -0.3673 -0.4478 -0.5974
  166RES    H3646566   3.003   2.862   4.855  0.2852 -0.3199 -1.8620
  166RES    H3746567   2.995   2.741   4.982  0.4069  0.6190  0.4271
  166RES    H3846568   3.069   2.567   4.805 -2.2015 -0.0214  0.6221
  166RES    H3946569   3.198   2.639   4.998  0.2057 -0.9603  0.7965
  166RES    H4046570   3.273   2.767   4.907 -2.1453  1.3142  1.0834
  166RES    H4146571   3.360   2.665   4.654  1.4674  2.3773 -0.1976
  166RES    H4246572   3.477   2.545   4.705  2.4775  1.2628  1.1075
  166RES    H4346573   3.481   2.690   4.779  0.4597 -1.7624  0.2709
  166RES    O4446574   3.129   2.732   4.670  0.5321 -0.5686 -0.4286
  166RES    C4546575   3.023   2.735   4.574 -1.5522  0.0883 -0.9561
  166RES    C4646576   3.075   2.766   4.429  0.2707 -0.7698 -0.3270
  166RES    C4746577   2.972   2.727   4.316  0.2184 -1.1120 -0.3429
  166RES    O4846578   3.050   2.747   4.199  0.0632 -0.1360  0.4306
  166RES    C4946579   2.995   2.858   4.129  0.3398 -0.2942  0.2826
  166RES    H5046580   2.957   2.819   4.598  0.0190  0.2636  2.9994
  166RES    H5146581   2.974   2.638   4.568 -0.4594 -0.4573 -1.1215
  166RES    H5246582   3.159   2.699   4.412  0.3910 -0.8246  0.4547
  166RES    H5346583   2.949   2.621   4.306 -0.3103 -0.9011 -1.3716
  166RES    H5446584   2.880   2.784   4.313  1.2138  0.5706  0.0993
  166RES    H5546585   2.920   2.816   4.062 -0.2288  0.3377  0.5272
  166RES    H5646586   3.067   2.903   4.060  0.9398  1.0574  1.7511
  166RES    H5746587   2.968   2.944   4.190 -1.1013  0.2389 -1.0694
  166RES    O5846588   3.119   2.901   4.419 -0.3821  0.1278  0.5638
  166RES    C5946589   3.251   2.909   4.368 -0.2982  0.0515  0.5890
  166RES    C6046590   3.305   3.057   4.354 -0.7979  0.4080 -0.0846
  166RES    C6146591   3.349   3.116   4.488  0.0809  0.5894 -0.2470
  166RES    O6246592   3.473   3.073   4.525  0.4422 -0.0875  0.0224
  166RES    C6346593   3.532   3.163   4.622 -0.6509 -0.1328 -0.3452
  166RES    H6446594   3.253   2.860   4.271  1.2560 -0.5015  0.8912
  166RES    H6546595   3.328   2.856   4.423 -1.2587 -1.9928 -0.0046
  166RES    H6646596   3.402   3.059   4.302 -1.1130  0.0985 -0.6901
  166RES    H6746597   3.339   3.224   4.487 -0.7098  0.5226 -0.5357
  166RES    H6846598   3.280   3.089   4.568  0.3600 -1.6259 -0.7119
  166RES    H6946599   3.549   3.266   4.590 -0.9566  0.8749  2.6103
  166RES    H7046600   3.625   3.116   4.654 -0.5747  0.2121 -0.0573
  166RES    H7146601   3.474   3.173   4.714 -1.3029  0.0119 -0.7650
  166RES    O7246602   3.195   3.125   4.303  0.2208 -0.4017 -0.8656
  166RES    C7346603   3.223   3.255   4.248 -0.1064 -0.2025 -0.5907
  166RES    C7446604   3.096   3.296   4.161 -0.2197 -0.6000  0.5572
  166RES    C7546605   3.120   3.391   4.052  0.4446  0.1898 -0.0040
  166RES    O7646606   3.001   3.402   3.979 -0.0680 -0.4085 -0.2035
  166RES    C7746607   3.018   3.479   3.865 -0.5723 -0.2945 -0.0027
  166RES    H7846608   3.243   3.332   4.322 -0.4718  0.0163 -0.7225
  166RES    H7946609   3.318   3.245   4.195 -0.4187  0.5550 -1.2973
  166RES    H8046610   3.054   3.202   4.126  1.1980 -1.6739  1.7051
  166RES    H8146611   3.193   3.346   3.984 -1.4200 -1.2351 -1.0920
  166RES    H8246612   3.153   3.491   4.082 -3.6415  1.4097  0.7381
  166RES    H8346613   3.065   3.575   3.882  1.8254 -1.3483 -0.4435
  166RES    H8446614   2.929   3.487   3.802  0.0614 -1.1249 -1.0317
  166RES    H8546615   3.089   3.435   3.794 -1.7576  1.0722 -2.1100
  166RES    O8646616   3.006   3.358   4.257 -0.2918 -0.1191 -0.1250
  166RES    C8746617   2.886   3.283   4.280  0.2452  0.6452  0.4754
  166RES    C8846618   2.823   3.345   4.409 -0.2017  0.1573 -0.0947
  166RES    C8946619   2.675   3.303   4.416  0.5551  0.4305  0.3701
  166RES    O9046620   2.619   3.350   4.541  0.4106  0.6139  0.2003
  166RES    C9146621   2.481   3.319   4.566  0.0365 -0.2673  0.1023
  166RES    H9246622   2.816   3.290   4.197  1.0197  2.7347 -0.0475
  166RES    H9346623   2.893   3.175   4.294  0.0626  0.5264 -0.2838
  166RES    H9446624   2.818   3.453   4.396  0.1587  0.3065  0.9351
  166RES    H9546625   2.615   3.335   4.331  0.0016 -3.4596 -0.8045
  166RES    H9646626   2.666   3.194   4.417  0.4505  0.4467  2.0185
  166RES    H9746627   2.447   3.334   4.669 -2.6140 -1.6307 -0.5419
  166RES    H9846628   2.421   3.375   4.494 -0.0553 -1.0073 -0.3983
  166RES    H9946629   2.455   3.217   4.541 -1.1421 -0.6927  2.8040
  166RES   O10046630   2.894   3.314   4.530 -0.4463  0.3956  0.3428
  166RES   C10146631   3.035   3.346   4.548 -0.1207 -0.5391  0.2451
  166RES   C10246632   3.059   3.342   4.701  0.1378  0.1094  0.4318
  166RES   C10346633   3.177   3.436   4.747 -0.4346  0.6626  0.3559
  166RES   O10446634   3.157   3.578   4.708  0.2911 -0.3856  0.6129
  166RES   C10546635   3.265   3.666   4.729  0.0207 -0.6065 -0.3029
  166RES   H10646636   3.044   3.449   4.513  0.4878 -0.6162  0.1681
  166RES   H10746637   3.093   3.272   4.493  0.2764 -0.1851  0.1891
  166RES   H10846638   2.968   3.372   4.753 -0.3462 -1.4046  0.4659
  166RES   H10946639   3.270   3.392   4.711  0.2675  0.4909  2.3225
  166RES   H11046640   3.187   3.424   4.854  2.2144  2.1526  0.3332
  166RES   H11146641   3.274   3.678   4.837 -0.2568 -0.3880 -0.3026
  166RES   H11246642   3.240   3.758   4.676 -3.3979 -1.9400 -1.1591
  166RES   H11346643   3.354   3.625   4.682  0.2497  0.7173 -1.0541
  166RES   O11446644   3.095   3.208   4.739  0.0391  0.2431 -0.3817
  166RES   C11546645   2.992   3.107   4.717 -0.1420 -0.3904 -0.3363
  166RES   C11646646   2.853   3.123   4.785 -0.0612 -0.3339 -0.0075
  166RES   C11746647   2.749   3.030   4.718  0.0018 -0.4728 -0.2854
  166RES   O11846648   2.623   3.034   4.774  0.3422  0.5041 -0.3627
  166RES   C11946649   2.539   2.928   4.728 -0.0265 -0.7721  0.3822
  166RES   H12046650   2.973   3.108   4.610 -1.4394 -0.9834 -0.1231
  166RES   H12146651   3.041   3.010   4.728 -1.3831 -0.8550  1.3350
  166RES   H12246652   2.820   3.227   4.785 -0.5085 -0.4437 -2.6226
  166RES   H12346653   2.745   3.046   4.610 -0.4787 -1.3370 -0.3996
  166RES   H12446654   2.779   2.926   4.728 -3.2315 -1.2109  2.8796
  166RES   H12546655   2.435   2.957   4.747  0.5895  1.9524 -0.1950
  166RES   H12646656   2.574   2.836   4.776  2.2454  0.3359  0.9476
  166RES   H12746657   2.553   2.927   4.620  0.0553  1.6380  0.3408
  166RES   O12846658   2.857   3.086   4.916  0.5500  0.9116 -0.0548
  166RES   C12946659   2.905   3.178   5.003 -0.4335 -0.6322 -0.0260
  166RES   C13046660   3.016   3.116   5.095  0.4699 -0.2723  0.1267
  166RES   C13146661   3.010   3.161   5.244  0.2665 -0.0377 -0.3184
  166RES   O13246662   3.060   3.055   5.321 -0.0582  0.2466  0.1436
  166RES   C13346663   3.035   3.076   5.461 -0.1205 -0.2399 -0.3696
  166RES   H13446664   2.954   3.257   4.945 -1.8465  1.1429  1.1397
  166RES   H13546665   2.832   3.232   5.062  0.0166  1.2385 -1.1297
  166RES   H13646666   3.001   3.008   5.096 -2.1145  0.0197 -1.5504
  166RES   H13746667   2.907   3.187   5.268 -0.0883 -0.7586 -1.0674
  166RES   H13846668   3.084   3.242   5.248  0.0172  0.1222  1.4708
  166RES   H13946669   3.022   2.973   5.493  0.3536 -0.1218  0.2085
  166RES   H14046670   3.131   3.113   5.496  0.4993 -2.4879  0.4107
  166RES   H14146671   2.954   3.143   5.489  1.8189  1.4909  1.2602
  166RES   O14246672   3.149   3.145   5.038 -0.2282  0.5579 -0.0765
  166RES   C14346673   3.241   3.032   5.063 -0.0191  0.4275 -0.3464
  166RES   C14446674   3.386   3.069   5.030 -0.2799  0.7489  0.3259
  166RES   C14546675   3.472   2.943   5.051  0.1657  0.4162  0.3215
  166RES   O14646676   3.573   2.937   4.953  0.1873  0.2489 -0.2036
  166RES   C14746677   3.636   2.809   4.969 -0.4185  0.1223  0.0317
  166RES   H14846678   3.214   2.990   5.160 -0.1985 -1.7010 -1.2913
  166RES   H14946679   3.222   2.951   4.993  1.0948  1.8830 -2.3707
  166RES   H15046680   3.405   3.095   4.926  1.0514  0.1096  0.3985
  166RES   H15146681   3.413   2.851   5.057  2.6660 -1.3105 -0.8345
  166RES   H15246682   3.523   2.961   5.146 -1.6956 -0.7938  1.5867
  166RES   H15346683   3.683   2.789   4.872 -1.6494  0.9416 -0.7497
  166RES   H15446684   3.569   2.729   4.999  0.2319  0.0432  1.3386
  166RES   H15546685   3.722   2.826   5.034 -0.1579  0.3777 -0.3761
  166RES   O15646686   3.430   3.171   5.120 -0.1257 -0.1455 -0.0684
  166RES   C15746687   3.534   3.256   5.065 -0.0731 -0.2711  0.5325
  166RES   C15846688   3.468   3.380   4.991  0.0069 -1.2518 -0.5653
  166RES   C15946689   3.576   3.451   4.906 -0.1918  0.3261  0.1764
  166RES   O16046690   3.529   3.562   4.830 -0.0541  0.4619  0.4952
  166RES   C16146691   3.626   3.635   4.765 -0.3552  0.1354  0.1252
  166RES   H16246692   3.601   3.297   5.140 -0.7624 -1.6146  1.9169
  166RES   H16346693   3.599   3.198   4.999 -0.4579 -0.3102  0.1881
  166RES   H16446694   3.389   3.351   4.921  0.0761 -0.5626 -0.9370
  166RES   H16546695   3.657   3.493   4.966  0.1333  0.7902 -0.5772
  166RES   H16646696   3.621   3.377   4.840  1.1469  0.9904  0.3233
  166RES   H16746697   3.650   3.718   4.833  1.7661  0.8223 -1.4256
  166RES   H16846698   3.586   3.702   4.689 -2.6941 -1.2390  0.1081
  166RES   H16946699   3.715   3.581   4.734  0.1911  0.0635  1.7324
  166RES   O17046700   3.425   3.487   5.084 -0.5634  0.2733 -0.1538
  166RES   C17146701   3.297   3.460   5.143  1.0847 -0.6507  0.2754
  166RES   C17246702   3.238   3.588   5.209 -0.8728  0.4933  0.2081
  166RES   C17346703   3.092   3.564   5.256  0.3777  0.2918  0.4724
  166RES   O17446704   3.092   3.499   5.379 -0.1784 -0.0387 -0.6519
  166RES   C17546705   2.963   3.461   5.425  0.1843  0.1516  0.2073
  166RES   H17646706   3.312   3.388   5.224 -2.4819 -0.1943  1.3936
  166RES   H17746707   3.232   3.413   5.070 -0.1454  0.5454  0.5962
  166RES   H17846708   3.286   3.617   5.302 -2.1403  1.4417  0.5925
  166RES   H17946709   3.056   3.665   5.275  1.3890  0.8123 -0.3086
  166RES   H18046710   3.031   3.504   5.188  1.1781  0.7568 -0.6715
  166RES   H18146711   2.896   3.543   5.451  0.4187  0.9445 -1.6166
  166RES   H18246712   2.976   3.395   5.510  1.3884  1.0472  0.7347
  166RES   H18346713   2.923   3.405   5.341  0.3303 -2.4680  1.8434
  166RES   O18446714   3.234   3.694   5.108  0.0481 -0.3986 -0.1388
  166RES   C18546715   3.356   3.775   5.095  0.4786 -0.2785 -0.5958
  166RES   C18646716   3.329   3.910   5.030 -0.0357 -0.5869 -0.0016
  166RES   C18746717   3.461   3.983   4.989  0.4076  0.3371 -0.8315
  166RES   O18846718   3.442   4.088   4.897  0.4495 -0.4786  1.0572
  166RES   C18946719   3.546   4.167   4.861 -0.8289 -0.1648 -0.4556
  166RES   H19046720   3.430   3.724   5.034  0.8851 -1.4333  0.8271
  166RES   H19146721   3.408   3.793   5.189 -0.8029  1.0684 -0.1287
  166RES   H19246722   3.251   3.903   4.954  0.2256 -0.0793 -0.3251
  166RES   H19346723   3.528   3.921   4.930 -1.0745 -1.0879 -1.0511
  166RES   H19446724   3.520   4.013   5.076 -1.1098  0.1873  0.2652
  166RES   H19546725   3.526   4.228   4.772 -1.6653 -2.2661 -1.7570
  166RES   H19646726   3.574   4.236   4.941 -1.4957 -1.2338  0.7081
  166RES   H19746727   3.634   4.104   4.847 -0.2981  0.5283 -0.3183
  166RES   O19846728   3.265   3.976   5.141  0.6157  0.4256  0.1956
  166RES   C19946729   3.202   4.100   5.101 -0.9393 -0.0365 -0.1626
  166RES   C20046730   3.134   4.174   5.217  0.1912  0.3542  0.2430
  166RES   C20146731   3.021   4.267   5.190 -0.6479  0.8593  1.3783
  166RES   O20246732   2.964   4.330   5.300 -0.1178 -0.5124  0.1584
  166RES   C20346733   2.898   4.239   5.379  0.7387 -1.1053  0.2972
  166RES   H20446734   3.127   4.069   5.029 -0.2863 -2.3289  0.0974
  166RES   H20546735   3.265   4.165   5.041 -1.5569 -1.7605 -2.7402
  166RES   H20646736   3.108   4.096   5.288 -0.4007 -0.6907 -1.0950
  166RES   H20746737   3.041   4.349   5.121 -1.0190 -2.5579 -3.0106
  166RES   H20846738   2.944   4.209   5.139  1.3112 -1.7797  1.2977
  166RES   H20946739   2.962   4.168   5.431  0.6845 -2.8197 -1.9388
  166RES   H21046740   2.805   4.205   5.333  0.7157  0.7055 -1.0373
  166RES   H21146741   2.858   4.290   5.467 -0.3776 -2.5185  0.6329
  166RES   O21246742   3.224   4.262   5.274 -0.1538  0.5565 -0.1035
  166RES   C21346743   3.346   4.202   5.325 -0.1027  0.4471  0.4489
  166RES   C21446744   3.397   4.279   5.447 -0.2096 -0.5431 -0.0161
  166RES   C21546745   3.553   4.267   5.464 -0.4638 -0.4614 -0.6144
  166RES   O21646746   3.622   4.376   5.388 -0.3697 -0.5537  0.0085
  166RES   C21746747   3.656   4.339   5.257 -0.0445 -0.7550  0.5057
  166RES   H21846748   3.426   4.195   5.251  0.4972  0.0322  1.1309
  166RES   H21946749   3.326   4.101   5.360 -0.4025  1.1615  2.4300
  166RES   H22046750   3.376   4.384   5.427 -1.2296 -0.4274  1.5956
  166RES   H22146751   3.579   4.298   5.566 -2.0307  0.9010 -0.6040
  166RES   H22246752   3.597   4.168   5.455  2.4125  0.7986 -0.8561
  166RES   H22346753   3.709   4.420   5.206  0.7682  0.4606  3.1898
  166RES   H22446754   3.563   4.344   5.201  0.2373 -1.7909 -0.0642
  166RES   H22546755   3.712   4.247   5.243 -0.0364 -0.7841  0.7264
  166RES   O22646756   3.322   4.233   5.562 -0.4673 -0.3236 -0.2997
  166RES   C22746757   3.206   4.312   5.578  0.3535 -0.0305  0.3345
  166RES   C22846758   3.133   4.288   5.708  0.3085 -0.0196  0.3277
  166RES   C22946759   3.044   4.407   5.746 -0.6827  0.0147  0.0465
  166RES   O23046760   3.040   4.421   5.889 -0.2474 -0.2127 -0.4702
  166RES   C23146761   2.972   4.535   5.935 -0.3613  0.2745  0.3909
  166RES   H23246762   3.130   4.306   5.500 -0.6555  2.7981  1.0518
  166RES   H23346763   3.243   4.414   5.581 -0.4611  0.2604  0.5755
  166RES   H23446764   3.208   4.277   5.787  0.5827  2.1862  0.4137
  166RES   H23546765   2.944   4.382   5.711  0.0009 -0.7652 -1.3923
  166RES   H23646766   3.074   4.493   5.687 -0.6553  1.2475  1.8156
  166RES   H23746767   2.956   4.534   6.043  1.1907  0.2803  0.6258
  166RES   H23846768   2.874   4.546   5.889 -0.6873 -2.9197  0.2168
  166RES   H23946769   3.035   4.621   5.915  1.2123 -0.7586  0.8676
  166RES   O24046770   3.057   4.165   5.689  0.3544 -0.2119  0.0670
  166RES   C24146771   2.993   4.122   5.809  0.4112 -0.3329 -0.3066
  166RES   C24246772   2.956   3.974   5.814  0.3271 -0.4333 -0.1085
  166RES   C24346773   2.947   3.940   5.963  0.2419  0.3760 -0.0691
  166RES   O24446774   2.990   3.805   5.970  0.0576 -0.1375  0.3282
  166RES   C24546775   2.977   3.737   6.094 -0.1707  0.2961  0.3856
  166RES   H24646776   2.898   4.175   5.811  0.5775 -0.0243 -0.6629
  166RES   H24746777   3.062   4.139   5.891  1.0074 -1.8301 -0.4959
  166RES   H24846778   3.042   3.922   5.771 -0.9340 -0.9962 -2.0281
  166RES   H24946779   3.018   3.996   6.023  0.2220 -1.6229  1.8514
  166RES   H25046780   2.846   3.947   6.002  0.6845 -1.5928  1.5067
  166RES   H25146781   2.878   3.767   6.127 -0.9677  1.2506 -2.7420
  166RES   H25246782   3.040   3.772   6.176 -0.5575  0.7741  0.4828
  166RES   H25346783   2.979   3.629   6.081  1.8293  0.3873 -0.2698
  166RES   O25446784   2.848   3.934   5.737  1.1745  0.0591 -0.2467
  166RES   C25546785   2.851   3.955   5.597 -0.2800  0.0858 -0.4202
  166RES   C25646786   2.736   3.886   5.521 -0.1992 -0.2195  0.2179
  166RES   C25746787   2.601   3.928   5.582 -0.3962 -0.6380 -0.4207
  166RES   O25846788   2.499   3.832   5.550 -0.2977  0.1821  0.5058
  166RES   C25946789   2.383   3.831   5.630 -0.2346  0.3602 -0.5620
  166RES   H26046790   2.850   4.063   5.580 -2.7248  0.6034  2.6281
  166RES   H26146791   2.945   3.913   5.561 -1.2765 -1.3578 -1.3835
  166RES   H26246792   2.746   3.778   5.539  3.3409  0.0571  0.2560
  166RES   H26346793   2.607   3.925   5.691  0.1248  0.7107 -0.4052
  166RES   H26446794   2.589   4.029   5.542 -0.1315 -0.2246  0.5095
  166RES   H26546795   2.407   3.803   5.732 -0.6763 -0.0181 -0.5573
  166RES   H26646796   2.309   3.758   5.597  1.7394 -1.9707  0.1181
  166RES   H26746797   2.339   3.931   5.632 -0.5951  0.1912 -0.0683
  166RES   O26846798   2.739   3.929   5.381 -0.6909  0.8511 -0.6264
  166RES   C26946799   2.838   3.861   5.299  0.1896 -0.3486 -0.3335
  166RES   C27046800   2.829   3.900   5.151  0.1415  0.3360 -0.1983
  166RES   C27146801   2.913   3.805   5.054 -0.1236 -0.2553 -0.0237
  166RES   O27246802   2.859   3.672   5.058 -0.3462 -0.4915 -0.4545
  166RES   C27346803   2.906   3.589   4.956 -0.7398 -0.3696 -0.0741
  166RES   H27446804   2.846   3.752   5.305  0.3978 -0.3894 -1.2507
  166RES   H27546805   2.937   3.894   5.332  0.1203 -0.9321  0.4586
  166RES   H27646806   2.725   3.900   5.119  0.1836 -1.4926 -0.3566
  166RES   H27746807   3.019   3.791   5.077 -0.3203 -0.9844  0.4414
  166RES   H27846808   2.903   3.842   4.951  1.6871 -0.0489 -0.1446
  166RES   H27946809   3.015   3.580   4.946 -0.8955 -0.6183 -1.7329
  166RES   H28046810   2.862   3.613   4.860 -0.7037  0.4088  0.0999
  166RES   H28146811   2.865   3.490   4.975  0.7589 -0.9717  0.1705
  166RES   H28246812   2.880   3.996   5.139  0.9970 -0.1303 -0.3269
  167RES     O146813   2.903   0.711   0.509  0.2983  0.7452  0.7601
  167RES     C246814   2.971   0.709   0.634 -0.0137  0.0784 -0.8205
  167RES     C346815   2.898   0.630   0.743  0.6181 -0.3184  0.6815
  167RES     C446816   2.995   0.544   0.826 -0.4518 -0.5001  0.4110
  167RES     O546817   2.932   0.453   0.915 -0.4151  0.2817 -0.6921
  167RES     C646818   3.037   0.385   0.991 -0.0359  0.2019  0.1467
  167RES     H746819   3.070   0.669   0.608  0.8999  1.3874  0.5469
  167RES     H846820   2.973   0.816   0.655 -0.5278  0.0320 -0.5497
  167RES     H946821   2.829   0.563   0.692 -1.6051  1.3453  1.4374
  167RES    H1046822   3.064   0.611   0.877 -2.9660  1.5272  1.2046
  167RES    H1146823   3.046   0.485   0.749  0.4175  0.0276  0.5729
  167RES    H1246824   2.972   0.315   1.043  0.1904  1.6382  2.4185
  167RES    H1346825   3.104   0.331   0.924  0.0641  1.0726 -0.4731
  167RES    H1446826   3.075   0.454   1.067 -1.8553  0.3298  0.9715
  167RES    H1546827   2.820   0.751   0.531  0.0493  0.7232 -0.1174
  167RES    O1646828   2.833   0.722   0.835 -0.1292  0.7097 -0.1144
  167RES    C1746829   2.696   0.697   0.887 -0.6880  0.1222 -0.6818
  167RES    C1846830   2.586   0.699   0.784 -0.6919  0.7506 -0.5356
  167RES    C1946831   2.455   0.659   0.863  0.5550  0.2774  0.3006
  167RES    O2046832   2.359   0.612   0.775  0.0397  0.4310  0.1407
  167RES    C2146833   2.250   0.568   0.851 -0.2254 -0.1744  0.0817
  167RES    H2246834   2.677   0.763   0.971 -1.7898  0.9816 -1.6057
  167RES    H2346835   2.695   0.595   0.926 -1.4565  1.1129  2.0426
  167RES    H2446836   2.596   0.627   0.703 -0.8929 -2.3913  2.0880
  167RES    H2546837   2.483   0.578   0.931  0.8402 -1.8066 -2.2126
  167RES    H2646838   2.415   0.738   0.926  0.3465 -1.7808  2.8073
  167RES    H2746839   2.258   0.489   0.925  0.7688  0.1577  0.3420
  167RES    H2846840   2.174   0.532   0.782 -1.1732  2.7192 -0.4550
  167RES    H2946841   2.209   0.654   0.903 -0.1861 -0.4280  0.5338
  167RES    O3046842   2.594   0.833   0.735  1.2614  0.5279 -0.1155
  167RES    C3146843   2.520   0.848   0.614  0.2285 -0.0110  0.4444
  167RES    C3246844   2.542   0.987   0.554  0.1894  0.2459  0.4455
  167RES    C3346845   2.442   1.004   0.440  0.0557  0.4021  0.2326
  167RES    O3446846   2.448   1.135   0.375 -0.1583  0.0226 -0.3503
  167RES    C3546847   2.347   1.155   0.276 -0.5320 -0.4691 -0.4360
  167RES    H3646848   2.547   0.771   0.541  0.1949 -0.3307  0.7655
  167RES    H3746849   2.415   0.836   0.639 -0.2144  0.8214 -1.0005
  167RES    H3846850   2.523   1.068   0.624  0.1298  1.2677 -0.7389
  167RES    H3946851   2.343   0.977   0.478  0.7007 -3.8073 -0.8062
  167RES    H4046852   2.462   0.923   0.369 -0.6136 -1.6167  2.3045
  167RES    H4146853   2.363   1.246   0.219 -0.5753  1.1177  2.0255
  167RES    H4246854   2.245   1.146   0.314 -0.5330 -1.3606 -0.6323
  167RES    H4346855   2.366   1.085   0.194  2.1996  1.1121 -1.2143
  167RES    O4446856   2.677   0.990   0.507  0.4003 -0.1467 -0.5471
  167RES    C4546857   2.761   1.072   0.588  0.4452 -0.3131 -0.1438
  167RES    C4646858   2.888   1.107   0.507 -0.4056 -0.4159 -0.5265
  167RES    C4746859   2.869   1.217   0.408  0.4020 -0.0364 -0.2903
  167RES    O4846860   2.986   1.226   0.324 -0.1987 -0.0117  0.1922
  167RES    C4946861   2.993   1.353   0.258  0.4021  0.3040 -0.9990
  167RES    H5046862   2.789   1.012   0.674  0.0504  0.6317  0.6526
  167RES    H5146863   2.718   1.167   0.620 -1.0763 -0.7992 -0.6738
  167RES    H5246864   2.924   1.015   0.461  2.0453  0.3190 -0.1357
  167RES    H5346865   2.784   1.197   0.342 -1.4609 -1.2140  2.3731
  167RES    H5446866   2.855   1.305   0.471  2.4396  0.1681 -0.1045
  167RES    H5546867   3.006   1.437   0.325 -1.5111 -0.4264  0.3077
  167RES    H5646868   2.902   1.375   0.203  0.7035 -1.3663 -2.2229
  167RES    H5746869   3.079   1.352   0.190  2.0948  0.2091  1.1015
  167RES    O5846870   2.988   1.151   0.603  0.0667 -0.2291  0.0356
  167RES    C5946871   3.123   1.147   0.555 -0.2204 -0.6881  0.4411
  167RES    C6046872   3.228   1.146   0.673  0.3418 -0.6059 -0.2139
  167RES    C6146873   3.223   1.002   0.745 -0.4803  0.0368 -0.0757
  167RES    O6246874   3.342   0.964   0.811 -0.6729 -0.2179 -0.0300
  167RES    C6346875   3.327   0.828   0.864 -0.5711 -0.4529  0.6429
  167RES    H6446876   3.141   1.234   0.492 -0.1141 -1.1334 -0.1454
  167RES    H6546877   3.132   1.056   0.497  1.0555  0.5679 -1.3900
  167RES    H6646878   3.325   1.184   0.641 -0.7212  0.5586 -2.1314
  167RES    H6746879   3.136   0.989   0.810 -0.4806  0.9743  0.1241
  167RES    H6846880   3.206   0.926   0.670  0.2500 -0.0276 -0.1705
  167RES    H6946881   3.251   0.840   0.941 -1.8131  0.1659 -0.6441
  167RES    H7046882   3.418   0.793   0.912 -1.4861 -0.2923  2.5334
  167RES    H7146883   3.294   0.763   0.783 -1.1162  1.8823 -1.0794
  167RES    O7246884   3.176   1.245   0.766 -0.4359 -0.0354  0.6891
  167RES    C7346885   3.229   1.254   0.901 -0.4834 -0.1552  0.0977
  167RES    C7446886   3.238   1.399   0.956 -0.4432 -0.2153  0.5715
  167RES    C7546887   3.323   1.398   1.085 -0.3647 -0.1013  0.2819
  167RES    O7646888   3.369   1.524   1.123  0.0243  0.1657  0.5517
  167RES    C7746889   3.412   1.519   1.256  0.6899 -0.0390 -0.2691
  167RES    H7846890   3.170   1.192   0.968  0.7959 -1.3936  0.1039
  167RES    H7946891   3.324   1.201   0.902 -1.1532 -1.3821 -1.0308
  167RES    H8046892   3.279   1.468   0.882 -1.5389 -0.1529  0.0088
  167RES    H8146893   3.401   1.323   1.078  0.2079  0.3699  1.4628
  167RES    H8246894   3.255   1.359   1.162 -0.6765  0.4706  0.2968
  167RES    H8346895   3.451   1.619   1.275 -1.5112  0.7564  0.1262
  167RES    H8446896   3.500   1.454   1.267 -1.1879 -2.6854 -0.4946
  167RES    H8546897   3.340   1.494   1.334  1.9302 -2.8366  0.0354
  167RES    O8646898   3.104   1.426   0.999 -0.1718 -0.0062  0.2664
  167RES    C8746899   3.015   1.486   0.901  0.0124  0.3560 -0.3009
  167RES    C8846900   2.875   1.440   0.932 -0.2406 -0.5858 -0.2682
  167RES    C8946901   2.872   1.287   0.948  0.3102 -0.6075 -0.5075
  167RES    O9046902   2.741   1.236   0.944  0.0869 -0.4594 -0.1265
  167RES    C9146903   2.736   1.099   0.986  0.0042  0.1900 -0.1389
  167RES    H9246904   3.019   1.594   0.913  0.9126  0.3595 -0.5731
  167RES    H9346905   3.045   1.458   0.800 -0.2362 -0.0704 -0.2586
  167RES    H9446906   2.819   1.463   0.842 -2.6675  1.7142  1.7586
  167RES    H9546907   2.929   1.236   0.871  0.4380 -0.4565 -0.5130
  167RES    H9646908   2.927   1.251   1.035 -0.0218 -0.9033 -0.4189
  167RES    H9746909   2.785   1.090   1.083  1.4302  0.6978 -0.7885
  167RES    H9846910   2.635   1.060   0.991 -0.6903  1.8909 -0.6742
  167RES    H9946911   2.784   1.036   0.910  1.2765  2.0140 -0.8828
  167RES   O10046912   2.818   1.513   1.049  0.0056 -0.3613  0.3541
  167RES   C10146913   2.867   1.479   1.175  0.3200 -0.1790  0.4753
  167RES   C10246914   2.775   1.529   1.283 -0.5285 -0.5341  0.7141
  167RES   C10346915   2.817   1.472   1.422 -0.3002  0.4360  0.4798
  167RES   O10446916   2.762   1.533   1.540  0.2205  0.0063 -0.3756
  167RES   C10546917   2.819   1.659   1.577  0.3349 -0.5376 -0.4419
  167RES   H10646918   2.963   1.530   1.187  0.3209 -0.0208 -0.2342
  167RES   H10746919   2.887   1.373   1.193  0.5339 -0.3023 -0.5049
  167RES   H10846920   2.772   1.638   1.275  0.8542 -0.5405 -0.2516
  167RES   H10946921   2.926   1.470   1.429 -0.1835  1.5494 -0.7658
  167RES   H11046922   2.792   1.366   1.416 -0.1594  0.5092 -2.4696
  167RES   H11146923   2.746   1.736   1.603 -2.3893 -3.1069 -0.2769
  167RES   H11246924   2.879   1.710   1.501  0.4341  0.8493  0.5649
  167RES   H11346925   2.884   1.645   1.663  0.7896  1.0390 -0.5063
  167RES   O11446926   2.646   1.499   1.240  0.3991  1.0857  0.1043
  167RES   C11546927   2.538   1.558   1.313  1.0232 -0.0714  0.3379
  167RES   C11646928   2.414   1.527   1.236 -0.5768 -0.3423 -0.2671
  167RES   C11746929   2.294   1.564   1.317 -0.1036  0.0095  0.5773
  167RES   O11846930   2.177   1.508   1.258 -0.2085 -0.2348  0.2958
  167RES   C11946931   2.058   1.518   1.336 -0.4414 -0.3756  0.7628
  167RES   H12046932   2.538   1.514   1.412 -3.6555 -1.5481 -0.2070
  167RES   H12146933   2.553   1.666   1.309  1.5192 -0.1546 -0.1827
  167RES   H12246934   2.410   1.419   1.222  1.0960 -0.4900  0.2742
  167RES   H12346935   2.312   1.527   1.417  1.4722  1.6114  0.9022
  167RES   H12446936   2.277   1.671   1.309  2.7434  0.2830 -3.4167
  167RES   H12546937   2.009   1.610   1.306 -1.7942 -1.6437 -1.0822
  167RES   H12646938   2.071   1.510   1.444  1.4373 -0.9445  0.5072
  167RES   H12746939   2.000   1.434   1.296 -0.9522  0.5024 -0.3708
  167RES   O12846940   2.400   1.578   1.106 -0.0921  0.2996  0.3788
  167RES   C12946941   2.507   1.564   1.013  0.2912 -0.4786  0.2666
  167RES   C13046942   2.446   1.594   0.877 -0.8570  0.1642  0.1987
  167RES   C13146943   2.535   1.542   0.755 -0.3646 -0.5591  0.2655
  167RES   O13246944   2.449   1.518   0.644  0.1346 -0.2384 -0.1898
  167RES   C13346945   2.513   1.455   0.540  0.5787  0.1061 -0.0777
  167RES   H13446946   2.592   1.632   1.024  0.4982 -0.7805  0.5321
  167RES   H13546947   2.542   1.461   1.008 -0.3902 -0.6242 -2.0404
  167RES   H13646948   2.351   1.541   0.872  0.6723 -2.7057  0.7652
  167RES   H13746949   2.583   1.450   0.789  0.0422 -0.9760 -1.4057
  167RES   H13846950   2.609   1.619   0.731 -0.0413 -0.6062  1.0954
  167RES   H13946951   2.443   1.438   0.458 -2.1298 -0.2765  2.2746
  167RES   H14046952   2.603   1.510   0.512  0.6925  0.6853  1.3833
  167RES   H14146953   2.538   1.353   0.569 -2.1926 -0.5503  0.0707
  167RES   O14246954   2.444   1.731   0.860 -0.5650 -0.2895  0.0512
  167RES   C14346955   2.318   1.792   0.901  1.0682 -0.5969  0.2184
  167RES   C14446956   2.336   1.949   0.916  0.6370  0.4497  0.0708
  167RES   C14546957   2.383   2.014   0.792  0.0582  0.5217  0.1480
  167RES   O14646958   2.339   2.151   0.788  0.1227  0.5303  0.4004
  167RES   C14746959   2.432   2.245   0.835  0.1249  0.2366  0.2565
  167RES   H14846960   2.237   1.768   0.833  1.0954  0.1391 -0.0811
  167RES   H14946961   2.281   1.752   0.995  0.2671  1.5672  0.8472
  167RES   H15046962   2.237   1.990   0.936  0.3801 -0.2010  0.1376
  167RES   H15146963   2.341   1.961   0.707 -0.6764 -2.5659  2.3291
  167RES   H15246964   2.491   2.005   0.778 -0.0323  1.7977 -1.5453
  167RES   H15346965   2.453   2.212   0.936  0.2947  1.0985  0.5033
  167RES   H15446966   2.385   2.343   0.826 -0.6947 -0.2846 -1.4708
  167RES   H15546967   2.527   2.246   0.780 -1.5666  0.8743 -2.7916
  167RES   O15646968   2.419   1.992   1.026  0.2486  0.1162 -0.2521
  167RES   C15746969   2.374   1.943   1.154 -0.0204  0.7539 -0.6309
  167RES   C15846970   2.399   2.056   1.263 -0.0663  0.7675 -0.3938
  167RES   C15946971   2.435   1.995   1.399  0.3089  0.3879 -0.3015
  167RES   O16046972   2.369   1.871   1.437 -0.1482 -0.1339 -0.7722
  167RES   C16146973   2.426   1.828   1.558 -0.1170  0.1656 -0.2114
  167RES   H16246974   2.266   1.932   1.154 -0.2303  2.4779 -3.0250
  167RES   H16346975   2.417   1.845   1.175 -1.4489  0.1254 -0.6033
  167RES   H16446976   2.492   2.108   1.238  0.8054  0.6791  2.4184
  167RES   H16546977   2.537   1.966   1.373 -0.1686 -1.2349 -0.3703
  167RES   H16646978   2.466   2.062   1.479 -0.6098  0.4312  0.0209
  167RES   H16746979   2.516   1.773   1.529 -1.2920 -1.1580 -1.4637
  167RES   H16846980   2.355   1.762   1.608  1.1961 -0.9402  0.2386
  167RES   H16946981   2.458   1.907   1.625 -1.7589  0.8798 -0.2503
  167RES   O17046982   2.288   2.137   1.279  0.0584  0.3957 -0.6282
  167RES   C17146983   2.307   2.256   1.207  0.2753  0.5018  0.2986
  167RES   C17246984   2.185   2.350   1.213 -0.3036  0.4358 -0.0646
  167RES   C17346985   2.164   2.430   1.084 -0.6074 -0.1632 -0.7951
  167RES   O17446986   2.281   2.494   1.040  0.1671 -0.1063 -0.6001
  167RES   C17546987   2.253   2.547   0.914  0.7502  0.4856 -0.2621
  167RES   H17646988   2.330   2.223   1.105 -1.7218  0.7953 -0.2842
  167RES   H17746989   2.383   2.315   1.257 -2.2739  1.9620  2.5453
  167RES   H17846990   2.093   2.291   1.222  0.2939 -0.6749 -1.1404
  167RES   H17946991   2.146   2.348   1.014 -1.7341 -0.6042 -0.0055
  167RES   H18046992   2.079   2.497   1.095  0.5071  1.2975 -0.9207
  167RES   H18146993   2.345   2.591   0.877  1.7642 -1.4372 -0.0549
  167RES   H18246994   2.182   2.629   0.926  1.3251  0.8489  0.6328
  167RES   H18346995   2.213   2.484   0.834  1.0154  1.1239 -0.9094
  167RES   O18446996   2.214   2.435   1.324 -0.3215  0.4368  0.0911
  167RES   C18546997   2.181   2.379   1.453 -0.5364 -0.0730  0.1038
  167RES   C18646998   2.223   2.479   1.553 -0.0547  0.2812  0.0842
  167RES   C18746999   2.192   2.430   1.698 -0.2191 -0.1508 -0.5983
  167RES   O18847000   2.053   2.433   1.714  0.7465  0.4713  0.1951
  167RES   C18947001   2.012   2.341   1.816  0.2344  0.3468 -0.4533
  167RES   H19047002   2.240   2.288   1.464  0.8942  0.6523 -1.4142
  167RES   H19147003   2.075   2.353   1.453 -1.2074  2.5369  0.1827
  167RES   H19247004   2.332   2.476   1.549 -0.0320  1.2555 -0.0750
  167RES   H19347005   2.240   2.494   1.773  1.7929 -1.3737 -0.7972
  167RES   H19447006   2.246   2.336   1.708 -0.4865 -0.0463  2.5517
  167RES   H19547007   2.059   2.244   1.798 -0.0637  0.0124  0.5524
  167RES   H19647008   2.041   2.360   1.919  3.9830 -0.5749 -1.2265
  167RES   H19747009   1.907   2.317   1.800  1.0928 -3.2400 -1.3377
  167RES   O19847010   2.173   2.608   1.538 -0.3112 -0.7595 -0.7708
  167RES   C19947011   2.275   2.706   1.530  0.5725  0.6603  0.6679
  167RES   C20047012   2.232   2.847   1.584 -0.2192  0.3494  0.2704
  167RES   C20147013   2.315   2.968   1.541  0.0728 -0.0162  0.4384
  167RES   O20247014   2.298   2.997   1.406 -0.0154  0.0194 -1.1202
  167RES   C20347015   2.307   3.133   1.375  0.0306  0.0452 -0.2627
  167RES   H20447016   2.307   2.715   1.426 -3.8230  0.3741 -0.8448
  167RES   H20547017   2.358   2.681   1.595 -0.0668 -1.0110  0.8678
  167RES   H20647018   2.135   2.875   1.542 -0.8658  0.8006  1.9854
  167RES   H20747019   2.282   3.054   1.599 -2.9106 -0.3621 -0.6588
  167RES   H20847020   2.422   2.960   1.563  0.4791 -0.1765 -1.5137
  167RES   H20947021   2.275   3.154   1.273 -1.0649  2.2301  0.5153
  167RES   H21047022   2.411   3.165   1.370  0.2423 -0.3058  1.4122
  167RES   H21147023   2.252   3.210   1.430 -0.5006 -0.4056 -0.1599
  167RES   O21247024   2.232   2.862   1.729  0.0723 -0.2954  0.1709
  167RES   C21347025   2.118   2.812   1.789  0.3292  0.4450  0.1328
  167RES   C21447026   2.136   2.823   1.938 -0.3640 -0.4504 -0.0602
  167RES   C21547027   2.007   2.772   2.012  0.0031 -0.1049 -0.1559
  167RES   O21647028   2.022   2.723   2.142 -0.3391  0.1503  0.1094
  167RES   C21747029   1.921   2.625   2.171 -0.1366  0.0556  0.0109
  167RES   H21847030   2.101   2.709   1.758  1.7907  0.8458 -2.0953
  167RES   H21947031   2.033   2.875   1.762 -0.5875  0.7852  3.5723
  167RES   H22047032   2.220   2.755   1.957  1.2107  1.6238  0.5652
  167RES   H22147033   1.938   2.856   2.022  1.1168  0.8539 -0.4257
  167RES   H22247034   1.955   2.697   1.951 -0.4574 -0.7812  1.0518
  167RES   H22347035   1.820   2.650   2.140  0.7938  0.6283 -2.7225
  167RES   H22447036   1.915   2.605   2.278 -0.6039  1.8146  0.3405
  167RES   H22547037   1.943   2.524   2.136 -1.6218 -0.9103  1.7749
  167RES   O22647038   2.154   2.961   1.963  0.3009 -0.1303 -0.5379
  167RES   C22747039   2.156   3.008   2.097 -0.1733  0.3550  0.7372
  167RES   C22847040   2.173   3.159   2.106 -0.3538 -0.6291  0.4372
  167RES   C22947041   2.169   3.222   2.237  0.3789 -0.8428  0.5918
  167RES   O23047042   2.171   3.364   2.236 -0.2531  0.5953 -0.8296
  167RES   C23147043   2.137   3.419   2.363  1.3122  0.2912 -0.6450
  167RES   H23247044   2.227   2.949   2.154 -1.1068 -2.0591 -0.5164
  167RES   H23347045   2.058   2.991   2.143 -1.2912  0.4208 -1.5238
  167RES   H23447046   2.092   3.200   2.045  1.1787  1.6057 -0.1600
  167RES   H23547047   2.251   3.187   2.299  0.8080 -0.5839  0.1765
  167RES   H23647048   2.074   3.188   2.278  1.0302 -1.4555  1.5900
  167RES   H23747049   2.034   3.400   2.396  1.5958 -0.2346 -0.0517
  167RES   H23847050   2.139   3.528   2.366 -2.0280  0.4329 -0.6184
  167RES   H23947051   2.205   3.384   2.440  1.9439 -0.2780 -1.4506
  167RES   O24047052   2.297   3.206   2.048  0.1623 -0.6104  0.2707
  167RES   C24147053   2.284   3.238   1.906 -0.5743 -0.1992  0.7082
  167RES   C24247054   2.408   3.314   1.853  0.5585 -0.4103 -0.0380
  167RES   C24347055   2.412   3.350   1.705 -0.0209 -0.2838 -0.7707
  167RES   O24447056   2.277   3.385   1.651 -0.1586  0.1819 -0.0944
  167RES   C24547057   2.279   3.487   1.552  0.1045  0.9109 -0.5690
  167RES   H24647058   2.198   3.303   1.895 -1.4373 -1.7950 -2.5916
  167RES   H24747059   2.259   3.155   1.840 -0.8290  0.5531 -0.1403
  167RES   H24847060   2.506   3.273   1.873  1.6538  1.9222 -0.5002
  167RES   H24947061   2.481   3.433   1.690 -0.9388  0.5274 -0.5468
  167RES   H25047062   2.462   3.266   1.655 -1.6083 -1.4992 -0.3714
  167RES   H25147063   2.346   3.449   1.475 -2.7063 -0.3814 -2.4460
  167RES   H25247064   2.328   3.580   1.582  3.0132  0.0432 -2.4886
  167RES   H25347065   2.180   3.513   1.514 -0.4095 -1.6616 -1.0832
  167RES   O25447066   2.406   3.441   1.909 -0.5929  0.5283  0.0663
  167RES   C25547067   2.510   3.466   2.001  0.0953  0.1874 -0.0933
  167RES   C25647068   2.484   3.602   2.069 -0.6773 -0.3155  0.3556
  167RES   C25747069   2.531   3.610   2.213  0.4921 -0.1827 -0.6578
  167RES   O25847070   2.667   3.572   2.233  0.2077 -0.1637  0.1835
  167RES   C25947071   2.762   3.661   2.175  0.4303 -0.5641 -0.0371
  167RES   H26047072   2.516   3.388   2.077  1.0925  0.5580  0.2219
  167RES   H26147073   2.609   3.474   1.955  0.7325 -1.4596  0.9510
  167RES   H26247074   2.377   3.615   2.081 -0.8131 -0.4427 -0.6488
  167RES   H26347075   2.529   3.715   2.244 -1.3757 -0.5400  0.5476
  167RES   H26447076   2.455   3.559   2.272  0.1100  1.3229  0.2057
  167RES   H26547077   2.743   3.767   2.191  0.2253 -0.6823  0.5166
  167RES   H26647078   2.774   3.656   2.067 -0.6859  1.0281 -0.2438
  167RES   H26747079   2.860   3.647   2.221  0.8899 -0.8181 -1.0810
  167RES   O26847080   2.536   3.708   1.988  0.0968  0.2788 -0.4363
  167RES   C26947081   2.453   3.758   1.890  0.1640  0.3716 -0.3864
  167RES   C27047082   2.498   3.899   1.841 -0.2195  0.7495 -0.5016
  167RES   C27147083   2.499   4.008   1.951  0.3712  0.2192  0.0071
  167RES   O27247084   2.524   4.133   1.897 -0.2647 -0.1780  0.1417
  167RES   C27347085   2.526   4.241   1.993 -0.1679 -0.0196 -0.0748
  167RES   H27447086   2.348   3.761   1.920  0.2319  2.0683 -0.2567
  167RES   H27547087   2.466   3.685   1.810 -2.1106  0.8504 -1.2459
  167RES   H27647088   2.600   3.883   1.805  0.2796  0.4384  1.0145
  167RES   H27747089   2.569   3.981   2.030  2.3017 -1.6851 -2.2528
  167RES   H27847090   2.400   4.015   1.997 -0.1015 -2.2457 -0.5399
  167RES   H27947091   2.427   4.288   1.991 -0.1465  0.0147 -0.3680
  167RES   H28047092   2.615   4.297   1.967  1.5009 -1.5009  2.2869
  167RES   H28147093   2.527   4.211   2.098 -1.0198  2.8915  0.8256
  167RES   H28247094   2.433   3.936   1.762 -1.5320 -0.9944 -0.2798
  168RES     O147095   4.726   4.139   6.214 -0.3241  0.1745  0.1522
  168RES     C247096   4.832   4.189   6.291  0.0349 -0.3714  0.1929
  168RES     C347097   4.793   4.312   6.375  0.0483  0.3831 -0.8456
  168RES     C447098   4.687   4.273   6.479 -0.6050  0.5059  0.1480
  168RES     O547099   4.631   4.389   6.540 -0.3235 -0.6999 -0.1510
  168RES     C647100   4.564   4.365   6.663  0.0544 -0.1798 -0.1911
  168RES     H747101   4.893   4.122   6.351 -0.0745 -2.5042 -1.9990
  168RES     H847102   4.907   4.212   6.215 -0.4943  0.4379 -0.0831
  168RES     H947103   4.754   4.392   6.312  1.6217 -0.1932 -2.6200
  168RES    H1047104   4.725   4.202   6.553 -1.5637  1.2879  1.4166
  168RES    H1147105   4.615   4.212   6.424  0.4754 -1.0261  0.4272
  168RES    H1247106   4.461   4.341   6.639 -0.8043  1.5703  1.6008
  168RES    H1347107   4.596   4.283   6.727 -0.5853 -0.0371  0.3165
  168RES    H1447108   4.565   4.459   6.718 -0.5151  0.1003 -0.6578
  168RES    H1547109   4.741   4.050   6.187  1.9806 -0.0009  1.8587
  168RES    O1647110   4.912   4.370   6.423  0.3939  0.5201 -0.0971
  168RES    C1747111   4.898   4.476   6.512  0.5134  0.0665 -0.4190
  168RES    C1847112   5.032   4.569   6.523  0.2324 -0.3703 -0.0066
  168RES    C1947113   5.007   4.693   6.617  0.4077  0.1610 -0.7669
  168RES    O2047114   5.106   4.785   6.603  0.1305  0.3369 -0.2418
  168RES    C2147115   5.116   4.883   6.710 -0.8328  0.2147 -0.4764
  168RES    H2247116   4.862   4.456   6.613  0.6936  0.0727 -0.3511
  168RES    H2347117   4.825   4.550   6.481 -0.9969 -1.2534 -0.0405
  168RES    H2447118   5.063   4.610   6.427  0.3300  0.4294  0.3669
  168RES    H2547119   4.909   4.732   6.592 -0.4738 -1.1389  0.5570
  168RES    H2647120   5.000   4.647   6.716 -0.5753  0.9825 -0.4539
  168RES    H2747121   5.034   4.955   6.710 -2.1496 -1.2587 -0.1847
  168RES    H2847122   5.208   4.938   6.691 -1.1434  0.7574 -0.4346
  168RES    H2947123   5.132   4.827   6.803  0.6976  2.8060  0.8695
  168RES    O3047124   5.136   4.483   6.567 -0.1268  0.3003 -0.3422
  168RES    C3147125   5.261   4.534   6.562  0.2990  0.8531  0.3023
  168RES    C3247126   5.366   4.422   6.542 -0.3619  0.6552  0.4093
  168RES    C3347127   5.324   4.333   6.417  0.2998  0.0335  0.1446
  168RES    O3447128   5.439   4.253   6.378 -0.2503 -0.3973 -0.4373
  168RES    C3547129   5.426   4.178   6.253  0.5647  0.3818 -0.9202
  168RES    H3647130   5.271   4.616   6.491  1.0355  0.0064 -0.5896
  168RES    H3747131   5.277   4.589   6.655 -1.5721  1.6367  0.1825
  168RES    H3847132   5.465   4.464   6.527 -0.6071  1.2233  0.3538
  168RES    H3947133   5.292   4.408   6.345  1.9562 -0.3297 -0.9986
  168RES    H4047134   5.240   4.268   6.441  0.4553  0.7501  2.7556
  168RES    H4147135   5.354   4.097   6.262 -0.0422  1.0725  0.7056
  168RES    H4247136   5.527   4.140   6.243  0.8655  1.5046 -2.3710
  168RES    H4347137   5.401   4.232   6.161 -0.7434 -0.2895 -0.9676
  168RES    O4447138   5.375   4.340   6.657  0.8333 -0.1043  0.0555
  168RES    C4547139   5.485   4.362   6.744 -0.3858 -0.3517  0.2585
  168RES    C4647140   5.462   4.287   6.878 -0.7990 -0.4399  0.3985
  168RES    C4747141   5.597   4.236   6.937  0.1007 -0.0711  0.0332
  168RES    O4847142   5.682   4.348   6.944  0.0387  0.6859 -0.5397
  168RES    C4947143   5.817   4.310   6.963 -0.4560  0.0709 -0.0435
  168RES    H5047144   5.508   4.468   6.754 -1.2861  0.1707 -2.7165
  168RES    H5147145   5.563   4.313   6.686 -1.5454 -1.4444 -0.4157
  168RES    H5247146   5.396   4.204   6.854  0.4033 -1.0719 -0.8116
  168RES    H5347147   5.575   4.201   7.038 -1.6815  2.0082  0.4254
  168RES    H5447148   5.636   4.155   6.876  0.5510  2.0554 -2.5789
  168RES    H5547149   5.865   4.260   6.879 -0.1561  0.1966  0.0508
  168RES    H5647150   5.823   4.261   7.060  1.5272  0.2364 -0.0602
  168RES    H5747151   5.876   4.402   6.971  1.2510 -1.1037  1.1021
  168RES    O5847152   5.404   4.367   6.976 -0.1898  0.0850  0.3676
  168RES    C5947153   5.269   4.399   6.956 -0.8198 -0.0233  0.2436
  168RES    C6047154   5.228   4.482   7.078  0.0498  0.2160 -0.1543
  168RES    C6147155   5.074   4.459   7.123 -0.2555  0.0379  0.0808
  168RES    O6247156   4.976   4.478   7.020  0.1237 -0.0761  0.2613
  168RES    C6347157   4.850   4.486   7.083 -0.4579  0.1941 -0.8522
  168RES    H6447158   5.213   4.306   6.945  1.0163 -1.0198 -0.8714
  168RES    H6547159   5.251   4.458   6.866  3.7500  1.1750  0.0251
  168RES    H6647160   5.288   4.458   7.166 -0.2316  1.3400  0.3424
  168RES    H6747161   5.053   4.358   7.156 -0.7431 -0.0450 -0.4803
  168RES    H6847162   5.061   4.521   7.212  0.8213 -0.9144  0.9090
  168RES    H6947163   4.840   4.573   7.148  0.2387 -0.2839 -0.0972
  168RES    H7047164   4.838   4.392   7.137 -0.8807  0.9267  0.3528
  168RES    H7147165   4.760   4.490   7.021 -0.6272  3.0371 -0.4841
  168RES    O7247166   5.249   4.619   7.053  0.5286 -0.5219 -0.1009
  168RES    C7347167   5.379   4.663   7.029 -0.4269 -0.7455  0.0201
  168RES    C7447168   5.395   4.819   7.013 -0.0057  0.4097  0.5436
  168RES    C7547169   5.531   4.845   6.925 -0.0826 -0.2087 -0.0628
  168RES    O7647170   5.498   4.922   6.814  0.2244  0.1067 -0.4649
  168RES    C7747171   5.474   4.844   6.700  0.3467 -0.1067  0.3398
  168RES    H7847172   5.445   4.627   7.108  0.0149 -0.1633 -0.0824
  168RES    H7947173   5.403   4.612   6.936 -1.1865 -1.0858  0.0050
  168RES    H8047174   5.306   4.855   6.962  0.6667 -0.0260 -0.9339
  168RES    H8147175   5.602   4.765   6.904  2.3544  1.6611  0.8129
  168RES    H8247176   5.600   4.918   6.966  2.4733 -0.5879 -3.4337
  168RES    H8347177   5.439   4.903   6.615  2.5036  1.1644  0.2806
  168RES    H8447178   5.386   4.784   6.724  1.5889 -2.5335 -0.9980
  168RES    H8547179   5.557   4.781   6.668  0.1455 -1.0068  1.5907
  168RES    O8647180   5.405   4.885   7.139 -0.2637  0.3922  0.6761
  168RES    C8747181   5.306   4.856   7.240 -0.1250 -0.2426 -0.1891
  168RES    C8847182   5.173   4.926   7.213 -0.1263  0.1269 -0.2111
  168RES    C8947183   5.049   4.836   7.235  0.4003 -0.0467  0.4566
  168RES    O9047184   5.050   4.759   7.355  0.1375 -0.1796  0.0203
  168RES    C9147185   5.030   4.839   7.473 -0.1592 -0.0061 -0.3671
  168RES    H9247186   5.296   4.749   7.262  1.4981 -0.3418  0.1063
  168RES    H9347187   5.351   4.892   7.333 -1.4495 -2.5003  1.4067
  168RES    H9447188   5.172   4.957   7.108  0.3369 -0.9365 -0.5302
  168RES    H9547189   4.959   4.895   7.220  0.3258 -0.3832 -0.4526
  168RES    H9647190   5.046   4.759   7.157  1.0917 -0.1076  0.4821
  168RES    H9747191   4.926   4.871   7.476 -0.1351  0.0293  0.1039
  168RES    H9847192   5.059   4.768   7.551 -0.4197 -0.3943 -0.6239
  168RES    H9947193   5.101   4.921   7.484 -1.1375  1.1415 -2.3755
  168RES   O10047194   5.149   5.044   7.287 -0.2802 -0.2214  0.3010
  168RES   C10147195   5.235   5.155   7.257 -0.3664 -0.3472 -0.7825
  168RES   C10247196   5.179   5.291   7.317  0.8444 -0.4319 -0.0544
  168RES   C10347197   5.184   5.278   7.469 -0.2197  0.1010  0.5307
  168RES   O10447198   5.191   5.411   7.529  0.3380  0.0525  0.3862
  168RES   C10547199   5.173   5.420   7.670 -0.2433  0.3016  0.1012
  168RES   H10647200   5.240   5.162   7.148  1.6318 -0.6546 -0.7224
  168RES   H10747201   5.339   5.136   7.282 -1.0754 -2.0897  0.9588
  168RES   H10847202   5.247   5.368   7.281  2.5788 -2.3651 -0.9820
  168RES   H10947203   5.276   5.227   7.496  0.1281  1.4387  1.9188
  168RES   H11047204   5.103   5.218   7.512  1.5969 -2.7635  0.1376
  168RES   H11147205   5.248   5.359   7.719 -0.7427  0.1163  0.6449
  168RES   H11247206   5.071   5.399   7.703  0.0459 -1.3501  0.0050
  168RES   H11347207   5.183   5.522   7.706 -1.6004 -0.0629  1.5560
  168RES   O11447208   5.060   5.298   7.249  0.1217 -0.4311 -0.6122
  168RES   C11547209   4.990   5.428   7.253 -0.0619 -0.1973  0.1345
  168RES   C11647210   4.976   5.490   7.117  0.2243 -0.1448  0.1765
  168RES   C11747211   4.867   5.601   7.124  0.0116  0.3631 -0.1380
  168RES   O11847212   4.746   5.545   7.157 -0.4262 -0.1280  0.3021
  168RES   C11947213   4.643   5.641   7.159  0.0219  0.5377 -0.1451
  168RES   H12047214   4.896   5.413   7.307  0.1042 -1.1454  0.1656
  168RES   H12147215   5.047   5.500   7.312  1.3005 -0.3534 -0.9770
  168RES   H12247216   4.942   5.419   7.041 -1.8346  2.6379 -1.6200
  168RES   H12347217   4.898   5.689   7.181 -1.1483  1.4498 -1.1745
  168RES   H12447218   4.850   5.635   7.022 -1.1496 -0.4918 -0.2442
  168RES   H12547219   4.592   5.661   7.064 -1.2868  1.0325  0.6390
  168RES   H12647220   4.677   5.730   7.211 -2.6386  1.1798  0.6012
  168RES   H12747221   4.566   5.603   7.227  0.9180 -1.7512 -0.3758
  168RES   O12847222   5.095   5.551   7.071 -0.3005 -0.1003  0.7425
  168RES   C12947223   5.191   5.466   7.002  0.2403 -0.1986 -0.4323
  168RES   C13047224   5.289   5.543   6.909  0.0261 -0.9206 -0.5290
  168RES   C13147225   5.371   5.447   6.824  0.2163  0.6391  0.0677
  168RES   O13247226   5.474   5.374   6.894  0.3347 -0.3185  0.1117
  168RES   C13347227   5.559   5.303   6.806  0.2754 -0.2577 -0.3811
  168RES   H13447228   5.246   5.404   7.073  0.5201 -1.2722 -1.5822
  168RES   H13547229   5.138   5.391   6.943  0.9262 -1.1938  0.2076
  168RES   H13647230   5.248   5.625   6.850  0.2443  0.6787  1.4881
  168RES   H13747231   5.409   5.508   6.742 -1.0075  1.4277  0.0777
  168RES   H13847232   5.313   5.368   6.775 -0.0356  0.2560  0.9651
  168RES   H13947233   5.630   5.245   6.865  1.0949  0.6236 -0.4654
  168RES   H14047234   5.499   5.236   6.745  0.7685 -1.1857  0.1422
  168RES   H14147235   5.612   5.370   6.738 -1.0339 -0.8669 -2.0322
  168RES   O14247236   5.374   5.609   7.004 -0.0894 -0.2122  0.1076
  168RES   C14347237   5.488   5.679   6.961  0.8926  0.0570 -0.2323
  168RES   C14447238   5.567   5.756   7.077  0.6115 -0.4803  0.5988
  168RES   C14547239   5.663   5.865   7.019 -0.8787  0.3293 -0.0737
  168RES   O14647240   5.726   5.936   7.115 -0.1945  0.0888  0.9703
  168RES   C14747241   5.675   6.064   7.126 -0.2712 -0.1552 -0.5996
  168RES   H14847242   5.569   5.612   6.934 -0.1955 -1.4570  0.1887
  168RES   H14947243   5.458   5.744   6.878 -1.9216 -1.7774 -0.7416
  168RES   H15047244   5.489   5.805   7.135 -0.9677  0.6867 -2.4328
  168RES   H15147245   5.626   5.912   6.928 -1.3840  3.3316  1.6276
  168RES   H15247246   5.735   5.803   6.965  0.0681 -0.3696  1.9627
  168RES   H15347247   5.730   6.113   7.207 -0.2244  1.3210 -1.4985
  168RES   H15447248   5.567   6.062   7.135 -0.0507 -1.5095  2.2294
  168RES   H15547249   5.698   6.120   7.035  0.0916  1.5405  0.5190
  168RES   O15647250   5.652   5.669   7.153 -0.4574 -0.3105  0.0748
  168RES   C15747251   5.568   5.568   7.223 -0.2488  0.2871 -0.7189
  168RES   C15847252   5.633   5.527   7.356 -0.2015  0.3574  0.1895
  168RES   C15947253   5.577   5.403   7.431 -0.3873 -0.1155 -0.3493
  168RES   O16047254   5.670   5.359   7.531 -0.3766  0.6557 -0.0995
  168RES   C16147255   5.638   5.235   7.592  0.2235  0.2878 -0.0153
  168RES   H16247256   5.477   5.621   7.251  0.2501  0.6214  0.2768
  168RES   H16347257   5.553   5.482   7.156  2.6989 -0.5949 -0.3359
  168RES   H16447258   5.734   5.511   7.320 -1.0398  1.9047 -2.9801
  168RES   H16547259   5.487   5.433   7.484  0.6689  0.1945  1.3221
  168RES   H16647260   5.555   5.321   7.363  0.0348  0.1584 -0.8200
  168RES   H16747261   5.666   5.157   7.521  0.2507  1.9058 -1.8218
  168RES   H16847262   5.530   5.218   7.592  0.6745 -3.0866 -1.1178
  168RES   H16947263   5.683   5.223   7.690 -1.8957  0.5262  0.9910
  168RES   O17047264   5.625   5.635   7.451  0.1676 -1.0007 -0.2946
  168RES   C17147265   5.748   5.700   7.484 -1.0476  0.3103  0.4344
  168RES   C17247266   5.718   5.789   7.607 -0.5141 -0.3980 -0.3417
  168RES   C17347267   5.829   5.894   7.618 -0.0179 -0.3124  0.1135
  168RES   O17447268   5.790   5.994   7.521 -0.1796 -0.9241 -0.3966
  168RES   C17547269   5.877   6.107   7.507  0.1726  0.1779  0.3319
  168RES   H17647270   5.773   5.764   7.399 -1.0596 -0.0071  0.1917
  168RES   H17747271   5.827   5.625   7.485  0.0151  1.4123  0.0237
  168RES   H17847272   5.622   5.841   7.604 -0.8559 -0.8893  1.2752
  168RES   H17947273   5.821   5.933   7.720  0.4852 -0.2105  0.1122
  168RES   H18047274   5.929   5.865   7.588  0.0813 -0.5889  0.7163
  168RES   H18147275   5.872   6.173   7.594  1.9633  1.1255 -0.2483
  168RES   H18247276   5.852   6.171   7.422  1.8052 -1.0182 -1.1047
  168RES   H18347277   5.981   6.075   7.499  0.6038  1.3661  1.0038
  168RES   O18447278   5.725   5.713   7.733 -0.3928 -0.0086  0.0743
  168RES   C18547279   5.605   5.656   7.782  0.1974 -0.6128  0.0682
  168RES   C18647280   5.503   5.764   0.021 -0.1265  0.5951  0.0778
  168RES   C18747281   5.421   5.723   0.140  0.2700 -0.0354 -1.0112
  168RES   O18847282   5.361   5.598   0.125  0.8253 -0.3451 -0.3806
  168RES   C18947283   5.266   5.563   0.233 -0.8731 -0.2897 -0.9305
  168RES   H19047284   5.628   5.586   0.045 -2.7160  0.0875  1.5876
  168RES   H19147285   5.554   5.602   7.702  0.0091  1.0203 -0.9315
  168RES   H19247286   5.558   5.855   0.045  0.0382  0.7169 -0.7437
  168RES   H19347287   5.340   5.791   0.170  0.5415 -0.9761  2.1153
  168RES   H19447288   5.478   5.743   0.231 -2.5684  0.0084  0.8589
  168RES   H19547289   5.326   5.556   0.325  0.7966 -2.2369 -2.1074
  168RES   H19647290   5.185   5.633   0.250 -2.5567 -2.5794  0.8968
  168RES   H19747291   5.221   5.466   0.210 -0.2100 -1.0209  0.7267
  168RES   O19847292   5.419   5.817   7.736 -0.2174 -0.1050 -0.0176
  168RES   C19947293   5.306   5.742   7.688  0.2710  0.2147 -0.2714
  168RES   C20047294   5.241   5.812   7.565  0.2909  0.5058 -0.6151
  168RES   C20147295   5.341   5.792   7.454 -0.9661  0.3707  1.0756
  168RES   O20247296   5.304   5.862   7.341  0.2321  0.0299 -0.2112
  168RES   C20347297   5.213   5.787   7.268 -0.0720 -0.3141  0.2803
  168RES   H20447298   5.238   5.725   7.771  1.1976  1.5026  0.7529
  168RES   H20547299   5.351   5.646   7.660 -1.4579 -0.2852 -1.4053
  168RES   H20647300   5.147   5.768   7.533  1.3378 -1.9807 -0.3433
  168RES   H20747301   5.440   5.831   7.476  0.0339 -1.3411 -0.1644
  168RES   H20847302   5.361   5.686   7.436 -0.0461  0.7353 -0.1418
  168RES   H20947303   5.194   5.844   7.177  1.1749  1.7047  1.2537
  168RES   H21047304   5.117   5.789   7.320 -1.2897 -1.4720 -1.8907
  168RES   H21147305   5.246   5.685   7.248  0.3019 -0.0621 -0.4018
  168RES   O21247306   5.209   5.952   7.589  0.0997  0.0523 -0.3265
  168RES   C21347307   5.102   5.972   7.684 -0.2590 -0.0452  0.3709
  168RES   C21447308   5.084   6.125   7.711  0.3668 -0.1240  0.2583
  168RES   C21547309   4.973   6.157   7.815  0.7451 -0.0436 -0.5215
  168RES   O21647310   4.854   6.083   7.785 -0.3083 -0.0332  0.5621
  168RES   C21747311   4.741   6.117   0.033 -0.3669 -0.4988  0.0398
  168RES   H21847312   5.120   5.918   7.776 -0.7804 -1.1159 -0.1498
  168RES   H21947313   5.013   5.927   7.640 -1.0426  1.6362  0.1821
  168RES   H22047314   5.174   6.167   7.756  2.1456 -2.6846 -0.7832
  168RES   H22147315   5.023   6.134   0.092 -2.0400  1.7366  1.4600
  168RES   H22247316   4.950   6.263   0.002 -0.2501 -0.3160  1.5597
  168RES   H22347317   4.771   6.145   0.134 -2.2980  0.9106  0.2553
  168RES   H22447318   4.675   6.030   0.038  1.6470 -2.2340 -2.2773
  168RES   H22547319   4.701   6.206   7.803 -0.1386 -0.3146  0.1938
  168RES   O22647320   5.044   6.191   7.592 -0.4756  0.5689  0.4419
  168RES   C22747321   5.070   6.332   7.585  0.0950 -0.4226 -0.0908
  168RES   C22847322   5.047   6.383   7.438 -0.1928  0.9832  0.1565
  168RES   C22947323   5.037   6.541   7.431  0.4686  0.6053 -1.1791
  168RES   O23047324   5.139   6.605   7.500 -0.6534  0.9548  0.2852
  168RES   C23147325   5.273   6.591   7.446 -0.4473 -0.5146  0.2563
  168RES   H23247326   5.165   6.368   7.625 -0.4914 -0.6385  1.5345
  168RES   H23347327   5.002   6.391   7.648 -1.3270 -1.4226 -0.6649
  168RES   H23447328   4.952   6.346   7.399  0.2432  0.2524 -0.2238
  168RES   H23547329   4.949   6.562   7.492  0.0016 -0.4781 -1.4535
  168RES   H23647330   5.025   6.579   7.329 -0.1526 -1.6099 -1.9720
  168RES   H23747331   5.325   6.507   7.493  0.1701  1.0384  2.4375
  168RES   H23847332   5.323   6.687   7.460  0.9320 -1.2535  0.4762
  168RES   H23947333   5.276   6.573   7.339  1.0210 -0.6522  0.3091
  168RES   O24047334   5.147   6.354   7.344  0.2021  0.0220 -0.3415
  168RES   C24147335   5.172   6.221   7.303 -0.1189  0.1228 -0.2081
  168RES   C24247336   5.304   6.212   7.244  0.8627 -0.0774 -0.7245
  168RES   C24347337   5.305   6.293   7.116 -0.1563 -0.3995 -0.0553
  168RES   O24447338   5.424   6.288   7.052 -0.6588  0.1729  0.0316
  168RES   C24547339   5.473   6.408   6.999 -0.4664  0.2692  0.5556
  168RES   H24647340   5.100   6.186   7.230  0.9823 -0.3066 -1.0897
  168RES   H24747341   5.171   6.153   7.388 -1.7655 -1.6485 -1.6285
  168RES   H24847342   5.313   6.109   7.210  1.2086 -0.3787  0.2645
  168RES   H24947343   5.227   6.262   7.047  1.1612 -3.3375 -0.2982
  168RES   H25047344   5.282   6.397   7.139 -0.8771 -0.3820 -0.8205
  168RES   H25147345   5.527   6.387   6.907 -0.6170 -2.9191  1.1552
  168RES   H25247346   5.542   6.448   7.074 -0.0877 -1.1326  0.9574
  168RES   H25347347   5.391   6.473   6.967  1.5025  2.5552 -0.0278
  168RES   O25447348   5.418   6.256   7.322 -0.1380  0.4454  0.0778
  168RES   C25547349   5.466   6.156   7.411 -0.1575  0.3103  0.1611
  168RES   C25647350   5.509   6.225   7.550 -0.7780 -0.3380  0.2870
  168RES   C25747351   5.529   6.130   7.675  0.1426  0.7986  0.3233
  168RES   O25847352   5.468   6.194   7.788  0.3591 -0.0328  0.0274
  168RES   C25947353   5.479   6.115   0.088  0.1318 -0.7390  0.0737
  168RES   H26047354   5.391   6.078   7.425  2.0468 -2.0387 -0.6013
  168RES   H26147355   5.536   6.093   7.355 -0.4400 -0.8405  1.0841
  168RES   H26247356   5.430   6.299   7.565 -1.0668 -0.3072 -1.2289
  168RES   H26347357   5.496   6.028   7.657 -0.0691  0.9910 -0.4295
  168RES   H26447358   5.633   6.108   7.697 -0.5463 -0.2650  2.6751
  168RES   H26547359   5.417   6.026   0.084 -0.5944 -0.3155  1.7305
  168RES   H26647360   5.444   6.177   0.170  2.2768  1.1725 -0.3883
  168RES   H26747361   5.586   6.098   0.099  0.1035 -0.0993  1.4040
  168RES   O26847362   5.633   6.295   7.518  0.3631 -0.1825  0.3091
  168RES   C26947363   5.621   6.433   7.553 -0.1434 -0.4096  0.1039
  168RES   C27047364   5.725   6.508   7.476  0.0349  1.0503 -0.1014
  168RES   C27147365   5.680   6.509   7.328 -1.1028  0.2180  0.2358
  168RES   O27247366   5.787   6.592   7.266  0.0200 -0.0514  0.0102
  168RES   C27347367   5.845   6.547   7.145 -0.2068  0.9603  0.3787
  168RES   H27447368   5.627   6.453   7.660  0.1050  2.3822 -0.4138
  168RES   H27547369   5.531   6.487   7.526 -0.6976 -1.0779  0.5842
  168RES   H27647370   5.721   6.616   7.495  0.6339  0.8597  1.1335
  168RES   H27747371   5.579   6.546   7.308  0.1413  2.8966 -1.4717
  168RES   H27847372   5.684   6.407   7.289  1.6147  0.6701 -0.7939
  168RES   H27947373   5.774   6.522   7.066 -1.1090  2.1530  0.7960
  168RES   H28047374   5.897   6.454   7.168 -0.5376  0.8592  0.7270
  168RES   H28147375   5.919   6.623   7.121 -1.0925  1.3763 -1.0899
  168RES   H28247376   5.825   6.467   7.486  0.3983  2.2548  1.4033
  169RES     O147377   0.445   3.340   3.098 -0.0700 -0.0365 -0.4691
  169RES     C247378   0.529   3.450   3.131  0.3889  0.4372 -0.0235
  169RES     C347379   0.609   3.419   3.269 -0.5396  0.3293  0.8437
  169RES     C447380   0.535   3.358   3.390 -0.1500 -0.6655  0.4558
  169RES     O547381   0.632   3.328   3.495  0.2470 -0.1756 -0.7160
  169RES     C647382   0.593   3.226   3.580  0.0632  0.2944 -0.2541
  169RES     H747383   0.602   3.463   3.051  3.1561  1.1633  2.5200
  169RES     H847384   0.467   3.538   3.149  0.7860  0.5766  0.6774
  169RES     H947385   0.674   3.500   3.303  1.1749 -1.3861  1.7511
  169RES    H1047386   0.476   3.271   3.359  0.9270 -1.1540 -0.2474
  169RES    H1147387   0.471   3.439   3.426  0.7343  0.0405  0.4654
  169RES    H1247388   0.623   3.236   3.684  1.2522  2.2141 -0.7643
  169RES    H1347389   0.485   3.219   3.594  0.6107 -2.2237  3.5682
  169RES    H1447390   0.625   3.132   3.535  1.1714  0.6015 -0.1269
  169RES    H1547391   0.486   3.276   3.042  0.9051  1.1528 -1.1254
  169RES    O1647392   0.694   3.310   3.233  0.4906  0.1940  0.6546
  169RES    C1747393   0.811   3.332   3.147 -0.6942 -0.1915  0.2778
  169RES    C1847394   0.897   3.206   3.124 -0.2199 -0.3304 -0.9571
  169RES    C1947395   0.996   3.216   2.996  0.5623 -0.2774 -0.3024
  169RES    O2047396   0.920   3.253   2.880 -0.0017  0.4857 -0.2556
  169RES    C2147397   0.999   3.243   2.763  0.6065  0.6795 -0.7128
  169RES    H2247398   0.883   3.402   3.190 -0.6533 -0.2341  0.2785
  169RES    H2347399   0.782   3.383   3.056  1.7697  0.9443  0.0960
  169RES    H2447400   0.828   3.127   3.094  1.5496 -1.5528 -1.9095
  169RES    H2547401   1.076   3.289   3.013  0.0212  0.5832 -1.3706
  169RES    H2647402   1.041   3.117   2.991 -1.0847 -0.9859 -1.4481
  169RES    H2747403   1.095   3.294   2.760  0.2991  1.2155 -1.9420
  169RES    H2847404   0.939   3.272   2.676  2.1396 -0.3169 -2.1231
  169RES    H2947405   1.027   3.140   2.740  0.8079  0.2174  1.4911
  169RES    O3047406   0.968   3.160   3.235  0.1113  0.3228  0.1007
  169RES    C3147407   0.892   3.094   3.338  0.1773 -0.3077  0.3128
  169RES    C3247408   0.983   3.035   3.447 -0.1310 -0.0405  0.4361
  169RES    C3347409   0.928   2.910   3.517 -0.4282  0.3166  0.3406
  169RES    O3447410   0.795   2.923   3.554  0.3718 -0.0030  0.0493
  169RES    C3547411   0.760   2.908   3.690  0.1134 -0.2741  0.2301
  169RES    H3647412   0.817   3.159   3.382  0.1592 -0.3427  0.3326
  169RES    H3747413   0.841   3.009   3.293  1.3790 -0.0446 -1.6014
  169RES    H3847414   1.071   3.014   3.386 -0.8311  0.1541 -0.6670
  169RES    H3947415   0.987   2.874   3.602 -0.2836 -0.3446 -0.0370
  169RES    H4047416   0.921   2.824   3.451 -0.6468  0.0341  0.7334
  169RES    H4147417   0.652   2.925   3.700  0.0547 -0.0875 -0.7452
  169RES    H4247418   0.804   2.983   3.756  1.3638  0.3463 -1.2786
  169RES    H4347419   0.784   2.805   3.718 -0.8159 -0.0048  2.1135
  169RES    O4447420   1.015   3.126   3.555  0.7937 -0.1480  0.1380
  169RES    C4547421   1.060   3.260   3.510 -0.1924 -0.0130 -0.2194
  169RES    C4647422   1.131   3.334   3.624 -0.3190 -0.4679 -0.7868
  169RES    C4747423   1.217   3.447   3.559  0.8190 -0.5793 -0.1787
  169RES    O4847424   1.156   3.502   3.443 -0.4460  0.1572 -0.3361
  169RES    C4947425   1.074   3.613   3.466 -0.1569  0.0288 -0.0559
  169RES    H5047426   0.980   3.323   3.470  1.8436  3.2144  0.6035
  169RES    H5147427   1.123   3.227   3.428 -1.4387  2.1000 -2.0858
  169RES    H5247428   1.201   3.267   3.674 -1.0809 -0.5784  0.1523
  169RES    H5347429   1.244   3.525   3.630 -1.9232  1.0613 -0.8418
  169RES    H5447430   1.315   3.405   3.535  0.4774 -1.3162 -0.2879
  169RES    H5547431   1.121   3.696   3.519 -0.3031  0.0143  0.0933
  169RES    H5647432   0.992   3.583   3.530 -0.4102  2.3585  0.7515
  169RES    H5747433   1.039   3.649   3.369 -0.4769 -0.5361 -0.1517
  169RES    O5847434   1.041   3.399   3.712 -0.6478  0.1898 -0.2537
  169RES    C5947435   0.985   3.305   3.801  0.3823 -0.0242  0.2762
  169RES    C6047436   0.891   3.383   3.899  0.0201  0.5354 -0.6996
  169RES    C6147437   0.842   3.297   4.020  0.3534  0.2987  0.7721
  169RES    O6247438   0.767   3.372   4.112 -0.8285  0.1519  0.1278
  169RES    C6347439   0.694   3.295   4.204 -1.1642  0.8899  0.4475
  169RES    H6447440   1.057   3.247   3.858  0.5114  1.3096  1.5114
  169RES    H6547441   0.932   3.231   3.742  1.7207  1.7141 -3.2352
  169RES    H6647442   0.938   3.476   3.933  0.9690 -0.2269  0.1134
  169RES    H6747443   0.775   3.215   3.995  1.8004  0.1642 -2.9485
  169RES    H6847444   0.916   3.239   4.075  1.2174  2.1836  1.6429
  169RES    H6947445   0.764   3.250   4.275 -1.2699  1.5245  0.9625
  169RES    H7047446   0.639   3.211   4.162  2.3701  0.2888 -3.2740
  169RES    H7147447   0.625   3.362   4.255 -0.6092  1.4061  0.5236
  169RES    O7247448   0.771   3.416   3.834  0.2790  0.3431  0.4291
  169RES    C7347449   0.769   3.517   3.739  0.4625 -0.0535 -0.7678
  169RES    C7447450   0.626   3.580   3.733 -0.3852  0.3602 -0.3618
  169RES    C7547451   0.614   3.681   3.618 -0.3206 -0.4033  0.0840
  169RES    O7647452   0.481   3.723   3.610 -0.6312  0.2072 -0.0092
  169RES    C7747453   0.452   3.812   3.498  0.3603 -0.4140  0.3997
  169RES    H7847454   0.842   3.593   3.768  1.4202 -1.1014 -0.3736
  169RES    H7947455   0.793   3.477   3.640  0.1174  1.1610 -1.3509
  169RES    H8047456   0.555   3.498   3.724 -1.8474  1.6372 -0.6797
  169RES    H8147457   0.646   3.632   3.526 -0.2273 -2.3375  1.1145
  169RES    H8247458   0.673   3.766   3.652 -0.0614 -1.1203  1.4624
  169RES    H8347459   0.355   3.862   3.506  1.2624  1.1087  2.2272
  169RES    H8447460   0.443   3.756   3.405 -0.7665 -0.3568  0.4622
  169RES    H8547461   0.532   3.884   3.486  0.6294 -0.5590  1.3164
  169RES    O8647462   0.605   3.655   3.841 -0.5785  0.1904  0.4821
  169RES    C8747463   0.534   3.590   3.949 -0.4581 -0.0022  0.3378
  169RES    C8847464   0.522   3.693   4.066  0.0279 -0.0111  0.2452
  169RES    C8947465   0.393   3.658   4.147  0.5652  0.0549  0.6084
  169RES    O9047466   0.358   3.776   4.220  0.2397  0.3637  0.4455
  169RES    C9147467   0.268   3.759   4.327 -0.4177 -0.4023 -0.0079
  169RES    H9247468   0.433   3.568   3.913 -0.5882 -1.0033  1.3101
  169RES    H9347469   0.584   3.499   3.979 -0.2254  0.4972  1.4859
  169RES    H9447470   0.521   3.791   4.019  0.6810 -1.4158 -2.8152
  169RES    H9547471   0.307   3.634   4.085  0.8244  0.1130  0.2159
  169RES    H9647472   0.410   3.571   4.210 -0.4678 -0.6557 -0.0814
  169RES    H9747473   0.166   3.745   4.292 -0.2833 -0.4851 -0.3653
  169RES    H9847474   0.299   3.672   4.384 -0.3634  0.8097  1.8455
  169RES    H9947475   0.291   3.850   4.383  0.7073 -1.0497  0.5960
  169RES   O10047476   0.634   3.685   4.155  1.0900 -0.5471 -0.1173
  169RES   C10147477   0.760   3.741   4.110  0.1769  0.4843  0.3230
  169RES   C10247478   0.861   3.745   4.224 -0.0179  0.5893 -0.6715
  169RES   C10347479   0.859   3.612   4.300 -0.1112 -0.5702 -0.3755
  169RES   O10447480   0.955   3.623   4.401 -0.2443  0.8703 -0.2097
  169RES   C10547481   0.947   3.516   4.492  0.4757  0.2368  0.2117
  169RES   H10647482   0.738   3.836   4.062 -0.6357  0.5689  0.8513
  169RES   H10747483   0.797   3.680   4.028 -0.3135  0.7101 -0.0669
  169RES   H10847484   0.963   3.757   4.187  1.0820 -1.2158  1.7063
  169RES   H10947485   0.889   3.540   4.224 -0.8340  0.2316 -1.4328
  169RES   H11047486   0.764   3.574   4.336  0.5607 -2.4177 -0.4846
  169RES   H11147487   1.021   3.536   4.570 -1.9014 -2.4305  3.3080
  169RES   H11247488   0.993   3.423   4.457 -1.8489 -0.2474 -1.6231
  169RES   H11347489   0.853   3.505   4.546 -0.3829  2.5932 -0.7475
  169RES   O11447490   0.845   3.864   4.300  0.1174 -0.2525 -0.6039
  169RES   C11547491   0.729   3.874   4.389 -0.0147 -0.4498 -0.7604
  169RES   C11647492   0.685   4.024   4.417 -0.3423  0.3476  0.9031
  169RES   C11747493   0.542   4.045   4.383  0.6887 -0.4614  0.3652
  169RES   O11847494   0.515   4.180   4.358 -0.4638 -0.1292  0.1685
  169RES   C11947495   0.391   4.206   4.293 -0.5016  0.6745  0.7905
  169RES   H12047496   0.649   3.814   4.347  0.0150 -1.0220 -0.0110
  169RES   H12147497   0.752   3.820   4.481 -0.7674 -0.1776 -0.4035
  169RES   H12247498   0.745   4.100   4.366  1.3006 -1.1679  0.5471
  169RES   H12347499   0.541   4.002   4.283 -0.3566 -1.9590  0.9989
  169RES   H12447500   0.474   4.000   4.456  2.4799  0.0676  2.4250
  169RES   H12547501   0.378   4.311   4.264 -1.3198  0.2580 -0.3619
  169RES   H12647502   0.308   4.180   4.358 -1.7100 -0.4124 -1.1582
  169RES   H12747503   0.380   4.144   4.205  0.8165  1.7255 -0.1305
  169RES   O12847504   0.697   4.049   4.555  0.1536 -0.6163 -0.3797
  169RES   C12947505   0.828   4.092   4.584  0.6413  0.3863  0.3492
  169RES   C13047506   0.844   4.118   4.734  0.4404 -0.4134 -0.4158
  169RES   C13147507   0.966   4.209   4.762 -0.4990 -0.0974 -0.5291
  169RES   O13247508   0.929   4.294   4.876  0.2530 -0.5474 -0.0661
  169RES   C13347509   1.036   4.384   4.906  0.6172  0.1317  0.6610
  169RES   H13447510   0.912   4.024   4.563  1.0162  1.4156 -1.6506
  169RES   H13547511   0.842   4.192   4.542  0.0504  0.7536  1.0331
  169RES   H13647512   0.760   4.171   4.778  1.1569  0.0246  0.4405
  169RES   H13747513   0.983   4.272   4.675 -2.8825  1.3760  0.0296
  169RES   H13847514   1.055   4.147   4.775 -0.5692  0.1357  1.1774
  169RES   H13947515   1.091   4.399   4.813  0.3537 -0.6628  0.3699
  169RES   H14047516   0.998   4.480   4.939  0.5970 -0.0096  1.0540
  169RES   H14147517   1.099   4.342   4.985 -1.4060 -3.9365  0.2692
  169RES   O14247518   0.866   3.997   4.805 -0.0733 -0.2526  0.5834
  169RES   C14347519   0.746   3.930   4.834 -0.1615  1.0482 -0.2383
  169RES   C14447520   0.770   3.805   4.914  0.3297 -0.7633  0.1059
  169RES   C14547521   0.879   3.721   4.850 -0.5760 -0.1524 -0.2322
  169RES   O14647522   0.884   3.605   4.928  0.1932 -0.6930 -0.0601
  169RES   C14747523   0.963   3.506   4.862  0.0818 -0.1747  0.0698
  169RES   H14847524   0.664   3.992   4.871 -0.5594 -0.3173  1.2489
  169RES   H14947525   0.710   3.894   4.737  1.0400 -1.0977  0.0867
  169RES   H15047526   0.813   3.824   5.012 -0.8918  0.5495  0.4163
  169RES   H15147527   0.974   3.775   4.851  1.6654 -3.8766 -1.2700
  169RES   H15247528   0.848   3.701   4.747  0.1151 -1.5368 -0.1873
  169RES   H15347529   0.987   3.416   4.918 -1.3065 -0.8711 -0.4315
  169RES   H15447530   1.058   3.556   4.842 -0.4576  0.5722 -0.6591
  169RES   H15547531   0.921   3.485   4.763 -3.5041 -0.0422  1.4631
  169RES   O15647532   0.638   3.735   4.918 -0.2108  0.2007  0.0947
  169RES   C15747533   0.594   3.733   5.057  0.1392  0.2219 -0.5089
  169RES   C15847534   0.567   3.875   5.116  0.1947 -0.5900 -1.2728
  169RES   C15947535   0.504   3.858   5.256 -0.4263  0.0481 -0.2640
  169RES   O16047536   0.506   3.984   5.332 -0.6200  0.3109  0.1842
  169RES   C16147537   0.425   3.969   5.449 -0.2696  0.1095 -0.2009
  169RES   H16247538   0.505   3.670   5.056  0.4980 -0.2847 -0.7373
  169RES   H16347539   0.660   3.678   5.124 -1.9875 -2.0498 -0.1935
  169RES   H16447540   0.665   3.923   5.116 -0.6960  1.3073 -2.0338
  169RES   H16547541   0.402   3.820   5.252 -0.6147  0.6255 -1.0624
  169RES   H16647542   0.562   3.779   5.304 -2.8983 -1.0663  0.9639
  169RES   H16747543   0.430   4.052   5.519 -0.4005  0.4830 -0.6278
  169RES   H16847544   0.434   3.873   5.500  2.9048 -0.0666 -0.9768
  169RES   H16947545   0.319   3.963   5.424  0.2131 -0.3629 -2.2104
  169RES   O17047546   0.466   3.938   5.037 -0.0304 -0.3298  0.1476
  169RES   C17147547   0.464   4.076   5.047  0.1758  0.0119 -0.9801
  169RES   C17247548   0.372   4.128   4.932 -0.1875  0.6205 -0.5118
  169RES   C17347549   0.378   4.279   4.893 -0.0957  0.0196 -0.3230
  169RES   O17447550   0.350   4.291   4.751  0.3489  0.2975 -0.3820
  169RES   C17547551   0.469   4.267   4.674 -0.6022 -0.2271  0.0770
  169RES   H17647552   0.564   4.114   5.023 -0.4803  2.7346  0.3857
  169RES   H17747553   0.418   4.111   5.139  0.6543 -0.0106 -0.7321
  169RES   H17847554   0.397   4.070   4.843  0.2229 -0.5594  0.3511
  169RES   H17947555   0.301   4.333   4.948 -0.5747 -0.9964  0.0079
  169RES   H18047556   0.477   4.323   4.909 -0.5383  1.5625 -1.6976
  169RES   H18147557   0.557   4.321   4.709 -1.0059  1.5472 -1.5502
  169RES   H18247558   0.446   4.293   4.571 -2.9128  0.7847  0.8156
  169RES   H18347559   0.491   4.161   4.675  0.1131 -0.0721  1.1257
  169RES   O18447560   0.235   4.088   4.963 -0.2766 -0.3636 -0.5313
  169RES   C18547561   0.196   3.965   4.900  0.3497 -0.3172  0.2782
  169RES   C18647562   0.069   3.908   4.964 -0.5460  0.3713  0.2936
  169RES   C18747563   0.052   3.760   4.941  0.0779 -0.4451 -0.0989
  169RES   O18847564   7.751   3.707   5.006  0.2630  0.4939  0.9318
  169RES   C18947565   7.641   3.691   4.919 -0.1935  0.3722 -0.1997
  169RES   H19047566   0.268   3.883   4.906  0.3196 -0.4636 -1.3141
  169RES   H19147567   0.189   3.985   4.794  0.1626 -0.2616  0.3026
  169RES   H19247568   0.071   3.927   5.071 -1.4194  1.6789  0.0969
  169RES   H19347569   0.131   3.709   4.996  0.0429  0.0258  0.3875
  169RES   H19447570   0.055   3.739   4.834  0.9463  1.3369 -0.4394
  169RES   H19547571   7.664   3.611   4.849 -2.2957  0.2319 -0.7617
  169RES   H19647572   7.555   3.659   4.979  0.4747  0.5108  0.8504
  169RES   H19747573   7.625   3.785   4.867  1.2909  0.3045 -0.8064
  169RES   O19847574   7.766   3.965   4.916 -0.1582 -0.3477  0.8863
  169RES   C19947575   7.743   4.090   4.983  0.3560  0.2541 -0.4349
  169RES   C20047576   7.598   4.139   4.932 -0.9263  0.2865  0.3377
  169RES   C20147577   7.585   4.169   4.776  0.2803 -0.0857 -0.4143
  169RES   O20247578   7.449   4.162   4.732  0.0558 -0.3942 -1.1281
  169RES   C20347579   7.417   4.248   4.625  0.5911 -0.1023  0.6243
  169RES   H20447580   7.814   4.167   4.952 -0.8750  1.6130  0.0768
  169RES   H20547581   7.744   4.082   5.091  0.3470  2.0187 -0.2894
  169RES   H20647582   7.536   4.055   4.962  0.8436 -1.1468  0.0324
  169RES   H20747583   7.632   4.262   4.743  0.7364  0.3137  1.2969
  169RES   H20847584   7.622   4.080   4.725 -1.2631 -0.7363 -0.4294
  169RES   H20947585   7.318   4.229   4.583  1.0054  0.3700 -0.5919
  169RES   H21047586   7.491   4.230   4.546  1.2795  0.7733  1.0666
  169RES   H21147587   7.419   4.349   4.665 -0.2064 -0.0743  0.5950
  169RES   O21247588   7.566   4.261   5.007 -0.1924  1.0040 -0.0825
  169RES   C21347589   7.431   4.294   5.015 -0.4325  0.0228 -0.3369
  169RES   C21447590   7.399   4.385   5.140 -0.4152  0.3349 -0.1655
  169RES   C21547591   7.500   4.497   5.152 -0.5022  0.5437 -0.0866
  169RES   O21647592   7.440   4.601   5.227 -0.0132 -0.3168 -0.1273
  169RES   C21747593   7.501   4.728   5.219  0.2060  0.0972 -0.5410
  169RES   H21847594   7.361   4.211   5.018 -3.0461  2.1525 -0.8890
  169RES   H21947595   7.405   4.344   4.922 -0.2709 -0.3100 -0.5634
  169RES   H22047596   7.303   4.433   5.122  0.1718  1.3393 -0.6718
  169RES   H22147597   7.593   4.476   5.204  1.3993 -0.1041 -3.6481
  169RES   H22247598   7.522   4.535   5.053 -0.1886  1.2313  0.2422
  169RES   H22347599   7.547   4.752   5.123  0.4138  0.1359 -0.4322
  169RES   H22447600   7.589   4.717   5.283  0.5414 -4.3878 -1.6576
  169RES   H22547601   7.439   4.814   5.246  1.0982 -0.0799  2.2164
  169RES   O22647602   7.373   4.296   5.251 -0.2548  0.2147 -0.9650
  169RES   C22747603   7.481   4.220   5.303 -0.8762 -0.4415  0.0722
  169RES   C22847604   7.450   4.184   5.451 -0.1497 -0.1436  0.7781
  169RES   C22947605   7.483   4.036   5.478 -0.1786 -0.6027  0.9129
  169RES   O23047606   7.412   3.975   5.592 -0.2934  0.1281 -0.2838
  169RES   C23147607   7.415   3.835   5.596  0.1773  0.1287  0.1902
  169RES   H23247608   7.567   4.287   5.312 -1.3344  0.1891 -0.2057
  169RES   H23347609   7.512   4.145   5.230 -1.6312 -0.6845  0.0008
  169RES   H23447610   7.345   4.199   5.474 -0.1516  2.3091 -0.6040
  169RES   H23547611   7.590   4.016   5.485  0.3746  2.1044  0.5539
  169RES   H23647612   7.449   3.986   5.387 -3.8306  3.6380 -0.2153
  169RES   H23747613   7.331   3.787   5.646 -2.0657  1.7213 -1.9225
  169RES   H23847614   7.510   3.807   5.641  0.6200 -0.1237 -0.8807
  169RES   H23947615   7.410   3.796   5.494 -1.2476 -2.4524  1.1720
  169RES   O24047616   7.518   4.266   5.534 -0.1224  0.2744 -0.2614
  169RES   C24147617   7.484   4.405   5.558  0.0486  0.0215 -0.1826
  169RES   C24247618   7.586   4.468   5.655  0.5226  0.1829 -0.8346
  169RES   C24347619   7.607   4.615   5.627 -0.3306  0.1401 -0.0938
  169RES   O24447620   7.710   4.663   5.700 -0.4597  0.2909  0.1868
  169RES   C24547621   7.675   4.742   5.811 -0.5082 -0.4169 -0.3269
  169RES   H24647622   7.378   4.416   5.578 -0.0139 -0.5487 -0.2014
  169RES   H24747623   7.486   4.461   5.465 -1.1593 -1.0752 -0.8798
  169RES   H24847624   7.675   4.413   5.628  2.3696  2.2647  0.8269
  169RES   H24947625   7.631   4.633   5.522  0.7789  1.2470  0.3444
  169RES   H25047626   7.508   4.658   5.647 -1.4560 -2.6564  0.5561
  169RES   H25147627   7.597   4.818   5.805  0.6425  0.7155 -1.0943
  169RES   H25247628   7.754   4.807   5.848 -1.5633  1.5989 -1.5165
  169RES   H25347629   7.626   4.690   5.894  0.1303  0.3095  0.5089
  169RES   O25447630   7.544   4.457   5.790  0.4563  0.1207  0.2026
  169RES   C25547631   7.607   4.357   5.871 -0.2015  0.3160  0.1264
  169RES   C25647632   7.754   4.384   5.923 -0.3733 -0.1877 -0.0707
  169RES   C25747633   7.811   4.266   6.002  0.3482  0.0714 -0.6158
  169RES   O25847634   0.061   4.319   6.116 -0.3386 -0.7317 -0.1260
  169RES   C25947635   0.158   4.233   6.172 -0.5632  0.4019  0.4002
  169RES   H26047636   7.550   4.339   5.962  1.2914 -0.0499  1.0187
  169RES   H26147637   7.602   4.263   5.817 -3.0167 -0.5004  1.7071
  169RES   H26247638   7.745   4.468   5.991  1.9649  0.3752 -0.4076
  169RES   H26347639   7.730   4.202   6.039  1.3221 -0.7941  0.0659
  169RES   H26447640   0.053   4.190   5.951 -1.7971 -2.9473  1.1845
  169RES   H26547641   0.209   4.275   6.259 -0.2593 -0.8093  0.8111
  169RES   H26647642   0.228   4.204   6.093 -0.8528 -0.5412  0.4890
  169RES   H26747643   0.100   4.149   6.209 -0.9784  1.3913  2.0116
  169RES   O26847644   0.015   4.407   5.806  0.0033  0.6529  0.8025
  169RES   C26947645   0.147   4.460   5.821  0.2906  0.7948 -0.3019
  169RES   C27047646   0.204   4.472   5.685 -0.2710 -0.0633 -0.3328
  169RES   C27147647   0.341   4.541   5.676  0.1126  0.2140  0.0870
  169RES   O27247648   0.359   4.599   5.547 -0.3383  0.0492 -0.2508
  169RES   C27347649   0.458   4.700   5.540 -0.2238 -0.0087  0.1255
  169RES   H27447650   0.212   4.399   5.884 -1.0057  0.4199  0.6815
  169RES   H27547651   0.139   4.563   5.857  1.5653  0.5027  0.8629
  169RES   H27647652   0.218   4.370   5.649 -1.3671  0.1279 -1.3253
  169RES   H27747653   0.425   4.477   5.701 -1.0795 -1.6437 -0.5233
  169RES   H27847654   0.330   4.620   5.750 -2.3810  0.9572 -1.0152
  169RES   H27947655   0.463   4.758   5.632  1.7567 -0.8121  0.5723
  169RES   H28047656   0.440   4.761   5.452  0.7202  0.3295  0.1608
  169RES   H28147657   0.561   4.666   5.523 -0.6460 -0.8623 -0.7856
  169RES   H28247658   0.134   4.528   5.623 -0.7064  0.1607  0.3534
  170RES     O147659   2.284   1.090   0.744 -0.2795 -0.5792  0.8333
  170RES     C247660   2.228   1.207   0.685 -0.1425 -0.6820  0.0570
  170RES     C347661   2.194   1.298   0.799  0.5496 -0.4555 -0.0660
  170RES     C447662   2.111   1.418   0.748 -0.8468 -1.0825 -0.4861
  170RES     O547663   2.000   1.367   0.684  0.8666 -0.3993  0.4162
  170RES     C647664   1.898   1.456   0.632 -0.1286  0.2907 -0.2984
  170RES     H747665   2.288   1.245   0.602  0.7829  0.5840  1.3022
  170RES     H847666   2.138   1.173   0.634  0.0635  2.4190 -2.5607
  170RES     H947667   2.291   1.332   0.834 -0.4533  1.1318  1.2340
  170RES    H1047668   2.153   1.484   0.672 -1.0453 -1.1498 -0.6529
  170RES    H1147669   2.082   1.479   0.834  1.1493 -1.3965  0.4659
  170RES    H1247670   1.808   1.397   0.614  0.5738 -0.6786 -0.6781
  170RES    H1347671   1.881   1.551   0.682 -2.0241 -0.7646  1.0990
  170RES    H1447672   1.922   1.475   0.527 -0.7078  2.6194 -0.0236
  170RES    H1547673   2.233   1.072   0.822 -1.5168  0.0225  0.1559
  170RES    O1647674   2.118   1.235   0.903 -0.3502 -0.1278  0.1118
  170RES    C1747675   2.136   1.279   1.036 -0.5686 -0.2946  0.1173
  170RES    C1847676   2.158   1.169   1.139  0.1177 -0.4596  0.3858
  170RES    C1947677   2.028   1.104   1.183  0.3417  0.3919 -0.3595
  170RES    O2047678   2.058   1.022   1.294  0.0840  0.1639 -0.0469
  170RES    C2147679   1.950   0.961   1.351  0.8277  0.2145  0.2246
  170RES    H2247680   2.059   1.355   1.050 -0.3461  0.0623 -0.5878
  170RES    H2347681   2.227   1.336   1.051 -0.2553 -1.1074  1.4054
  170RES    H2447682   2.201   1.228   1.221  0.4831  1.5348 -1.1999
  170RES    H2547683   1.963   1.185   1.218 -1.2926  0.2333 -2.8727
  170RES    H2647684   1.959   1.059   1.111  0.6975 -0.2487 -0.2927
  170RES    H2747685   1.918   0.887   1.278 -0.7510  1.5695 -0.4785
  170RES    H2847686   1.861   1.023   1.362 -0.3893 -1.1385 -1.5462
  170RES    H2947687   1.980   0.916   1.446  2.3339  0.1055 -0.2827
  170RES    O3047688   2.240   1.058   1.102 -0.2174  0.0489 -0.7141
  170RES    C3147689   2.382   1.073   1.124  0.5250  0.0896 -0.2641
  170RES    C3247690   2.413   1.040   1.273 -0.2045 -0.4647  0.0566
  170RES    C3347691   2.537   1.125   1.325 -0.5347  0.5224  0.1416
  170RES    O3447692   2.548   1.092   1.464 -0.3841 -0.3607 -0.0116
  170RES    C3547693   2.682   1.102   1.511 -0.8065 -0.0679 -0.6169
  170RES    H3647694   2.432   1.000   1.061  0.8844 -0.0913  0.2254
  170RES    H3747695   2.414   1.174   1.094 -0.1584  1.1032  2.2994
  170RES    H3847696   2.324   1.047   1.336 -0.2678  0.2452 -0.1064
  170RES    H3947697   2.525   1.232   1.303 -1.5872  0.7392  1.6839
  170RES    H4047698   2.628   1.099   1.270 -1.0634 -1.2312  0.0866
  170RES    H4147699   2.702   1.209   1.505  0.5725 -0.3351 -0.9619
  170RES    H4247700   2.761   1.051   1.455  0.4009  0.9673  0.1314
  170RES    H4347701   2.692   1.065   1.613  3.2198  1.0236 -0.5396
  170RES    O4447702   2.454   0.909   1.289  0.5219  0.0014 -0.6264
  170RES    C4547703   2.360   0.810   1.262 -0.2783  0.3648 -0.3670
  170RES    C4647704   2.418   0.677   1.324  1.2408  0.0997  0.2592
  170RES    C4747705   2.565   0.666   1.279  0.5858  0.6274 -0.1459
  170RES    O4847706   2.624   0.539   1.306  0.6447  0.4465  0.4212
  170RES    C4947707   2.763   0.530   1.287 -0.4526 -0.7001  0.6919
  170RES    H5047708   2.365   0.783   1.156  2.2313 -1.9263  0.2735
  170RES    H5147709   2.262   0.830   1.307  0.1562  1.3867  0.1355
  170RES    H5247710   2.359   0.592   1.288  2.2098 -1.1926  1.6278
  170RES    H5347711   2.560   0.689   1.173 -3.0670  0.9927  0.0635
  170RES    H5447712   2.623   0.745   1.328  0.7251  0.1003  0.5409
  170RES    H5547713   2.825   0.568   1.368  1.5042 -1.1338 -0.5713
  170RES    H5647714   2.790   0.569   1.189  0.0781 -2.6324  0.0543
  170RES    H5747715   2.795   0.427   1.301  0.0048 -0.9534 -1.9767
  170RES    O5847716   2.407   0.682   1.465 -0.2610 -0.0058  0.2383
  170RES    C5947717   2.432   0.557   1.532  0.1182  0.0696 -0.1285
  170RES    C6047718   2.382   0.557   1.677  0.2523  0.4520 -0.4619
  170RES    C6147719   2.433   0.433   1.755 -0.7799 -0.9177 -0.5369
  170RES    O6247720   2.374   0.427   1.888 -0.2178 -0.1590 -0.3213
  170RES    C6347721   2.418   0.515   1.984 -0.6345 -0.3373  0.3336
  170RES    H6447722   2.541   0.549   1.524  0.0995 -0.3595  0.0263
  170RES    H6547723   2.396   0.472   1.475  2.6640 -0.4112 -1.1166
  170RES    H6647724   2.409   0.647   1.733  1.4612  0.4846 -1.0751
  170RES    H6747725   2.416   0.340   1.701  0.6948 -0.9321 -0.9828
  170RES    H6847726   2.542   0.433   1.747 -0.9634 -1.4435 -3.7553
  170RES    H6947727   2.344   0.529   2.063  0.0297  0.8851  0.7512
  170RES    H7047728   2.437   0.618   1.953  1.5140 -0.9810 -0.5632
  170RES    H7147729   2.514   0.493   2.031 -1.0815  0.3243  1.5858
  170RES    O7247730   2.247   0.542   1.664  0.3594  0.5037  0.5562
  170RES    C7347731   2.183   0.669   1.653  0.0878  0.9229  0.2718
  170RES    C7447732   2.036   0.654   1.699 -0.0777  0.4888 -0.0109
  170RES    C7547733   1.947   0.587   1.595 -0.4020 -0.3868 -0.3998
  170RES    O7647734   1.817   0.552   1.645  0.2545  0.1370 -0.0260
  170RES    C7747735   1.747   0.484   1.542  0.0857  0.0435 -0.4082
  170RES    H7847736   2.223   0.740   1.726 -2.1806  0.1908  2.3002
  170RES    H7947737   2.176   0.703   1.550  0.9234  0.4753  0.0580
  170RES    H8047738   2.046   0.593   1.789  3.3458 -0.2016 -0.7658
  170RES    H8147739   1.995   0.491   1.574 -0.6899 -0.9065  1.2372
  170RES    H8247740   1.944   0.646   1.504  1.4536  0.7344  0.2209
  170RES    H8347741   1.736   0.548   1.455 -1.0591  0.7066  0.2098
  170RES    H8447742   1.645   0.454   1.566  0.4592  0.2980  1.5957
  170RES    H8547743   1.790   0.385   1.524  0.4246 -0.3514  2.2993
  170RES    O8647744   1.976   0.774   1.748 -0.7206 -0.0776 -0.3649
  170RES    C8747745   1.917   0.762   1.876 -0.0838  0.3620 -0.4694
  170RES    C8847746   1.849   0.897   1.909 -0.1699 -0.1251 -0.0272
  170RES    C8947747   1.775   0.897   2.044 -0.4126 -0.4725 -0.1938
  170RES    O9047748   1.681   1.001   2.058  0.1138  0.4782 -0.1894
  170RES    C9147749   1.608   1.007   2.173 -0.3362  0.5508 -0.8743
  170RES    H9247750   1.846   0.679   1.879  0.3248  0.0646  1.2769
  170RES    H9347751   1.994   0.747   1.952 -0.5241  0.9958  0.1085
  170RES    H9447752   1.771   0.919   1.837 -1.0463  0.9907  1.2280
  170RES    H9547753   1.729   0.801   2.066  0.6322 -1.3335 -1.7166
  170RES    H9647754   1.845   0.896   2.127 -1.1811 -1.1301  0.4580
  170RES    H9747755   1.542   0.921   2.184  0.1104  0.2746 -0.3209
  170RES    H9847756   1.680   1.015   2.255 -0.2995  1.4725 -0.9953
  170RES    H9947757   1.545   1.095   2.177  1.1602  1.6214 -0.4411
  170RES   O10047758   1.948   1.007   1.900  0.3624 -0.5974 -0.2774
  170RES   C10147759   1.883   1.129   1.860  0.5855  0.5328  0.4997
  170RES   C10247760   1.984   1.231   1.820 -0.1440 -0.6544  0.0981
  170RES   C10347761   2.073   1.167   1.706 -0.4787  0.1544 -0.1159
  170RES   O10447762   2.143   1.271   1.629 -0.1252 -0.2031  0.3421
  170RES   C10547763   2.241   1.216   1.544  0.3481  0.8146 -0.1168
  170RES   H10647764   1.831   1.164   1.950 -1.3251 -1.2005  0.1082
  170RES   H10747765   1.814   1.114   1.777  1.8223  0.9567 -0.6103
  170RES   H10847766   1.938   1.315   1.768 -0.6639 -1.4926 -0.7962
  170RES   H10947767   2.004   1.116   1.638 -0.0107  0.8313 -1.1225
  170RES   H11047768   2.141   1.095   1.750  2.1048  1.4723 -1.8630
  170RES   H11147769   2.209   1.125   1.493 -1.9736  0.6946  1.4576
  170RES   H11247770   2.332   1.198   1.601 -1.2907 -1.9521  1.7336
  170RES   H11347771   2.266   1.282   1.461  1.9650  0.9357  0.4556
  170RES   O11447772   2.063   1.265   1.933 -0.4184  0.0089 -0.6370
  170RES   C11547773   2.107   1.400   1.936 -0.0507 -0.3188 -0.0381
  170RES   C11647774   2.259   1.413   1.958 -0.1052  0.3832 -0.0331
  170RES   C11747775   2.336   1.546   1.919 -0.1750  0.0109 -0.2942
  170RES   O11847776   2.477   1.516   1.905  0.4623  0.1964  0.2281
  170RES   C11947777   2.504   1.483   1.764 -0.4175 -0.3335  0.1137
  170RES   H12047778   2.081   1.456   1.846 -1.5048 -0.0998  0.5000
  170RES   H12147779   2.054   1.450   2.018 -1.3330 -1.3913 -0.1941
  170RES   H12247780   2.296   1.339   1.886 -1.0088 -0.9148  0.8110
  170RES   H12347781   2.308   1.601   1.829  3.0453 -0.7289 -1.8313
  170RES   H12447782   2.312   1.617   1.998 -0.2081  0.6494 -0.8658
  170RES   H12547783   2.501   1.570   1.698 -2.3998 -0.1558  0.3956
  170RES   H12647784   2.438   1.402   1.733 -2.8617  2.5660 -2.5854
  170RES   H12747785   2.606   1.445   1.757 -0.3055 -0.2561  1.2693
  170RES   O12847786   2.287   1.387   2.093  0.1899 -0.2554 -0.1025
  170RES   C12947787   2.382   1.278   2.124 -0.5341 -0.1115  0.7181
  170RES   C13047788   2.438   1.287   2.262  0.2837  0.1593 -0.1229
  170RES   C13147789   2.326   1.286   2.362 -0.3781  0.6331  0.2702
  170RES   O13247790   2.378   1.279   2.491  0.1570 -0.6672 -0.0947
  170RES   C13347791   2.272   1.265   2.589 -0.0646  0.5281 -0.1753
  170RES   H13447792   2.337   1.183   2.097 -2.4902  1.4718 -1.9215
  170RES   H13547793   2.462   1.280   2.050 -0.3349 -0.6269  0.9175
  170RES   H13647794   2.508   1.204   2.272  0.5166 -0.0042 -2.6735
  170RES   H13747795   2.267   1.197   2.345  0.5832 -0.4800  2.4950
  170RES   H13847796   2.270   1.379   2.356 -2.0968 -0.1950  2.6959
  170RES   H13947797   2.325   1.261   2.684 -0.3922 -0.1118 -0.0199
  170RES   H14047798   2.206   1.352   2.582  0.3748  1.1089  2.3027
  170RES   H14147799   2.215   1.173   2.575  1.8456 -0.4936 -1.4055
  170RES   O14247800   2.514   1.409   2.282  0.2370  0.4124  0.0019
  170RES   C14347801   2.636   1.385   2.342  0.2775  0.7297 -0.1275
  170RES   C14447802   2.724   1.508   2.336 -0.4926  0.3431  0.2169
  170RES   C14547803   2.867   1.477   2.385 -0.2342  0.3817 -0.2360
  170RES   O14647804   2.956   1.505   2.285  0.6430 -0.1654 -0.1693
  170RES   C14747805   3.079   1.449   2.321 -1.2971 -0.0573 -0.1359
  170RES   H14847806   2.627   1.362   2.448  0.1268  0.6087 -0.1672
  170RES   H14947807   2.687   1.299   2.299 -2.8524 -0.7522 -1.0055
  170RES   H15047808   2.738   1.553   2.238  0.1383  0.8611  0.5390
  170RES   H15147809   2.878   1.370   2.402 -2.2454  0.2065  0.0613
  170RES   H15247810   2.908   1.535   2.468  1.2735 -2.3442  0.9756
  170RES   H15347811   3.122   1.492   2.411 -0.3173 -1.0536 -0.1151
  170RES   H15447812   3.142   1.468   2.234 -0.2259 -1.8085  0.2436
  170RES   H15547813   3.081   1.341   2.336  0.5447  0.2209  1.9561
  170RES   O15647814   2.669   1.609   2.416 -0.4556  0.1411 -0.4878
  170RES   C15747815   2.573   1.694   2.356  0.8302 -0.2470  0.0206
  170RES   C15847816   2.449   1.678   2.449  0.2293 -0.8614 -0.0259
  170RES   C15947817   2.348   1.799   2.421 -0.5302  0.0957 -0.1036
  170RES   O16047818   2.283   1.797   2.294  0.7786 -0.3125 -0.2883
  170RES   C16147819   2.172   1.710   2.289 -0.0706 -0.4574  0.0356
  170RES   H16247820   2.619   1.793   2.353  1.8017 -0.7592 -3.9169
  170RES   H16347821   2.551   1.684   2.250  2.4436 -0.4884 -0.3020
  170RES   H16447822   2.409   1.579   2.427 -0.4101 -0.8024  0.8647
  170RES   H16547823   2.280   1.807   2.506 -0.5064 -0.8166  0.0093
  170RES   H16647824   2.404   1.890   2.400 -0.7634 -0.2867 -2.5074
  170RES   H16747825   2.104   1.733   2.371  2.0831  0.6335  1.6121
  170RES   H16847826   2.202   1.606   2.299 -0.2419 -0.5968 -0.8778
  170RES   H16947827   2.126   1.716   2.191  0.3151 -2.3051 -0.2729
  170RES   O17047828   2.477   1.692   2.591  0.3473  0.4673  0.1706
  170RES   C17147829   2.475   1.571   2.659 -0.2558 -0.7691 -0.3755
  170RES   C17247830   2.551   1.569   2.792  0.6541 -0.2477 -0.0675
  170RES   C17347831   2.700   1.568   2.767  0.3618  0.1921 -0.1393
  170RES   O17447832   2.779   1.575   2.891  0.2524 -0.1875 -0.2502
  170RES   C17547833   2.910   1.589   2.858 -0.5340 -0.0124  0.0004
  170RES   H17647834   2.516   1.488   2.601 -1.1565 -1.8163  0.4767
  170RES   H17747835   2.374   1.546   2.690 -0.6513  0.7904 -0.3223
  170RES   H17847836   2.537   1.660   2.850 -3.1806 -0.3373 -0.7678
  170RES   H17947837   2.724   1.475   2.715  0.0494  1.6562 -3.0231
  170RES   H18047838   2.718   1.652   2.699 -0.3888 -0.9263 -1.7489
  170RES   H18147839   2.920   1.685   2.807  2.5809  0.5672  1.5471
  170RES   H18247840   2.951   1.506   2.800 -0.7708  0.5370 -0.9559
  170RES   H18347841   2.968   1.603   2.950 -0.6554  2.8580 -0.3115
  170RES   O18447842   2.503   1.450   2.861  0.0318  0.2977 -0.3769
  170RES   C18547843   2.489   1.456   3.006 -0.2170  0.2622 -0.1928
  170RES   C18647844   2.451   1.315   3.063  0.3356  0.7753  0.5964
  170RES   C18747845   2.364   1.332   3.190  0.1846 -0.0737 -0.6483
  170RES   O18847846   2.301   1.204   3.209  0.1163 -0.2999  0.0570
  170RES   C18947847   2.206   1.210   3.316 -0.0213  0.0149  0.1339
  170RES   H19047848   2.413   1.531   3.029  0.5478  0.9209  0.2113
  170RES   H19147849   2.576   1.502   3.054  0.3644  0.2178 -1.1857
  170RES   H19247850   2.393   1.259   2.989  1.4859 -0.5785  0.6967
  170RES   H19347851   2.290   1.410   3.172 -0.1183 -0.5264 -1.4011
  170RES   H19447852   2.429   1.361   3.273  0.6684 -2.2526 -0.2233
  170RES   H19547853   2.113   1.257   3.286  0.2506  0.7066  0.3578
  170RES   H19647854   2.193   1.102   3.328  2.1281 -0.5852 -2.2917
  170RES   H19747855   2.239   1.259   3.407  2.2402 -0.3926 -0.4218
  170RES   O19847856   2.574   1.253   3.105  0.7473 -0.3774  1.0005
  170RES   C19947857   2.657   1.213   2.992  0.7823  0.0447  0.0066
  170RES   C20047858   2.767   1.122   3.041 -0.1233 -0.4705  0.0232
  170RES   C20147859   2.890   1.094   2.944  0.4954 -0.1929  0.6637
  170RES   O20247860   3.005   1.058   3.018  0.4023 -0.0029  0.3399
  170RES   C20347861   3.109   0.997   2.940 -0.9877  0.1092 -0.1249
  170RES   H20447862   2.695   1.305   2.948  1.5685 -0.5827 -0.6463
  170RES   H20547863   2.598   1.161   2.917  2.3461 -1.3218 -0.2984
  170RES   H20647864   2.808   1.154   3.137 -1.5678 -0.5529  0.6751
  170RES   H20747865   2.851   1.019   2.875 -3.4874  0.8858  1.6300
  170RES   H20847866   2.919   1.188   2.896 -0.2308 -0.3058 -0.0035
  170RES   H20947867   3.062   0.911   2.892 -0.8526  0.3218 -0.6422
  170RES   H21047868   3.197   0.966   2.997 -0.8791 -1.7151 -1.2289
  170RES   H21147869   3.152   1.058   2.861  0.5447  0.5622  1.0229
  170RES   O21247870   2.696   1.003   3.072 -0.3259 -0.9659 -0.2495
  170RES   C21347871   2.758   0.907   3.159  1.0475 -0.4911  0.6258
  170RES   C21447872   2.742   0.924   3.307 -0.5181 -0.4518 -0.4617
  170RES   C21547873   2.599   0.955   3.355 -0.1536  0.6482  0.2293
  170RES   O21647874   2.565   0.891   3.477  0.3037 -0.1774 -0.1220
  170RES   C21747875   2.421   0.897   3.496 -0.7339 -0.0936  0.0912
  170RES   H21847876   2.862   0.903   3.127  0.9249  0.4661  0.0765
  170RES   H21947877   2.708   0.816   3.124 -1.4039  1.0118  0.0836
  170RES   H22047878   2.761   0.826   3.352  2.8187  0.1828 -0.4058
  170RES   H22147879   2.588   1.062   3.372 -1.0904  0.4220  1.0598
  170RES   H22247880   2.530   0.921   3.278 -0.5495  0.8863  0.4844
  170RES   H22347881   2.369   0.831   3.425 -2.1513  0.2185  0.8190
  170RES   H22447882   2.386   0.996   3.468  0.8236 -0.3204 -2.8204
  170RES   H22547883   2.402   0.866   3.599 -1.3713 -2.5108 -0.7075
  170RES   O22647884   2.842   1.024   3.344 -0.1045  0.1535  0.7938
  170RES   C22747885   2.860   1.017   3.487 -0.3849 -0.1008 -0.2547
  170RES   C22847886   3.011   1.045   3.522  0.0816  0.6173 -0.3086
  170RES   C22947887   3.019   1.065   3.673  0.2723  0.2113 -0.1161
  170RES   O23047888   3.154   1.060   3.719  0.0694 -0.1356  0.0657
  170RES   C23147889   3.176   0.969   3.828  0.5749  0.4671  0.0500
  170RES   H23247890   2.829   0.926   3.537  0.5599  1.5631  3.5786
  170RES   H23347891   2.802   1.098   3.532 -2.3253 -0.2953 -2.3399
  170RES   H23447892   3.057   1.134   3.478 -1.3929  0.7698 -1.5937
  170RES   H23547893   2.953   0.993   3.721 -1.3546 -0.0296 -2.6599
  170RES   H23647894   2.984   1.167   3.692 -0.0481 -0.5727  3.9461
  170RES   H23747895   3.118   1.003   3.913 -2.5286  1.4860 -2.3675
  170RES   H23847896   3.274   0.973   3.875 -0.5334  0.8999  2.3626
  170RES   H23947897   3.149   0.866   3.805 -0.1049  0.0171  2.7951
  170RES   O24047898   3.079   0.928   3.481 -0.3802 -0.7773 -0.4955
  170RES   C24147899   3.141   0.928   3.355 -0.5933 -0.4148 -0.3214
  170RES   C24247900   3.194   0.786   3.352 -1.0940  0.1628 -0.1595
  170RES   C24347901   3.218   0.734   3.209 -0.2592  0.1464  0.9100
  170RES   O24447902   3.285   0.613   3.190  0.3212  0.2227  0.0501
  170RES   C24547903   3.233   0.539   3.081  0.3096  0.0469 -0.2566
  170RES   H24647904   3.213   1.008   3.340 -0.6837 -0.3090 -0.1810
  170RES   H24747905   3.071   0.938   3.272  1.0895 -0.9415 -1.8482
  170RES   H24847906   3.114   0.724   3.392  0.2126 -1.7380 -0.4209
  170RES   H24947907   3.133   0.749   3.142 -0.5124 -0.2747  1.1352
  170RES   H25047908   3.295   0.792   3.160 -0.8465  0.9016  0.8706
  170RES   H25147909   3.307   0.477   3.032  1.7737  0.6465  1.1525
  170RES   H25247910   3.209   0.598   2.992 -1.6985  1.1873  1.0127
  170RES   H25347911   3.138   0.488   3.095 -0.3988  1.4431  0.0953
  170RES   O25447912   3.320   0.771   3.422  0.1968  0.2156 -0.3313
  170RES   C25547913   3.312   0.783   3.563  0.4092  0.2205 -0.0335
  170RES   C25647914   3.453   0.748   3.613  0.6668 -0.0106 -0.1363
  170RES   C25747915   3.504   0.608   3.571 -0.3122 -0.3568  0.4510
  170RES   O25847916   3.553   0.526   3.677  0.7750 -0.2409 -0.2357
  170RES   C25947917   3.459   0.487   3.764 -0.1918 -0.2032 -0.1926
  170RES   H26047918   3.280   0.883   3.591 -2.3392 -0.3557 -0.9968
  170RES   H26147919   3.245   0.702   3.593  2.2060 -1.3714 -0.2198
  170RES   H26247920   3.455   0.740   3.721  2.4816 -1.5671 -0.2669
  170RES   H26347921   3.427   0.549   3.519 -0.4987  1.7979 -1.8111
  170RES   H26447922   3.587   0.623   3.502  0.8385 -1.0086  1.6744
  170RES   H26547923   3.514   0.435   3.843  1.0151  1.6890  0.2268
  170RES   H26647924   3.391   0.413   3.722 -1.7472  0.3082  1.3923
  170RES   H26747925   3.403   0.565   3.815  0.9435 -0.3606  1.3251
  170RES   O26847926   3.547   0.845   3.572  0.1465 -0.3878  0.3547
  170RES   C26947927   3.532   0.977   3.609 -0.1862  0.6955 -0.4878
  170RES   C27047928   3.662   1.045   3.559 -0.0145  0.0740  0.6437
  170RES   C27147929   3.647   1.083   3.412  0.2032  0.6401  0.0875
  170RES   O27247930   3.754   1.140   3.345  0.3554 -0.6740 -0.1434
  170RES   C27347931   3.723   1.178   3.210  0.1879 -0.6042 -0.1112
  170RES   H27447932   3.526   0.984   3.717  2.0654 -0.3654 -0.2732
  170RES   H27547933   3.442   1.024   3.568  0.1614 -0.8026 -3.0639
  170RES   H27647934   3.678   1.132   3.622 -2.1129  0.3522  0.8260
  170RES   H27747935   3.554   1.137   3.400 -0.0041  0.7311  1.9454
  170RES   H27847936   3.654   0.985   3.365  0.5572  0.4992  0.4245
  170RES   H27947937   3.811   1.229   3.171 -0.6722  0.6687 -0.4343
  170RES   H28047938   3.648   1.257   3.204 -0.0387 -0.7249  0.9949
  170RES   H28147939   3.699   1.085   3.159  0.1470 -1.7734  1.9519
  170RES   H28247940   3.751   0.984   3.574 -0.0002 -0.7644 -2.3388
  171RES     O147941   6.931   2.973   6.362  0.5824  0.2557 -0.3236
  171RES     C247942   6.858   3.068   6.433  0.0518 -0.7762  0.5991
  171RES     C347943   6.768   3.146   6.337  0.1634 -0.2029 -0.4486
  171RES     C447944   6.681   3.246   6.422  0.0315  0.4735 -0.0929
  171RES     O547945   6.774   3.313   6.508  0.4487  0.0117  0.1177
  171RES     C647946   6.705   3.396   6.604  0.5054 -0.4755 -0.3544
  171RES     H747947   6.796   3.012   6.504 -1.4116  1.4613  1.1446
  171RES     H847948   6.926   3.125   6.496 -1.5381 -0.6077  2.2156
  171RES     H947949   6.693   3.081   6.292 -1.8934  0.8612  1.3554
  171RES    H1047950   6.612   3.195   6.490  0.1713  0.8222  0.3179
  171RES    H1147951   6.618   3.312   6.362  0.6185  0.0738 -1.1543
  171RES    H1247952   6.667   3.343   6.691 -1.7512  2.2467  0.4078
  171RES    H1347953   6.775   3.469   6.645 -0.2834 -0.1508  0.4363
  171RES    H1447954   6.619   3.451   6.565 -1.1034 -1.8895  1.1511
  171RES    H1547955   6.961   3.020   6.285  0.0620 -0.5262 -1.0028
  171RES    O1647956   6.843   3.226   6.241  0.2356 -0.3741  0.0891
  171RES    C1747957   6.853   3.157   6.115  0.5521  0.5618 -0.2832
  171RES    C1847958   6.971   3.207   6.039 -0.1646 -0.0802  0.2915
  171RES    C1947959   6.984   3.359   6.039  0.9116  0.1739  0.2448
  171RES    O2047960   7.081   3.403   5.937  0.1445  0.0077 -0.1905
  171RES    C2147961   7.089   3.545   5.913  0.4706  0.2246  0.5635
  171RES    H2247962   6.765   3.172   6.053 -0.8142  1.1431  1.7438
  171RES    H2347963   6.855   3.049   6.133 -0.4250  0.5647 -0.1075
  171RES    H2447964   6.971   3.160   5.941  0.2312  0.8009 -0.1386
  171RES    H2547965   6.889   3.403   6.009  1.3241  1.3860  0.6789
  171RES    H2647966   7.012   3.400   6.136 -0.4477  2.2653 -0.2155
  171RES    H2747967   7.075   3.601   6.005 -1.0596  0.8659 -0.0306
  171RES    H2847968   7.007   3.593   5.860 -1.4605 -0.7799  2.6036
  171RES    H2947969   7.177   3.566   5.852  0.5898 -3.5517 -0.6881
  171RES    O3047970   7.081   3.147   6.094 -0.1383 -0.3905  0.2386
  171RES    C3147971   7.205   3.167   6.042 -0.4621 -0.4459 -0.1030
  171RES    C3247972   7.287   3.044   6.086  0.4393 -0.1855  0.1629
  171RES    C3347973   7.440   3.079   6.095 -0.2878 -0.0644  0.4237
  171RES    O3447974   7.506   2.968   6.160 -0.3708  0.6696  0.7360
  171RES    C3547975   7.642   2.994   6.195 -0.3856  0.1539 -0.3421
  171RES    H3647976   7.191   3.179   5.935 -0.0442 -0.4105 -0.1572
  171RES    H3747977   7.250   3.261   6.075  2.2038 -1.5312 -0.4672
  171RES    H3847978   7.255   3.015   6.186  1.4814 -2.5324 -0.1376
  171RES    H3947979   7.446   3.169   6.155  0.0631 -1.6862  2.8801
  171RES    H4047980   7.494   3.096   6.001  0.4604  0.5214  0.9502
  171RES    H4147981   7.638   3.091   6.245 -0.2947 -0.6145  1.1940
  171RES    H4247982   7.722   3.009   6.123  1.0967  3.4075  1.8783
  171RES    H4347983   7.690   2.926   6.266 -2.0306  0.9911  1.6249
  171RES    O4447984   7.261   2.948   5.982 -0.5013  0.1236  0.1057
  171RES    C4547985   7.287   2.819   6.026  0.3859 -0.1283 -0.1062
  171RES    C4647986   7.273   2.707   5.915 -0.5681  0.8230  0.6247
  171RES    C4747987   7.347   2.574   5.949 -0.0552  0.9640  0.5394
  171RES    O4847988   7.430   2.524   5.838 -0.4084 -0.5432 -0.2130
  171RES    C4947989   7.361   2.444   5.737  0.3171  0.0975  0.2642
  171RES    H5047990   7.234   2.785   6.115 -3.6032  2.3542 -1.3772
  171RES    H5147991   7.392   2.809   6.054  0.0049 -1.7971  0.8083
  171RES    H5247992   7.326   2.742   5.827  0.8811 -1.8224  0.3907
  171RES    H5347993   7.421   2.591   6.027  1.4530 -1.4549 -0.3045
  171RES    H5447994   7.296   2.492   5.998  0.4687 -0.1500 -0.7475
  171RES    H5547995   7.308   2.358   5.776  3.0870 -2.4832 -1.4647
  171RES    H5647996   7.437   2.399   5.673  1.0925  0.1459  1.1443
  171RES    H5747997   7.298   2.520   5.689 -2.1918 -1.0727  1.5934
  171RES    O5847998   7.145   2.686   5.862  0.1427  0.0255  0.0572
  171RES    C5947999   7.038   2.657   5.956 -0.2608  0.1844  0.6732
  171RES    C6048000   6.900   2.612   5.886 -0.1801  0.6013  0.1198
  171RES    C6148001   6.800   2.583   6.002  0.2007  0.6459  0.0714
  171RES    O6248002   6.668   2.556   5.952  0.3835  0.3341  0.0589
  171RES    C6348003   6.580   2.536   6.059  0.5874 -0.4655  0.7703
  171RES    H6448004   7.006   2.739   6.019  1.5094  1.5137 -0.1334
  171RES    H6548005   7.074   2.575   6.018  0.0086 -0.2373 -0.0339
  171RES    H6648006   6.867   2.696   5.826  1.6816  1.2404 -0.0582
  171RES    H6748007   6.837   2.495   6.054  1.2576  0.2074 -1.3994
  171RES    H6848008   6.797   2.671   6.066 -0.2668  0.7684 -0.1156
  171RES    H6948009   6.607   2.449   6.120 -0.0154 -0.9749  0.3258
  171RES    H7048010   6.485   2.508   6.014  0.4465 -1.7940  1.8656
  171RES    H7148011   6.564   2.625   6.119  0.9624 -0.3541  0.7095
  171RES    O7248012   6.929   2.498   5.802 -0.1086  0.1568 -0.9614
  171RES    C7348013   6.983   2.527   5.670 -0.7286  0.1984 -0.6506
  171RES    C7448014   6.943   2.420   5.577 -0.0285 -0.3009 -0.1836
  171RES    C7548015   7.036   2.434   5.451 -0.2734 -0.3066  0.0077
  171RES    O7648016   7.167   2.395   5.490  0.1303  0.2242 -0.1203
  171RES    C7748017   7.255   2.364   5.385  0.0551 -0.5431 -0.0319
  171RES    H7848018   6.932   2.617   5.635 -1.0738 -0.0607 -0.8186
  171RES    H7948019   7.089   2.551   5.668 -1.0588  1.7199 -0.3519
  171RES    H8048020   6.975   2.333   5.635  2.5593  2.2542  2.3383
  171RES    H8148021   7.035   2.537   5.415 -0.7394 -1.1452 -2.4431
  171RES    H8248022   7.014   2.373   5.364  0.8021 -2.5448  1.2696
  171RES    H8348023   7.227   2.274   5.330 -2.8357  0.2462  0.0616
  171RES    H8448024   7.358   2.352   5.417 -0.0951 -3.8704 -0.5237
  171RES    H8548025   7.243   2.446   5.315  1.4791 -0.0959  0.2545
  171RES    O8648026   6.814   2.414   5.529 -0.2995 -0.0850 -0.5738
  171RES    C8748027   6.713   2.381   5.633  0.7122  0.1072 -0.3617
  171RES    C8848028   6.585   2.431   5.566 -0.1072 -0.2335 -0.1042
  171RES    C8948029   6.471   2.414   5.669  0.1046  0.1379 -0.3153
  171RES    O9048030   6.338   2.419   5.620 -0.0274 -0.0350  0.4560
  171RES    C9148031   6.242   2.408   5.723 -0.1978  0.3597 -0.2335
  171RES    H9248032   6.710   2.273   5.643  1.5696  0.0942 -0.1990
  171RES    H9348033   6.722   2.437   5.726 -1.6830  0.2807 -0.2137
  171RES    H9448034   6.557   2.372   5.478 -0.3723 -1.3029  0.6848
  171RES    H9548035   6.475   2.316   5.717 -1.5102  0.1044 -0.2148
  171RES    H9648036   6.487   2.484   5.751  2.2240  2.5694 -2.7349
  171RES    H9748037   6.138   2.412   5.690  0.0034 -3.2831 -1.5341
  171RES    H9848038   6.238   2.308   5.766 -2.3722  0.6792  0.3611
  171RES    H9948039   6.260   2.477   5.805 -2.1602 -0.3787  0.8456
  171RES   O10048040   6.593   2.572   5.554  0.2051 -0.5309  0.5508
  171RES   C10148041   6.600   2.625   5.422  0.1876 -0.9064 -0.6247
  171RES   C10248042   6.462   2.620   5.354 -0.1364 -0.6702 -0.2281
  171RES   C10348043   6.455   2.555   5.215  1.1583  0.4940 -0.4996
  171RES   O10448044   6.313   2.539   5.190  0.2432 -0.0991 -0.5296
  171RES   C10548045   6.281   2.432   5.100 -0.0179 -0.2383 -1.1323
  171RES   H10648046   6.671   2.561   5.370  0.3720 -1.2670  0.0722
  171RES   H10748047   6.635   2.729   5.425 -2.0771 -0.1610  4.4352
  171RES   H10848048   6.399   2.559   5.418 -0.9176  0.2237 -0.1308
  171RES   H10948049   6.508   2.460   5.216 -0.3183 -0.3346  0.6326
  171RES   H11048050   6.510   2.614   5.141  0.1724 -0.5029 -2.0637
  171RES   H11148051   6.314   2.461   5.000  1.9577 -0.7507 -0.6601
  171RES   H11248052   6.173   2.434   5.088 -0.1444 -1.2176 -0.1954
  171RES   H11348053   6.310   2.328   5.112  0.1498  0.1931  2.6535
  171RES   O11448054   6.389   2.741   5.354  0.3816 -0.6201  0.5773
  171RES   C11548055   6.325   2.790   5.475 -0.3259  0.2839  0.2430
  171RES   C11648056   6.244   2.917   5.441 -0.3647  0.9251 -0.2574
  171RES   C11748057   6.330   3.030   5.390  0.3749 -0.6945  0.0898
  171RES   O11848058   6.281   3.158   5.433  0.0719  0.5454 -0.3786
  171RES   C11948059   6.323   3.207   5.552 -0.2411  0.2466 -0.0599
  171RES   H12048060   6.248   2.718   5.502 -0.4343  0.6316  0.8718
  171RES   H12148061   6.397   2.817   5.553 -0.8822 -0.9600  1.2052
  171RES   H12248062   6.198   2.934   5.538  1.5463 -1.6551  1.1773
  171RES   H12348063   6.438   3.023   5.405  0.6218  1.0287 -0.6738
  171RES   H12448064   6.326   3.042   5.282 -1.3073  1.0764  0.3264
  171RES   H12548065   6.431   3.215   5.543 -0.3827  0.3442 -1.8222
  171RES   H12648066   6.307   3.136   5.633  2.4868 -1.3163 -0.8061
  171RES   H12748067   6.283   3.302   5.586  0.3573 -0.3543  2.3721
  171RES   O12848068   6.148   2.885   5.339  0.0332  0.1131 -1.4458
  171RES   C12948069   6.047   2.980   5.345 -0.3431  0.6584 -0.5604
  171RES   C13048070   5.916   2.940   5.268 -0.7268 -0.4297 -0.2093
  171RES   C13148071   5.808   3.049   5.277  0.7841  0.3829  0.2780
  171RES   O13248072   5.692   3.023   5.196  0.4141 -0.0268  0.1458
  171RES   C13348073   5.616   3.144   5.196 -0.0455  0.2527  0.0020
  171RES   H13448074   6.004   2.995   5.445  1.1033  2.7222 -0.2197
  171RES   H13548075   6.079   3.079   5.314  2.0452 -0.1503 -0.7517
  171RES   H13648076   5.930   2.928   5.160  1.7997 -1.5642  0.2124
  171RES   H13748077   5.848   3.144   5.241 -0.7250 -0.4506 -3.8279
  171RES   H13848078   5.768   3.059   5.378 -1.3964  3.8694 -0.8493
  171RES   H13948079   5.664   3.230   5.149  0.7057  0.8399  1.8141
  171RES   H14048080   5.531   3.119   5.132  0.0849 -0.3301  0.0539
  171RES   H14148081   5.587   3.169   5.298  0.7429  0.4245  0.1849
  171RES   O14248082   5.850   2.825   5.312  0.0766  0.5728 -0.0698
  171RES   C14348083   5.926   2.704   5.291 -0.3962  0.0460 -1.0019
  171RES   C14448084   5.835   2.579   5.312 -0.2337 -0.0195  0.4196
  171RES   C14548085   5.919   2.444   5.329 -0.0964 -0.0684  0.2475
  171RES   O14648086   5.829   2.347   5.374 -0.3287  0.3153 -0.0077
  171RES   C14748087   5.898   2.228   5.413  0.1501 -0.0091  0.0904
  171RES   H14848088   5.969   2.696   5.191  0.8188 -1.0318 -0.4238
  171RES   H14948089   6.021   2.707   5.345 -0.5441  1.5664 -0.8209
  171RES   H15048090   5.785   2.597   5.407 -2.0828 -2.3265 -0.0777
  171RES   H15148091   6.000   2.449   5.401  0.5556 -0.2237 -0.4697
  171RES   H15248092   5.954   2.406   5.233  0.5222 -1.9897  1.2100
  171RES   H15348093   5.961   2.194   5.330  0.9672  0.5286  0.4825
  171RES   H15448094   5.835   2.141   5.431  1.6664 -0.8875  1.2558
  171RES   H15548095   5.954   2.266   5.499  0.1964 -0.5526  0.3038
  171RES   O15648096   5.736   2.566   5.204 -0.2315 -0.6516  0.2123
  171RES   C15748097   5.621   2.654   5.220  0.2123 -0.3206 -0.9878
  171RES   C15848098   5.536   2.642   5.085  0.2949  0.2089 -0.4739
  171RES   C15948099   5.442   2.763   5.065 -0.5814 -0.2589  0.0529
  171RES   O16048100   5.327   2.774   5.156  0.5177  0.0788 -0.5345
  171RES   C16148101   5.209   2.697   5.130 -0.0980 -0.1611  0.1926
  171RES   H16248102   5.550   2.624   5.297  0.7128 -0.3153 -0.5208
  171RES   H16348103   5.648   2.756   5.246 -1.5016  0.2119 -1.2475
  171RES   H16448104   5.600   2.629   4.998  0.5460 -0.8990 -0.1303
  171RES   H16548105   5.502   2.849   5.096 -0.8290 -1.0895  3.0225
  171RES   H16648106   5.412   2.792   4.965 -0.6120  0.1228  0.1705
  171RES   H16748107   5.116   2.749   5.155 -0.2183 -0.2617 -0.0339
  171RES   H16848108   5.217   2.610   5.194  1.5485  2.2551  3.3585
  171RES   H16948109   5.200   2.671   5.024  0.1070 -2.2532  0.6669
  171RES   O17048110   5.457   2.526   5.082 -0.2260  0.3088  0.3899
  171RES   C17148111   5.398   2.497   4.961  0.3375  0.3855  0.3914
  171RES   C17248112   5.317   2.361   4.951  1.0424  0.0225 -0.5323
  171RES   C17348113   5.326   2.304   4.814  0.2179 -0.0733  0.1869
  171RES   O17448114   5.267   2.173   4.806 -0.1739  0.1572 -0.4647
  171RES   C17548115   5.201   2.155   4.679  0.4577  0.1351  0.0354
  171RES   H17648116   5.473   2.481   4.884  0.5570 -0.4513  0.7738
  171RES   H17748117   5.335   2.570   4.909  1.1938  0.9596  0.1394
  171RES   H17848118   5.359   2.290   5.022 -2.2966 -0.3451  1.1775
  171RES   H17948119   5.277   2.376   4.748 -1.1978 -0.2903  0.9924
  171RES   H18048120   5.427   2.280   4.781  0.1075 -1.6453  0.9431
  171RES   H18148121   5.097   2.185   4.691  0.1119 -0.2942 -1.7250
  171RES   H18248122   5.198   2.048   4.657 -0.1549 -0.2628  1.9336
  171RES   H18348123   5.234   2.216   4.596  1.0159 -1.7403 -1.1449
  171RES   O18448124   5.189   2.399   4.996 -0.4031  0.2201  0.1563
  171RES   C18548125   5.090   2.295   5.011 -0.3458 -0.0672  0.4626
  171RES   C18648126   4.978   2.351   5.087  0.5815 -0.2947  0.1785
  171RES   C18748127   4.887   2.251   5.154 -0.8640  0.0785 -0.5695
  171RES   O18848128   4.840   2.155   5.063 -0.0854 -0.1558  0.4631
  171RES   C18948129   4.731   2.084   5.105  0.5534  0.0273  0.2836
  171RES   H19048130   5.148   2.227   5.073  0.4512  0.3748  0.2123
  171RES   H19148131   5.065   2.243   4.919  0.6458  0.5807 -0.1860
  171RES   H19248132   5.009   2.416   5.168 -1.3161  1.3997 -0.4037
  171RES   H19348133   4.809   2.302   5.210  0.8984  0.6358  1.4314
  171RES   H19448134   4.940   2.197   5.233 -2.9328 -2.2149 -0.6696
  171RES   H19548135   4.744   2.032   5.200  3.5927 -1.1181 -0.6974
  171RES   H19648136   4.634   2.134   5.104  2.3730  3.7450 -2.4312
  171RES   H19748137   4.721   1.995   5.042 -2.7842 -0.5221  1.4810
  171RES   O19848138   4.896   2.413   4.982 -0.5379  0.3671 -0.1473
  171RES   C19948139   4.889   2.553   4.991 -0.1048  0.4427  0.0843
  171RES   C20048140   4.775   2.605   4.896 -0.3344  0.6386 -0.7000
  171RES   C20148141   4.780   2.757   4.865  0.1970 -0.0944  0.5047
  171RES   O20248142   4.704   2.784   4.752 -0.2027 -0.4661 -0.1873
  171RES   C20348143   4.737   2.909   4.698 -0.2295 -0.2650  0.5414
  171RES   H20448144   4.988   2.589   4.963  0.4821 -2.2430 -1.5105
  171RES   H20548145   4.872   2.595   5.090  0.3472  0.4037  0.1799
  171RES   H20648146   4.779   2.550   4.802  1.5907 -0.8414  0.2007
  171RES   H20748147   4.749   2.812   4.955 -1.3584 -0.0124 -0.0668
  171RES   H20848148   4.887   2.779   4.862  0.4317 -1.2535  0.4375
  171RES   H20948149   4.667   2.924   4.616  0.9524  1.6240 -0.1680
  171RES   H21048150   4.834   2.915   4.649 -0.1228  1.1927  0.9057
  171RES   H21148151   4.740   2.985   4.776  1.2459  0.4485 -0.1944
  171RES   O21248152   4.653   2.608   4.964  0.4499  0.1530  0.5254
  171RES   C21348153   4.565   2.504   4.939  0.3983 -0.4717 -0.0716
  171RES   C21448154   4.453   2.504   5.043  1.1665 -0.3366 -0.4814
  171RES   C21548155   4.400   2.362   5.057  0.2194 -0.6571  0.0613
  171RES   O21648156   4.311   2.341   5.162  0.2612 -0.2929 -0.0659
  171RES   C21748157   4.256   2.218   5.182 -0.1487  0.2296  0.8944
  171RES   H21848158   4.626   2.415   4.948  0.6340 -0.1956  1.1514
  171RES   H21948159   4.531   2.514   4.836 -1.0306 -0.1704  0.4104
  171RES   H22048160   4.497   2.528   5.140 -0.1811 -0.6286  0.2257
  171RES   H22148161   4.363   2.330   4.959  0.3470  2.7067 -1.1538
  171RES   H22248162   4.484   2.301   5.089  2.3039  2.3785  0.6626
  171RES   H22348163   4.338   2.150   5.204  0.4184  0.8593  0.7613
  171RES   H22448164   4.212   2.178   5.090 -2.4122 -0.5510  2.2717
  171RES   H22548165   4.191   2.220   5.269  0.0165  0.5106  1.0123
  171RES   O22648166   4.345   2.584   4.995  0.2435 -0.7362  0.2138
  171RES   C22748167   4.317   2.701   5.077  0.5374  0.4472 -1.4319
  171RES   C22848168   4.228   2.684   5.205  0.2188 -0.2287  0.0330
  171RES   C22948169   4.239   2.810   5.299  0.0442  0.6233 -0.0399
  171RES   O23048170   4.206   2.780   5.436 -0.5075  0.3885  0.3832
  171RES   C23148171   4.070   2.746   5.466 -0.2734  0.2267 -0.1410
  171RES   H23248172   4.267   2.775   5.016 -0.2826  3.4136  2.6556
  171RES   H23348173   4.409   2.738   5.123  0.3963 -2.8910  1.8215
  171RES   H23448174   4.269   2.601   5.262  1.2883  0.2505 -0.0300
  171RES   H23548175   4.183   2.898   5.269 -1.7472 -0.3670  0.3703
  171RES   H23648176   4.341   2.848   5.310  0.1968  0.0821  0.4311
  171RES   H23748177   4.062   2.640   5.492  0.8046 -0.5695 -2.8873
  171RES   H23848178   4.009   2.765   5.378 -2.1126 -0.9254  0.8494
  171RES   H23948179   4.058   2.798   5.561  0.6698 -0.2114  0.2323
  171RES   O24048180   4.087   2.668   5.174 -0.8165  0.4593 -0.1923
  171RES   C24148181   4.046   2.539   5.145  0.1733  0.0841  0.2296
  171RES   C24248182   3.898   2.550   5.106  0.6604 -0.6806 -0.3811
  171RES   C24348183   3.844   2.434   5.029 -0.0915 -0.2537  0.0117
  171RES   O24448184   3.716   2.456   4.977  0.1501 -0.1680  0.1206
  171RES   C24548185   3.678   2.344   4.897 -0.0291 -0.7150 -0.1793
  171RES   H24648186   4.064   2.465   5.223  1.4191  0.0702 -0.0603
  171RES   H24748187   4.093   2.506   5.052 -1.9224 -0.5815 -0.6111
  171RES   H24848188   3.898   2.641   5.046  0.0677 -0.3152  0.1594
  171RES   H24948189   3.912   2.420   4.945  0.2377 -1.7396  0.5096
  171RES   H25048190   3.852   2.341   5.085  1.8748 -0.5177 -0.6456
  171RES   H25148191   3.654   2.255   4.956 -0.3279  1.6761  3.4476
  171RES   H25248192   3.750   2.313   4.821  0.9742  2.9260 -0.7820
  171RES   H25348193   3.586   2.369   4.844 -1.3987  1.1326  2.9127
  171RES   O25448194   3.829   2.552   5.226  0.4965  0.6186 -0.2022
  171RES   C25548195   3.736   2.656   5.265  0.1359 -0.4715 -0.5351
  171RES   C25648196   3.691   2.655   5.409  0.9624  0.2778 -0.3134
  171RES   C25748197   3.642   2.788   5.475  0.1631  0.0023  0.0823
  171RES   O25848198   3.756   2.851   5.534 -0.7973 -0.1498 -0.4833
  171RES   C25948199   3.736   2.925   5.656  0.0919 -0.0728  0.1573
  171RES   H26048200   3.765   2.757   5.236  0.4353 -0.8556 -1.5913
  171RES   H26148201   3.650   2.647   5.199 -1.1155  0.7655  0.8729
  171RES   H26248202   3.777   2.636   5.473 -0.8551  0.1423  2.1562
  171RES   H26348203   3.595   2.848   5.397 -0.0748 -0.2551  0.0235
  171RES   H26448204   3.561   2.767   5.546  1.0065  1.5256  1.5310
  171RES   H26548205   3.700   2.859   5.735  1.2673 -0.9043  0.0141
  171RES   H26648206   3.672   3.012   5.640 -1.1287 -1.1951 -1.3159
  171RES   H26748207   3.830   2.971   5.686  0.5991  0.1986 -1.7706
  171RES   O26848208   3.585   2.564   5.420  0.0395 -0.6887 -0.0503
  171RES   C26948209   3.628   2.433   5.445 -0.3181  0.9138  0.3213
  171RES   C27048210   3.522   2.327   5.413  0.3757 -0.3745 -0.5300
  171RES   C27148211   3.498   2.307   5.261 -0.2617 -0.1004 -0.2511
  171RES   O27248212   3.412   2.193   5.234 -0.1287  0.0163  0.1810
  171RES   C27348213   3.396   2.175   5.095  0.3828  0.6823 -0.4313
  171RES   H27448214   3.665   2.421   5.547 -0.1937  0.9367  0.2783
  171RES   H27548215   3.718   2.409   5.390 -0.0553  0.5689  0.8886
  171RES   H27648216   3.559   2.233   5.453 -0.4962 -1.3536 -1.9788
  171RES   H27748217   3.599   2.291   5.222 -0.1587 -0.9559  0.3458
  171RES   H27848218   3.462   2.398   5.214  1.9700  0.4060 -1.0273
  171RES   H27948219   3.320   2.098   5.084  0.5310  0.0953  2.2082
  171RES   H28048220   3.489   2.140   5.050  0.5891  0.9106 -0.1900
  171RES   H28148221   3.350   2.266   5.056 -1.6323  0.2073  0.7533
  171RES   H28248222   3.429   2.356   5.462  1.4673  1.6563  0.4313
  172RES     O148223   6.041   5.717   4.878 -0.1280  0.2050  0.0004
  172RES     C248224   5.956   5.821   4.918  0.1938  0.0651  0.1075
  172RES     C348225   5.860   5.758   5.022 -0.6745  0.3362 -0.0439
  172RES     C448226   5.743   5.847   5.072 -0.2463 -0.3362 -0.7003
  172RES     O548227   5.679   5.774   5.176 -0.5722 -0.5156  0.0397
  172RES     C648228   5.553   5.836   5.208  0.3407  0.2215 -0.7334
  172RES     H748229   6.009   5.904   4.966 -1.7848 -0.3486  3.0568
  172RES     H848230   5.893   5.852   4.834 -1.1394 -1.5790  0.5041
  172RES     H948231   5.912   5.738   5.116  0.4132  0.4303 -0.6233
  172RES    H1048232   5.684   5.879   4.986 -0.4422  2.7500  0.5252
  172RES    H1148233   5.797   5.935   5.106 -1.5277  0.4989 -0.8148
  172RES    H1248234   5.579   5.905   5.289  1.2927  2.6003 -2.9828
  172RES    H1348235   5.522   5.902   5.128 -1.8902 -0.2858 -0.3191
  172RES    H1448236   5.473   5.770   5.243  1.9994 -1.4892 -0.0694
  172RES    H1548237   5.987   5.657   4.829 -0.4537 -1.0374  1.8103
  172RES    O1648238   5.799   5.643   4.955 -0.1117 -0.4338 -0.0532
  172RES    C1748239   5.825   5.522   5.030 -0.0577 -0.1790 -0.1435
  172RES    C1848240   5.748   5.405   4.967 -0.5618 -0.5773  0.1660
  172RES    C1948241   5.801   5.381   4.828 -0.0725 -0.0293  0.2313
  172RES    O2048242   5.734   5.285   4.747  0.0255  0.2203  0.3082
  172RES    C2148243   5.800   5.244   4.628 -0.0257 -0.0353 -0.0972
  172RES    H2248244   5.806   5.538   5.136  0.2632  0.7470 -0.2152
  172RES    H2348245   5.933   5.514   5.033  0.1530  1.8513 -0.9038
  172RES    H2448246   5.646   5.444   4.961 -0.7051 -1.2161 -2.0064
  172RES    H2548247   5.807   5.476   4.775 -1.6795  0.1015  0.2684
  172RES    H2648248   5.907   5.357   4.835 -0.3358 -1.2899  0.0843
  172RES    H2748249   5.728   5.200   4.559  1.7270 -0.2046 -1.8527
  172RES    H2848250   5.861   5.161   4.664  0.2192  0.8274  1.5340
  172RES    H2948251   5.858   5.323   4.580  0.9700  0.0032  1.1391
  172RES    O3048252   5.720   5.289   5.037 -0.4722 -0.0875 -0.1416
  172RES    C3148253   5.811   5.183   5.039  0.0110  0.6530  0.1525
  172RES    C3248254   5.752   5.062   5.098  0.0586  0.6118  0.0327
  172RES    C3348255   5.851   4.946   5.128  0.3314 -0.0211  0.7771
  172RES    O3448256   5.792   4.846   5.201 -0.5514  0.4398  0.0185
  172RES    C3548257   5.888   4.745   5.226 -0.1049  0.4860  0.5255
  172RES    H3648258   5.849   5.162   4.939  0.4600  2.8957 -0.1610
  172RES    H3748259   5.900   5.213   5.093  0.5849 -2.4417  1.0518
  172RES    H3848260   5.715   5.090   5.197 -0.1104 -0.7098  0.3616
  172RES    H3948261   5.929   4.978   5.197  0.8654  0.1484  0.1014
  172RES    H4048262   5.902   4.915   5.037  0.9528 -0.4946  1.2804
  172RES    H4148263   5.958   4.787   5.298 -1.3924 -0.4817  2.3599
  172RES    H4248264   5.945   4.718   5.137 -0.6384  0.2867  0.2452
  172RES    H4348265   5.832   4.667   5.276 -2.5315  1.5111 -0.5257
  172RES    O4448266   5.647   5.005   5.011 -0.0638  0.3756 -0.1867
  172RES    C4548267   5.517   5.064   5.033  0.6866 -0.2167 -0.0504
  172RES    C4648268   5.405   4.969   4.986  0.1635 -0.0556  0.0107
  172RES    C4748269   5.275   4.978   5.058 -0.1237 -0.2745 -0.0364
  172RES    O4848270   5.191   4.875   5.021  0.2268  0.1627  0.2885
  172RES    C4948271   5.068   4.881   5.091  0.6271 -0.0660  0.4458
  172RES    H5048272   5.514   5.165   4.992  2.8842 -0.1920 -0.2100
  172RES    H5148273   5.516   5.059   5.142  0.1364  0.9408  0.0038
  172RES    H5248274   5.431   4.864   4.995 -1.6763 -0.3787  1.7747
  172RES    H5348275   5.302   4.966   5.163  1.8398 -3.1990 -0.8126
  172RES    H5448276   5.221   5.071   5.045  0.4426  0.0077 -0.3666
  172RES    H5548277   5.069   4.859   5.197  0.6267 -0.4825  0.3599
  172RES    H5648278   4.988   4.823   5.043 -0.7513  0.7417  1.7175
  172RES    H5748279   5.033   4.985   5.093 -1.3243 -0.7211  2.0127
  172RES    O5848280   5.384   4.983   4.845  0.4665 -0.2493  0.4049
  172RES    C5948281   5.497   4.961   4.775 -0.4052  0.1435  0.2747
  172RES    C6048282   5.453   4.979   4.631 -0.3777 -0.2731 -0.2436
  172RES    C6148283   5.524   4.879   4.534  0.8041  0.0920 -0.1228
  172RES    O6248284   5.468   4.868   4.410 -0.5296 -0.1697 -0.0470
  172RES    C6348285   5.482   4.987   4.333 -0.1337 -0.3354  0.5522
  172RES    H6448286   5.534   4.861   4.796 -1.5529 -0.4716 -0.5277
  172RES    H6548287   5.580   5.031   4.784 -1.8969  1.7290  2.0462
  172RES    H6648288   5.347   4.958   4.614 -0.5914  1.4071 -1.1383
  172RES    H6748289   5.625   4.920   4.533  1.0047 -0.4011 -0.9544
  172RES    H6848290   5.534   4.779   4.577  1.1839  0.2899  0.2523
  172RES    H6948291   5.506   4.974   4.227 -0.2645 -1.1948  0.6233
  172RES    H7048292   5.562   5.051   4.372 -1.0448  0.7293  0.7080
  172RES    H7148293   5.389   5.043   4.331  0.2084  0.2685  1.3844
  172RES    O7248294   5.481   5.120   4.594 -0.4654 -0.0315  0.3117
  172RES    C7348295   5.405   5.221   4.663  0.4659 -0.1543  0.3586
  172RES    C7448296   5.440   5.367   4.626  0.0060 -0.5290 -0.0508
  172RES    C7548297   5.423   5.466   4.745  0.5659 -0.8017  0.0362
  172RES    O7648298   5.467   5.600   4.731  0.5231  0.2000 -0.6390
  172RES    C7748299   5.459   5.675   4.849 -0.8193 -0.1936 -0.3063
  172RES    H7848300   5.298   5.198   4.659  0.0651  1.6839  0.0692
  172RES    H7948301   5.420   5.210   4.771 -0.8187  1.9262  0.7677
  172RES    H8048302   5.544   5.374   4.594  0.9122 -1.3943  2.5351
  172RES    H8148303   5.462   5.419   4.835 -0.5428  1.9879  2.0590
  172RES    H8248304   5.314   5.462   4.750  0.4490  0.5168 -1.2317
  172RES    H8348305   5.359   5.691   4.887 -1.1443  0.7553 -1.5274
  172RES    H8448306   5.483   5.778   4.823 -1.9002  0.0313 -0.4360
  172RES    H8548307   5.528   5.648   4.929 -3.2491 -0.7172  1.6844
  172RES    O8648308   5.362   5.414   4.517  0.3067  0.1297 -0.2086
  172RES    C8748309   5.414   5.367   4.395 -0.1586 -0.5812 -0.5373
  172RES    C8848310   5.318   5.407   4.286 -0.0611  0.8501 -0.5326
  172RES    C8948311   5.353   5.359   4.144  0.4394 -0.0907 -0.0467
  172RES    O9048312   5.288   5.434   4.045  0.5565 -0.3286 -0.1519
  172RES    C9148313   5.291   5.363   3.919 -1.1856 -0.1063 -0.0507
  172RES    H9248314   5.510   5.417   4.379  0.8667 -2.7008 -1.2607
  172RES    H9348315   5.429   5.260   4.401  2.2851 -0.2318  0.2609
  172RES    H9448316   5.336   5.514   4.281  2.0927  0.4404 -2.4000
  172RES    H9548317   5.461   5.362   4.133  0.7380 -0.8328  2.4372
  172RES    H9648318   5.336   5.252   4.130  0.6990 -0.1092 -0.2278
  172RES    H9748319   5.244   5.265   3.926  2.1991 -1.6669  2.3595
  172RES    H9848320   5.255   5.426   3.838 -0.4418  1.1526  0.5734
  172RES    H9948321   5.397   5.350   3.897 -0.7252  0.9769  1.4653
  172RES   O10048322   5.184   5.358   4.314  0.2599 -0.4265 -0.2199
  172RES   C10148323   5.070   5.437   4.287  0.1322 -0.6128 -0.2442
  172RES   C10248324   4.931   5.388   4.334 -0.1015 -0.4082 -0.0507
  172RES   C10348325   4.802   5.447   4.263  0.4124  0.1478 -0.0592
  172RES   O10448326   4.695   5.356   4.284  0.2237  0.0465  0.8039
  172RES   C10548327   4.622   5.366   4.408 -0.1280 -0.1300 -0.7339
  172RES   H10648328   5.055   5.445   4.179  0.1941 -2.0665 -0.3668
  172RES   H10748329   5.085   5.540   4.319 -3.3306 -0.1679  0.1451
  172RES   H10848330   4.922   5.281   4.313 -0.7500 -0.6817  1.5481
  172RES   H10948331   4.823   5.448   4.156  1.2702 -1.9979  0.0614
  172RES   H11048332   4.795   5.548   4.304 -4.3110  0.7751 -2.1715
  172RES   H11148333   4.556   5.452   4.404 -0.8698 -0.6276  0.4538
  172RES   H11248334   4.685   5.384   4.495 -0.7983 -0.8979 -0.0698
  172RES   H11348335   4.553   5.285   4.432  1.4763 -1.1066  0.7429
  172RES   O11448336   4.920   5.419   4.479  0.4278 -0.0024 -0.3229
  172RES   C11548337   5.002   5.346   4.568 -0.2016 -0.0133 -0.2077
  172RES   C11648338   4.934   5.324   4.709  0.8036 -0.5218 -0.0119
  172RES   C11748339   5.009   5.198   4.760  0.3682 -0.1857 -0.1745
  172RES   O11848340   4.955   5.086   4.689 -0.7350 -0.0276 -0.0906
  172RES   C11948341   4.993   4.956   4.748 -0.0095  0.3016 -0.0235
  172RES   H12048342   5.013   5.247   4.525 -0.4123  0.4946 -1.4510
  172RES   H12148343   5.101   5.389   4.586 -0.1838 -0.1883  0.1159
  172RES   H12248344   4.829   5.305   4.687  0.6433  1.0106 -0.6357
  172RES   H12348345   5.117   5.211   4.756  0.3247  0.8828  1.5325
  172RES   H12448346   4.983   5.178   4.864 -3.1156  0.6040 -0.8260
  172RES   H12548347   4.913   4.886   4.728 -2.2690  2.1045  2.3491
  172RES   H12648348   4.997   4.956   4.857  0.7960  1.5282 -0.0382
  172RES   H12748349   5.083   4.920   4.697  0.7466 -2.3426  3.0369
  172RES   O12848350   4.961   5.425   4.801  0.6273  0.1266 -0.4678
  172RES   C12948351   4.862   5.519   4.798  0.0747 -0.1588 -0.7034
  172RES   C13048352   4.900   5.656   4.860  0.4495  0.3374 -0.7803
  172RES   C13148353   4.777   5.721   4.920  0.5487 -0.0168 -0.7630
  172RES   O13248354   4.803   5.861   4.937 -0.2211  0.6047  0.3285
  172RES   C13348355   4.695   5.934   4.994  0.5549  0.3130  0.1764
  172RES   H13448356   4.816   5.533   4.700 -1.4387  0.6623  0.1104
  172RES   H13548357   4.777   5.497   4.864 -1.0982  3.7478 -0.7314
  172RES   H13648358   4.966   5.652   4.947  0.2261  0.8494 -0.5870
  172RES   H13748359   4.752   5.679   5.017 -0.4107  2.3581  0.0597
  172RES   H13848360   4.689   5.718   4.855  0.3211 -1.5232 -0.4025
  172RES   H13948361   4.676   5.898   5.095 -1.2429 -0.2376 -0.3510
  172RES   H14048362   4.718   6.040   4.995  0.0759  0.4092  1.2721
  172RES   H14148363   4.610   5.918   4.928  0.4483  0.2045  0.3393
  172RES   O14248364   4.938   5.754   4.764  0.0912 -0.4355  0.2847
  172RES   C14348365   5.065   5.741   4.717 -0.0460  0.2488  0.5708
  172RES   C14448366   5.096   5.845   4.606  0.2312  0.0449  0.4207
  172RES   C14548367   5.229   5.811   4.535 -0.5114  0.9239  0.0374
  172RES   O14648368   5.241   5.890   4.417  0.2543 -0.5123  0.1007
  172RES   C14748369   5.339   5.833   4.323 -0.5615  0.8262  0.1946
  172RES   H14848370   5.136   5.748   4.799 -0.8060  0.0493  1.2447
  172RES   H14948371   5.084   5.644   4.672  1.5035  0.6894  0.2539
  172RES   H15048372   5.017   5.842   4.531  0.1059 -0.4151  0.5681
  172RES   H15148373   5.228   5.704   4.517  1.5810  1.1443 -1.6228
  172RES   H15248374   5.319   5.829   4.593  0.7323 -0.4073 -1.4438
  172RES   H15348375   5.441   5.832   4.363 -0.0393 -2.4666 -1.0781
  172RES   H15448376   5.341   5.906   4.242  1.5285  0.6423  0.0564
  172RES   H15548377   5.309   5.736   4.282  2.9857 -0.3458  0.1308
  172RES   O15648378   5.119   5.962   4.674  1.0109 -0.4333 -0.6556
  172RES   C15748379   5.005   6.048   4.694  0.1772  0.2431  0.5050
  172RES   C15848380   5.055   6.180   4.743  0.1943  0.0227 -0.4043
  172RES   C15948381   4.960   6.255   4.835  0.3160 -0.4940  0.2832
  172RES   O16048382   5.022   6.345   4.924 -0.5782  0.7636  0.1936
  172RES   C16148383   5.067   6.460   4.854 -0.1292  0.3367 -0.7554
  172RES   H16248384   4.944   6.059   4.604  0.7172  1.8915  0.3244
  172RES   H16348385   4.934   6.000   4.760  2.1044 -0.3845  2.1934
  172RES   H16448386   5.143   6.162   4.805  0.0032 -0.6248 -0.3174
  172RES   H16548387   4.880   6.296   4.774 -0.4131 -1.9213  0.2589
  172RES   H16648388   4.913   6.185   4.904  0.2011  0.2853  1.0115
  172RES   H16748389   5.145   6.431   4.783  1.1450 -1.3489  1.2574
  172RES   H16848390   5.128   6.519   4.922  0.7324  0.3221 -1.4982
  172RES   H16948391   4.998   6.534   4.814  2.4360  3.3624  0.1593
  172RES   O17048392   5.095   6.261   4.634  0.5485  0.3438  0.5240
  172RES   C17148393   5.184   6.204   4.534  0.0540  0.1513 -0.1280
  172RES   C17248394   5.246   6.322   4.453  0.6771  0.1924 -0.0892
  172RES   C17348395   5.327   6.265   4.335 -0.1369  0.1483 -0.4499
  172RES   O17448396   5.398   6.368   4.270  0.3849 -0.5485  0.8815
  172RES   C17548397   5.496   6.328   4.180 -0.0371 -0.1134  0.4450
  172RES   H17648398   5.138   6.136   4.463 -1.1235 -0.7123  1.4156
  172RES   H17748399   5.260   6.152   4.593  0.7533 -0.4326 -1.5390
  172RES   H17848400   5.164   6.387   4.421  0.4726 -0.1427 -0.2524
  172RES   H17948401   5.398   6.200   4.388  0.0754  0.3156 -0.5291
  172RES   H18048402   5.275   6.200   4.265 -0.1475  1.0637 -1.2833
  172RES   H18148403   5.499   6.399   4.097  1.5982 -2.9315 -2.0306
  172RES   H18248404   5.462   6.234   4.136 -0.9007  0.6944 -0.6643
  172RES   H18348405   5.593   6.302   4.222 -0.5514 -1.8957  0.5824
  172RES   O18448406   5.323   6.402   4.547 -0.1619  0.4531 -0.4681
  172RES   C18548407   5.303   6.545   4.547  0.5583  0.5153 -0.3029
  172RES   C18648408   5.391   6.606   4.656 -0.1504 -0.4317  0.3926
  172RES   C18748409   5.327   6.725   4.733 -0.4581 -0.0933 -0.6436
  172RES   O18848410   5.384   6.730   4.867  0.7605 -0.3580  0.2373
  172RES   C18948411   5.347   6.836   4.941 -0.2550 -0.4940 -0.5186
  172RES   H19048412   5.197   6.565   4.564  0.2025  0.2443 -2.1207
  172RES   H19148413   5.312   6.589   4.448  1.9286  0.2496 -0.3124
  172RES   H19248414   5.413   6.529   4.730 -0.4915  0.0489  0.9916
  172RES   H19348415   5.220   6.720   4.752 -0.7487  2.3029 -1.5506
  172RES   H19448416   5.337   6.816   4.675  2.2492  1.0487  1.4608
  172RES   H19548417   5.379   6.803   5.040 -1.0847 -0.3906 -0.2072
  172RES   H19648418   5.403   6.925   4.914  2.8894 -1.2132  3.1978
  172RES   H19748419   5.238   6.847   4.944 -0.3953 -2.1742  1.6353
  172RES   O19848420   5.509   6.656   4.596 -0.3179 -0.2141 -0.3639
  172RES   C19948421   5.602   6.564   4.550 -0.4696 -0.3841 -0.5678
  172RES   C20048422   5.731   6.645   4.523  0.1951  0.3992 -0.2242
  172RES   C20148423   5.837   6.574   4.433 -0.5002  0.2214  0.3030
  172RES   O20248424   5.953   6.660   4.416  0.0686 -0.1342  0.8115
  172RES   C20348425   5.941   6.763   4.317  0.5237 -0.2120  0.3490
  172RES   H20448426   5.561   6.530   4.455 -1.5378 -1.8302  0.3917
  172RES   H20548427   5.630   6.482   4.616 -1.6895 -0.8055 -0.5511
  172RES   H20648428   5.711   6.748   4.497 -1.1696  0.0692 -0.5119
  172RES   H20748429   5.867   6.490   4.496 -0.1238  0.3823  0.3422
  172RES   H20848430   5.800   6.554   4.333  1.7012 -0.5958 -0.3850
  172RES   H20948431   6.028   6.828   4.314  0.0973  0.3235 -0.9276
  172RES   H21048432   5.860   6.829   4.348 -0.0097  0.7186 -2.8565
  172RES   H21148433   5.916   6.726   4.217  1.6734  1.9240 -0.7549
  172RES   O21248434   5.804   6.660   4.647 -0.0375  0.3072  0.1623
  172RES   C21348435   5.744   6.729   4.750 -0.5288  0.8671 -0.3070
  172RES   C21448436   5.853   6.791   4.841  0.2379  0.0491  0.3805
  172RES   C21548437   5.788   6.858   4.966 -0.1632  0.4227 -0.2514
  172RES   O21648438   5.807   6.767   5.075 -0.2412 -0.0943  0.1310
  172RES   C21748439   5.749   6.811   5.194 -0.0835  0.2434  0.7511
  172RES   H21848440   5.678   6.665   4.809  1.0062  0.1105  0.6360
  172RES   H21948441   5.674   6.804   4.713 -0.0783  0.8344 -1.2326
  172RES   H22048442   5.927   6.718   4.875  0.0196  0.1142  0.9941
  172RES   H22148443   5.828   6.958   4.981 -0.8206  0.6567 -0.0342
  172RES   H22248444   5.684   6.888   4.956  0.7971  4.0796  0.0588
  172RES   H22348445   5.777   6.747   5.278 -0.5646 -0.7898  0.1302
  172RES   H22448446   5.640   6.808   5.184 -0.0747  1.4682  0.2167
  172RES   H22548447   5.781   6.912   5.219 -2.3126  1.2592 -0.3276
  172RES   O22648448   5.910   6.910   4.782 -0.0497 -0.1107  0.1565
  172RES   C22748449   5.994   6.892   4.671 -0.5413  0.0691  0.0600
  172RES   C22848450   6.070   7.023   4.642 -0.0680  0.0659 -0.3287
  172RES   C22948451   6.174   7.049   4.754 -0.4184 -0.1952 -0.4882
  172RES   O23048452   6.196   7.194   4.755 -0.3498 -0.2876  0.1842
  172RES   C23148453   6.088   7.268   4.815  0.1222  0.4081  0.9187
  172RES   H23248454   5.943   6.865   4.579  0.4811 -0.4734 -0.3475
  172RES   H23348455   6.069   6.817   4.694 -1.1141 -0.3437  0.6183
  172RES   H23448456   5.991   7.097   4.649 -0.1955 -0.0792 -0.2234
  172RES   H23548457   6.273   7.003   4.743  0.0197  0.8183 -0.8320
  172RES   H23648458   6.126   7.017   4.846 -0.7679  0.7825 -0.3274
  172RES   H23748459   6.119   7.366   4.850 -1.5163  1.2052  0.1467
  172RES   H23848460   6.053   7.216   4.905 -3.0779  0.5480 -0.2039
  172RES   H23948461   6.006   7.283   4.746  0.5247 -2.7437 -0.3496
  172RES   O24048462   6.131   7.016   4.512 -0.3140 -0.0866 -0.4583
  172RES   C24148463   6.092   7.120   4.431 -0.0943  0.4757  0.1726
  172RES   C24248464   6.166   7.129   4.300  0.0797  0.1464 -0.4611
  172RES   C24348465   6.073   7.193   4.179 -0.2457 -0.3772 -0.1592
  172RES   O24448466   6.029   7.083   4.099  0.2472 -0.7041  0.4006
  172RES   C24548467   6.126   7.056   3.995  0.6894  0.0549  0.4380
  172RES   H24648468   6.106   7.215   4.483 -2.6757  0.8982  0.1628
  172RES   H24748469   5.985   7.110   4.414  0.0856  0.3136 -0.8772
  172RES   H24848470   6.186   7.025   4.275 -1.0857 -0.4551  1.0352
  172RES   H24948471   5.993   7.250   4.224 -0.1281 -0.8385  0.6436
  172RES   H25048472   6.132   7.257   4.114  0.3961  1.0619  1.8107
  172RES   H25148473   6.093   6.959   3.957  0.3158  0.0547  0.7625
  172RES   H25248474   6.231   7.043   4.022  0.9063  0.7443 -0.0569
  172RES   H25348475   6.120   7.114   3.903 -1.0584 -0.6946  0.0718
  172RES   O25448476   6.278   7.212   4.318 -0.2088 -0.0025  0.1362
  172RES   C25548477   6.400   7.145   4.323 -0.7459 -0.0347  0.2922
  172RES   C25648478   6.503   7.257   4.368 -0.3474 -0.1091  0.0564
  172RES   C25748479   6.623   7.211   4.447 -0.1872 -0.4390 -0.1126
  172RES   O25848480   6.698   7.312   4.513 -0.1013 -0.7698 -0.2294
  172RES   C25948481   6.813   7.253   4.572 -0.5770 -0.4044 -0.2194
  172RES   H26048482   6.385   7.062   4.393  0.0462 -0.8265 -0.4718
  172RES   H26148483   6.437   7.112   4.226  1.0289  0.2980  0.8316
  172RES   H26248484   6.451   7.338   4.420 -0.3175  0.1145 -0.2574
  172RES   H26348485   6.593   7.137   4.522 -1.6592 -2.2697 -2.4400
  172RES   H26448486   6.685   7.153   4.379 -3.3460 -3.2257 -0.7360
  172RES   H26548487   6.881   7.207   4.500 -2.5120  1.7760 -3.5564
  172RES   H26648488   6.790   7.189   4.656  1.6066  1.0690  1.5697
  172RES   H26748489   6.881   7.334   4.601 -1.1287 -0.3518  0.9618
  172RES   O26848490   6.553   7.322   4.253 -0.9042  0.6737  0.1631
  172RES   C26948491   6.583   7.456   4.262  0.4728 -0.1318  0.0617
  172RES   C27048492   6.694   7.507   4.169  0.0889  0.1185 -0.8056
  172RES   C27148493   6.713   7.655   4.172  0.3458  0.4910  0.5941
  172RES   O27248494   6.803   7.699   4.072 -0.2213 -0.1889  0.4518
  172RES   C27348495   6.786   0.024   4.056  0.1766 -0.2248  0.4101
  172RES   H27448496   6.604   7.486   4.365 -0.2366  2.1619 -0.4252
  172RES   H27548497   6.489   7.506   4.239  0.4186  0.3902  1.3654
  172RES   H27648498   6.790   7.459   4.188  0.3682  0.9243 -0.1259
  172RES   H27748499   6.763   7.680   4.266  2.5024 -2.6131  0.3617
  172RES   H27848500   6.614   7.699   4.161  1.4492  2.3083 -2.6702
  172RES   H27948501   6.799   0.072   4.153 -0.4512  0.2122  0.2750
  172RES   H28048502   6.689   0.035   4.010  0.3904 -1.8294 -0.4817
  172RES   H28148503   6.858   0.062   3.984  0.6116  2.7890  2.3280
  172RES   H28248504   6.667   7.472   4.069  1.1004 -1.7313 -0.4580
  173RES     O148505   2.895   6.497   2.494  0.0244  0.2017  0.6471
  173RES     C248506   2.976   6.413   2.419  0.0904  0.1148 -1.0429
  173RES     C348507   2.890   6.329   2.324  0.0722 -0.3417  0.2098
  173RES     C448508   2.969   6.258   2.211 -0.3324  0.1664  0.6862
  173RES     O548509   2.955   6.343   2.091  0.3379 -0.1774 -0.5745
  173RES     C648510   3.033   6.458   2.080  0.3210  0.7483  0.2387
  173RES     H748511   3.055   6.456   2.358 -0.2670  0.1887 -1.4549
  173RES     H848512   3.028   6.340   2.482  0.7485  1.6592  0.2134
  173RES     H948513   2.822   6.394   2.268 -0.5019 -0.8449  0.3229
  173RES    H1048514   2.925   6.159   2.199 -0.3783 -0.6720  6.2420
  173RES    H1148515   3.076   6.250   2.229  0.2729  2.3821 -1.6605
  173RES    H1248516   3.021   6.518   2.170  2.4770  1.9052 -0.2225
  173RES    H1348517   3.136   6.426   2.093  0.3780  0.6599 -0.4491
  173RES    H1448518   3.009   6.520   1.993  2.6832  1.0597 -0.2062
  173RES    H1548519   2.827   6.444   2.533 -0.8921  0.1710 -0.9693
  173RES    O1648520   2.807   6.239   2.398 -0.2565  0.7186 -0.3970
  173RES    C1748521   2.686   6.206   2.334  0.3400 -0.2334 -0.0322
  173RES    C1848522   2.605   6.116   2.430  0.2268  0.5826  0.1455
  173RES    C1948523   2.462   6.097   2.377  0.8507  0.1148 -0.2532
  173RES    O2048524   2.378   6.044   2.475 -0.2325 -0.3839  0.0964
  173RES    C2148525   2.242   6.029   2.433 -0.7286  0.1303 -0.0776
  173RES    H2248526   2.695   6.155   2.238 -0.8747 -1.9652  0.7472
  173RES    H2348527   2.629   6.296   2.312  0.1027  0.2307  2.3397
  173RES    H2448528   2.615   6.162   2.528  1.3976 -2.6447  1.5954
  173RES    H2548529   2.418   6.191   2.345  0.8203  0.7518  1.5911
  173RES    H2648530   2.472   6.040   2.285 -1.3418 -0.0446 -0.4220
  173RES    H2748531   2.249   5.977   2.337  0.5749 -0.0046  0.0896
  173RES    H2848532   2.187   6.121   2.413  1.7435  1.0598 -3.0254
  173RES    H2948533   2.188   5.962   2.500 -0.5482  0.0393 -0.0240
  173RES    O3048534   2.670   5.985   2.420  0.3632 -0.0625 -0.1385
  173RES    C3148535   2.719   5.949   2.547 -0.6911 -0.4328 -0.4209
  173RES    C3248536   2.773   5.801   2.529 -0.0826 -0.6770 -0.0331
  173RES    C3348537   2.747   5.711   2.653  0.0221 -0.2465 -0.2354
  173RES    O3448538   2.623   5.645   2.651 -0.7425  0.0165 -0.3945
  173RES    C3548539   2.591   5.601   2.785  0.1112 -0.9545 -0.7479
  173RES    H3648540   2.802   6.008   2.587 -1.4935  2.1265 -2.3608
  173RES    H3748541   2.640   5.944   2.622 -0.7368  0.5547 -0.3978
  173RES    H3848542   2.727   5.750   2.445 -0.6666  1.0120 -0.7646
  173RES    H3948543   2.761   5.782   2.734 -0.3246  1.0313 -1.2865
  173RES    H4048544   2.825   5.636   2.665 -0.0817 -0.3607 -0.2736
  173RES    H4148545   2.555   5.676   2.856  1.2109 -0.8547 -0.2910
  173RES    H4248546   2.673   5.554   2.838 -0.1675  1.5871  2.0863
  173RES    H4348547   2.517   5.522   2.768 -1.5671  0.7203 -1.3837
  173RES    O4448548   2.914   5.810   2.504  0.6449 -0.0699 -0.2755
  173RES    C4548549   2.948   5.849   2.370  0.3864  0.7163 -0.7924
  173RES    C4648550   3.098   5.885   2.362  0.4324 -0.0533 -0.2482
  173RES    C4748551   3.133   5.877   2.212 -0.2578  0.4843 -0.2409
  173RES    O4848552   3.271   5.849   2.215 -0.1644  0.9266  0.5239
  173RES    C4948553   3.345   5.900   2.109  0.3029  0.4168 -0.5213
  173RES    H5048554   2.892   5.936   2.337  2.0480  3.2563  2.7453
  173RES    H5148555   2.923   5.764   2.307 -0.5821  0.2630  0.1820
  173RES    H5248556   3.146   5.811   2.426  0.4016  0.9146  0.9088
  173RES    H5348557   3.076   5.793   2.170 -0.7919  0.2249  0.9879
  173RES    H5448558   3.106   5.968   2.158 -0.8865  0.8431  0.6680
  173RES    H5548559   3.339   6.007   2.086  0.7747  0.4390 -0.5460
  173RES    H5648560   3.330   5.838   2.021 -0.2394  0.7115 -0.6376
  173RES    H5748561   3.452   5.890   2.127  0.0880 -0.8519  0.1104
  173RES    O5848562   3.096   6.019   2.409 -0.3554 -0.3263  0.1204
  173RES    C5948563   3.231   6.067   2.449 -0.1877 -0.1926  0.3093
  173RES    C6048564   3.221   6.096   2.600 -0.0888 -0.0346  0.2859
  173RES    C6148565   3.125   6.015   2.678  0.1332 -0.3658 -1.1490
  173RES    O6248566   3.164   6.047   2.811  0.0712  0.3632 -0.1865
  173RES    C6348567   3.091   5.981   2.917  0.6992 -0.1791 -0.1365
  173RES    H6448568   3.260   6.157   2.394 -0.6904  0.5181  1.1918
  173RES    H6548569   3.307   5.992   2.426  0.5135  0.4676  0.4395
  173RES    H6648570   3.320   6.081   2.643 -0.6859 -0.5528  1.4878
  173RES    H6748571   3.018   6.036   2.670 -0.3315 -2.0584  0.2812
  173RES    H6848572   3.151   5.912   2.653 -1.7448 -0.7288 -1.7201
  173RES    H6948573   3.068   5.878   2.888 -3.1060  0.2468  1.0415
  173RES    H7048574   3.005   6.046   2.934  0.3230 -1.0262  1.3782
  173RES    H7148575   3.155   5.982   3.005 -0.3316  2.3307  0.6053
  173RES    O7248576   3.173   6.230   2.621  0.4633  0.2061  0.2289
  173RES    C7348577   3.273   6.326   2.637 -0.1991 -0.1836  0.2531
  173RES    C7448578   3.210   6.462   2.684  0.2251 -0.5124 -0.3240
  173RES    C7548579   3.275   6.581   2.615  0.9700  0.0829  0.7427
  173RES    O7648580   3.203   6.699   2.651  0.4074  0.4981  0.4207
  173RES    C7748581   3.255   6.770   2.762 -0.9311 -0.1699  0.7371
  173RES    H7848582   3.357   6.302   2.702 -0.8413 -0.7499  0.8842
  173RES    H7948583   3.309   6.352   2.537 -0.7018  0.1317  0.1502
  173RES    H8048584   3.101   6.461   2.672  0.2035 -2.2356 -0.1316
  173RES    H8148585   3.276   6.576   2.506  0.9703 -0.9812  0.7851
  173RES    H8248586   3.382   6.590   2.637  1.2106 -3.1637  1.1697
  173RES    H8348587   3.353   6.816   2.756  0.4483 -3.1356 -0.5831
  173RES    H8448588   3.258   6.712   2.854  1.3084 -0.4971  0.4868
  173RES    H8548589   3.194   6.859   2.779 -1.5283 -0.7413  1.6134
  173RES    O8648590   3.250   6.465   2.825 -0.1536 -0.2595  0.4075
  173RES    C8748591   3.143   6.423   2.908  0.5553  0.3732  0.0104
  173RES    C8848592   3.175   6.385   3.049 -0.0951  0.0502 -0.1744
  173RES    C8948593   3.294   6.290   3.060 -1.1937  0.3762  0.5692
  173RES    O9048594   3.327   6.276   3.198  0.8955 -0.8753 -0.2370
  173RES    C9148595   3.441   6.196   3.231 -0.1915  0.1281 -0.3009
  173RES    H9248596   3.069   6.504   2.912  2.0568  1.7143  1.2491
  173RES    H9348597   3.106   6.335   2.854  1.2497  0.5555 -0.7667
  173RES    H9448598   3.092   6.330   3.093 -0.6612  1.4633  0.5770
  173RES    H9548599   3.277   6.193   3.013 -1.0342  0.5765  0.0931
  173RES    H9648600   3.383   6.340   3.023 -0.2478 -1.4838  0.2973
  173RES    H9748601   3.492   6.162   3.141 -0.0400 -2.1007  0.5754
  173RES    H9848602   3.520   6.257   3.276 -1.1266 -0.1663  1.7967
  173RES    H9948603   3.420   6.109   3.293  0.6710 -1.7730 -2.5997
  173RES   O10048604   3.196   6.504   3.126 -0.2160 -0.3109  0.1233
  173RES   C10148605   3.077   6.568   3.185  0.4067  0.1329  0.8324
  173RES   C10248606   3.112   6.704   3.238 -0.1268  0.3443 -0.0211
  173RES   C10348607   3.090   6.824   3.145  0.6160  0.4509 -0.0289
  173RES   O10448608   3.036   6.933   3.212  0.1450  0.1502  0.7231
  173RES   C10548609   2.896   6.946   3.205  0.5829 -0.7144 -0.3330
  173RES   H10648610   3.040   6.503   3.265  3.8599  0.2241  2.5790
  173RES   H10748611   2.994   6.584   3.115  0.3354  2.3997  1.4241
  173RES   H10848612   3.035   6.713   3.314  0.7248  0.2205  0.8755
  173RES   H10948613   3.035   6.797   3.055  0.6595  2.5232 -0.6821
  173RES   H11048614   3.182   6.860   3.099  0.0080  2.2775  0.1786
  173RES   H11148615   2.842   6.866   3.255 -0.3051  0.8053  1.2098
  173RES   H11248616   2.851   6.951   3.106 -0.6194  1.1076  0.2662
  173RES   H11348617   2.878   7.032   3.270  3.1097  0.3554 -0.9897
  173RES   O11448618   3.242   6.706   3.292  0.1899 -0.4131  0.4592
  173RES   C11548619   3.248   6.747   3.426 -0.1052  0.5089 -0.1926
  173RES   C11648620   3.389   6.766   3.481 -0.7218 -0.3142 -0.6112
  173RES   C11748621   3.395   6.874   3.582 -0.2945 -0.2064 -0.5367
  173RES   O11848622   3.528   6.895   3.628  0.0418  0.0017 -0.1557
  173RES   C11948623   3.536   6.902   3.771  0.8982  0.5197 -0.1159
  173RES   H12048624   3.199   6.843   3.443  1.2759  1.1727  0.1516
  173RES   H12148625   3.196   6.671   3.483  1.8312 -0.8271 -0.1705
  173RES   H12248626   3.449   6.817   3.405  1.1994 -0.8351  0.4994
  173RES   H12348627   3.376   6.964   3.524 -1.8712 -0.0130  0.2700
  173RES   H12448628   3.322   6.863   3.662  0.8340  0.0157  0.5350
  173RES   H12548629   3.471   6.833   3.826  1.3695  0.1404 -0.0370
  173RES   H12648630   3.513   7.006   3.794 -0.0569  0.1002  0.8766
  173RES   H12748631   3.640   6.898   3.802  0.5575  0.8396  1.1171
  173RES   O12848632   3.452   6.643   3.525 -1.1256  0.1678 -0.0843
  173RES   C12948633   3.481   6.545   3.431 -0.5186 -0.0984  0.1703
  173RES   C13048634   3.587   6.588   3.323  0.3115  0.2368  0.3284
  173RES   C13148635   3.544   6.562   3.176  0.5928  1.0449 -0.8057
  173RES   O13248636   3.612   6.638   3.079 -0.2508 -0.5685 -0.4179
  173RES   C13348637   3.539   6.643   2.953  1.1599 -0.0519 -0.7615
  173RES   H13448638   3.531   6.471   3.493 -1.8388 -0.4572  0.8253
  173RES   H13548639   3.386   6.501   3.401 -1.2195 -0.1962  2.4365
  173RES   H13648640   3.593   6.697   3.334 -0.2045  0.2146  0.8324
  173RES   H13748641   3.437   6.582   3.172  0.6778  1.5754 -0.5551
  173RES   H13848642   3.557   6.455   3.158 -0.1277  0.5065  1.5934
  173RES   H13948643   3.446   6.698   2.962  1.0262 -0.0753 -1.9322
  173RES   H14048644   3.596   6.687   2.870 -1.1092  0.5752 -2.0220
  173RES   H14148645   3.512   6.543   2.919 -1.3882 -0.1689  1.5055
  173RES   O14248646   3.713   6.531   3.345  0.2082  0.4049 -0.0538
  173RES   C14348647   3.826   6.565   3.270 -0.1584 -0.1405  0.4386
  173RES   C14448648   3.860   6.717   3.248 -0.2024  0.3920  0.1761
  173RES   C14548649   3.973   6.723   3.140  0.8170 -0.5282 -0.1005
  173RES   O14648650   3.971   6.859   3.085 -0.2291 -0.2420 -0.1620
  173RES   C14748651   4.047   6.868   2.965 -0.0428 -0.4120 -0.2977
  173RES   H14848652   3.911   6.515   3.316 -0.9031 -2.2306 -0.4100
  173RES   H14948653   3.820   6.520   3.171 -1.4975  1.9990 -0.4992
  173RES   H15048654   3.772   6.770   3.210 -0.1348  0.9769  0.8389
  173RES   H15148655   3.954   6.660   3.054 -1.9685  1.5974 -1.1176
  173RES   H15248656   4.071   6.694   3.178  0.7155 -0.1455  0.4737
  173RES   H15348657   4.149   6.832   2.984 -0.7032 -1.4423  1.3776
  173RES   H15448658   4.049   6.973   2.939  0.5479  0.2744  2.3164
  173RES   H15548659   4.010   6.815   2.877 -0.6669 -2.8331  1.3600
  173RES   O15648660   3.915   6.752   3.369  0.3649 -0.3921  0.2468
  173RES   C15748661   3.843   6.842   3.455  0.0347 -0.2700 -0.3179
  173RES   C15848662   3.845   6.982   3.390 -0.4944 -0.6571 -0.4511
  173RES   C15948663   3.837   7.081   3.504 -0.0714 -0.1530  0.0411
  173RES   O16048664   3.836   7.205   3.439  0.1224 -0.1203 -0.3750
  173RES   C16148665   3.858   7.309   3.540  0.0390  0.2114 -0.0240
  173RES   H16248666   3.741   6.806   3.467  0.4779 -2.1584 -2.0019
  173RES   H16348667   3.887   6.849   3.555  2.7135  4.1762 -1.6870
  173RES   H16448668   3.932   6.994   3.325  1.3453  3.0348  2.4849
  173RES   H16548669   3.752   7.062   3.569 -0.2716  0.5276 -0.0181
  173RES   H16648670   3.925   7.069   3.567 -0.2870  1.2862  0.6470
  173RES   H16748671   3.768   7.316   3.601  1.4826  0.7175  2.0917
  173RES   H16848672   3.874   7.406   3.494 -2.1243 -0.3323 -2.0408
  173RES   H16948673   3.939   7.296   3.611  0.4260 -0.5654 -0.6042
  173RES   O17048674   3.735   6.990   3.306 -0.3296  0.4047 -0.3948
  173RES   C17148675   3.736   7.076   3.189 -0.4040 -0.0298 -0.2174
  173RES   C17248676   3.607   7.056   3.106  0.4101 -0.4899 -0.2567
  173RES   C17348677   3.629   7.107   2.956 -0.4474  0.7439  1.0215
  173RES   O17448678   3.508   7.089   2.880  0.0006  0.2570 -0.1370
  173RES   C17548679   3.519   7.127   2.746 -0.3796  0.1876 -0.6396
  173RES   H17648680   3.818   7.041   3.125  0.8829 -0.9477  1.8653
  173RES   H17748681   3.747   7.182   3.213 -0.6138 -0.2914  1.0790
  173RES   H17848682   3.564   6.956   3.113 -2.2983  0.5448 -1.4918
  173RES   H17948683   3.670   7.208   2.949 -2.3047  1.5630  1.3998
  173RES   H18048684   3.693   7.036   2.903  3.3245  3.3952  1.8626
  173RES   H18148685   3.596   7.201   2.727 -0.6883  0.9189  0.8589
  173RES   H18248686   3.419   7.149   2.708 -1.3061  0.5373  1.8920
  173RES   H18348687   3.557   7.037   2.697 -1.5219 -2.3736  2.9754
  173RES   O18448688   3.513   7.145   3.167  0.6245 -0.1491  0.3850
  173RES   C18548689   3.438   7.080   3.262  0.1631 -0.1119  0.5633
  173RES   C18648690   3.347   7.190   3.321 -0.4857 -0.8938 -0.3256
  173RES   C18748691   3.424   7.317   3.370 -0.4975  0.0197 -0.1495
  173RES   O18848692   3.363   7.426   3.307 -0.3072  0.2859 -0.4102
  173RES   C18948693   3.443   7.518   3.239 -0.8345  0.3207  0.3665
  173RES   H19048694   3.506   7.048   3.340 -2.1850 -2.1240  1.8352
  173RES   H19148695   3.374   7.007   3.212  0.5235  1.1231 -1.8146
  173RES   H19248696   3.290   7.226   3.236 -2.4884 -2.9380  0.1087
  173RES   H19348697   3.528   7.292   3.351  0.1686  1.8979  0.8546
  173RES   H19448698   3.424   7.330   3.478  1.0375 -2.3175  0.1742
  173RES   H19548699   3.380   7.596   3.196 -1.0826 -0.8442 -1.3910
  173RES   H19648700   3.521   7.569   3.296 -0.7259  2.9789 -2.0498
  173RES   H19748701   3.494   7.479   3.151 -2.5588 -0.6039 -0.2381
  173RES   O19848702   3.259   7.136   3.417 -0.0507 -0.1155  0.2785
  173RES   C19948703   3.129   7.196   3.418  0.5363  0.3030  0.6514
  173RES   C20048704   3.054   7.167   3.551 -0.4498  0.8244 -0.2079
  173RES   C20148705   2.912   7.221   3.572  0.3838  0.4419 -0.5341
  173RES   O20248706   2.839   7.119   3.640  0.1526  0.5154 -0.1857
  173RES   C20348707   2.701   7.141   3.674  0.1690 -0.0611  0.3672
  173RES   H20448708   3.062   7.157   3.342  1.3447 -3.1725  1.6577
  173RES   H20548709   3.137   7.303   3.398  1.7295 -0.0787 -1.0297
  173RES   H20648710   3.054   7.059   3.565 -0.5262  0.5214 -2.4550
  173RES   H20748711   2.908   7.309   3.637  3.5421 -0.9569  1.6721
  173RES   H20848712   2.853   7.244   3.484 -1.6997 -1.9104  0.2017
  173RES   H20948713   2.660   7.057   3.731  1.2778 -1.0869 -0.3159
  173RES   H21048714   2.645   7.148   3.581  1.3462  1.7485 -0.2338
  173RES   H21148715   2.689   7.237   3.723  0.6707  0.7950 -1.1554
  173RES   O21248716   3.140   7.220   3.643  0.3752 -0.1750 -0.5127
  173RES   C21348717   3.129   7.173   3.774  0.5592  0.7575 -0.8221
  173RES   C21448718   3.252   7.217   3.864  0.2234  0.2119 -0.5693
  173RES   C21548719   3.248   7.138   4.000  0.3639 -0.3793  0.4810
  173RES   O21648720   3.351   7.196   4.081  0.1871  0.0532  1.0501
  173RES   C21748721   3.480   7.135   4.058 -0.6673 -0.1652  0.6210
  173RES   H21848722   3.126   7.064   3.781  2.9555  0.6009 -1.6869
  173RES   H21948723   3.038   7.212   3.820  0.5463 -0.8250  0.5456
  173RES   H22048724   3.337   7.179   3.807  0.3683  0.0714 -0.2615
  173RES   H22148725   3.156   7.151   4.057  1.8287  1.6378  2.4792
  173RES   H22248726   3.258   7.031   3.984  0.7664 -0.3322  0.4225
  173RES   H22348727   3.527   7.150   4.155 -0.3578  0.8293  0.3207
  173RES   H22448728   3.531   7.189   3.978 -0.7386  0.0572  0.7235
  173RES   H22548729   3.465   7.029   4.038 -1.8138  0.3658 -1.5375
  173RES   O22648730   3.244   7.353   3.880 -0.1912 -0.0633  0.1670
  173RES   C22748731   3.333   7.440   3.796  0.5060  0.3234 -0.1404
  173RES   C22848732   3.284   7.588   3.807  0.0119 -0.1131 -0.2049
  173RES   C22948733   3.131   7.606   3.768 -0.2948 -0.1417  0.0586
  173RES   O23048734   3.089   7.717   3.694 -0.0939 -0.1850  0.0974
  173RES   C23148735   3.086   7.704   3.555 -0.3827  1.1733  0.0261
  173RES   H23248736   3.324   7.395   3.697  1.6444  3.3841 -1.6806
  173RES   H23348737   3.436   7.436   3.832  0.0269  0.9263  1.3366
  173RES   H23448738   3.342   7.645   3.735 -1.4020  0.0209 -1.2622
  173RES   H23548739   3.070   7.611   3.858  1.0429  1.6909  0.9009
  173RES   H23648740   3.095   7.521   3.710 -0.8077 -1.9633  2.9699
  173RES   H23748741   3.034   7.617   3.514  0.2789  0.6420  0.3015
  173RES   H23848742   3.187   7.703   3.513 -1.2883  1.6351 -2.2591
  173RES   H23948743   3.032   7.794   3.525 -1.9767  0.7969  1.7442
  173RES   O24048744   3.314   7.631   3.938 -0.2811  0.0598  0.3196
  173RES   C24148745   3.294   7.765   3.981  0.5037  0.1531  0.0809
  173RES   C24248746   3.342   7.755   4.130 -0.1259 -0.2859  0.1195
  173RES   C24348747   3.387   0.078   4.181 -0.2956 -0.5335 -0.5293
  173RES   O24448748   3.422   0.085   4.319 -0.4357 -0.0196  0.4913
  173RES   C24548749   3.542   0.019   4.358  0.0258  0.4106  0.0369
  173RES   H24648750   3.191   7.801   3.976  0.2856 -0.3321  0.9356
  173RES   H24748751   3.346   0.023   3.922 -2.8551  2.8137  0.3295
  173RES   H24848752   3.435   7.698   4.134  0.3881  0.5881  0.7689
  173RES   H24948753   3.483   0.098   4.133 -0.3098  2.3689  0.5429
  173RES   H25048754   3.320   0.155   4.144  1.0151 -0.5018 -2.9125
  173RES   H25148755   3.538   0.012   4.467  2.2697  1.9228  0.2375
  173RES   H25248756   3.636   0.068   4.332  1.3427 -2.1167 -0.1242
  173RES   H25348757   3.535   7.733   4.321 -2.9274  1.3320 -2.2192
  173RES   O25448758   3.242   7.702   4.214  0.1955  0.4217  0.0893
  173RES   C25548759   3.234   7.558   4.211  0.5390  0.0580 -0.1381
  173RES   C25648760   3.144   7.503   4.322 -0.5671  0.6615  0.6937
  173RES   C25748761   3.131   7.347   4.299  0.3299  0.1938  0.3783
  173RES   O25848762   3.005   7.302   4.346 -0.6113  0.0303  0.2053
  173RES   C25948763   2.981   7.163   4.317  0.2990 -0.9051  0.5826
  173RES   H26048764   3.188   7.538   4.115 -0.4285  3.6925 -0.5013
  173RES   H26148765   3.337   7.521   4.218  0.9938  1.5465  1.5038
  173RES   H26248766   3.041   7.535   4.308 -0.1550  0.5547 -3.2064
  173RES   H26348767   3.139   7.330   4.191 -2.4250 -0.7937  0.2938
  173RES   H26448768   3.217   7.299   4.345  1.0388  1.0163 -0.0824
  173RES   H26548769   3.007   7.130   4.217 -0.3504 -0.8020  0.3776
  173RES   H26648770   2.877   7.138   4.335  0.3691 -0.9553  0.9240
  173RES   H26748771   3.037   7.096   4.383  1.1138 -2.4525 -1.6123
  173RES   O26848772   3.198   7.525   4.448 -0.2650 -0.0099 -0.2022
  173RES   C26948773   3.208   7.656   4.502  0.5459  1.0856 -0.0064
  173RES   C27048774   3.191   7.651   4.652 -0.4006  0.0501 -0.6049
  173RES   C27148775   3.288   7.748   4.722  0.0301 -0.3653 -0.1100
  173RES   O27248776   3.226   7.806   4.837 -0.0648  0.0988  0.5353
  173RES   C27348777   3.252   7.726   4.951  0.0441  0.1564  0.6032
  173RES   H27448778   3.143   7.727   4.451  1.0977  0.1563 -2.0573
  173RES   H27548779   3.307   7.692   4.471  0.9181  1.1219  1.2108
  173RES   H27648780   3.096   7.703   4.668 -0.7120 -0.3862 -1.0067
  173RES   H27748781   3.311   0.014   4.656 -1.9373 -0.9529 -1.6075
  173RES   H27848782   3.384   7.707   4.753  0.8658  2.0284  0.5480
  173RES   H27948783   3.211   7.625   4.946  0.2431  0.1669 -1.9799
  173RES   H28048784   3.204   7.770   5.038 -0.9456 -2.4931  1.4436
  173RES   H28148785   3.360   7.728   4.963  0.3600  1.2650 -2.2616
  173RES   H28248786   3.183   7.548   4.686 -1.0102  0.3937  0.3186
  174RES     O148787   5.663   2.478   2.889 -0.0145 -0.0691  0.2962
  174RES     C248788   5.803   2.454   2.890  0.3041  0.2085 -0.4052
  174RES     C348789   5.844   2.456   3.042  0.3545  0.2102  0.3263
  174RES     C448790   5.953   2.354   3.069 -0.3113 -0.0982 -0.1360
  174RES     O548791   6.065   2.393   2.993 -0.7099 -0.4301 -0.4836
  174RES     C648792   6.169   2.292   2.994  0.4686 -0.2627  0.0598
  174RES     H748793   5.818   2.352   2.853 -1.0600 -1.1662  2.6063
  174RES     H848794   5.869   2.524   2.839  0.6533  0.2163  0.0499
  174RES     H948795   5.766   2.420   3.108  1.1274  0.6029  1.4647
  174RES    H1048796   5.929   2.254   3.034 -1.5005  0.4053 -0.7903
  174RES    H1148797   5.969   2.349   3.177 -2.6655  2.4687  0.3800
  174RES    H1248798   6.248   2.331   2.929 -1.0754  0.5386 -1.3659
  174RES    H1348799   6.196   2.271   3.097  0.2692  2.4081  0.6995
  174RES    H1448800   6.140   2.194   2.955 -1.1343  0.1778  0.1087
  174RES    H1548801   5.647   2.569   2.909  1.4097  0.6182 -1.5416
  174RES    O1648802   5.887   2.589   3.076  0.2520  0.3778  0.9010
  174RES    C1748803   5.850   2.635   3.194 -0.9071  0.4825  0.0075
  174RES    C1848804   5.945   2.756   3.228 -0.0603  0.0028  0.3201
  174RES    C1948805   5.887   2.856   3.332 -0.9402  1.3788  0.0808
  174RES    O2048806   5.972   2.965   3.365  0.1006 -0.3400  0.3213
  174RES    C2148807   5.963   3.068   3.264  0.2111 -0.6433  0.2505
  174RES    H2248808   5.856   2.552   3.265 -0.4099  0.4554 -0.0628
  174RES    H2348809   5.746   2.666   3.188 -0.5296  1.6702 -0.7498
  174RES    H2448810   5.960   2.814   3.137  0.7916 -0.7834 -0.0466
  174RES    H2548811   5.786   2.880   3.301 -0.4680  2.0575 -0.9579
  174RES    H2648812   5.865   2.799   3.422  0.1873  0.3609 -0.2762
  174RES    H2748813   6.044   3.136   3.289  0.1618 -0.9193  1.2227
  174RES    H2848814   5.861   3.106   3.268 -0.5100 -2.3903 -0.8407
  174RES    H2948815   5.981   3.024   3.166  0.2849  0.1686 -0.1042
  174RES    O3048816   6.062   2.709   3.281 -0.1289  0.1908 -0.2452
  174RES    C3148817   6.160   2.685   3.182 -0.2883 -0.6260 -0.0633
  174RES    C3248818   6.291   2.645   3.253  0.2661  0.4186 -0.2040
  174RES    C3348819   6.275   2.541   3.361 -0.4207 -0.2398  0.6146
  174RES    O3448820   6.397   2.465   3.383 -0.0693 -0.1523  0.0593
  174RES    C3548821   6.385   2.346   3.457  0.1454 -0.1757 -0.4258
  174RES    H3648822   6.129   2.596   3.126  1.3426  0.4158 -2.6964
  174RES    H3748823   6.182   2.766   3.113  0.0239 -1.0299 -0.4426
  174RES    H3848824   6.357   2.609   3.174 -0.0570 -0.9258  0.1244
  174RES    H3948825   6.192   2.474   3.339  0.3541 -0.3710 -2.1304
  174RES    H4048826   6.247   2.581   3.458 -0.5427 -0.1234  0.5321
  174RES    H4148827   6.481   2.314   3.498  0.1968  0.7344  0.1825
  174RES    H4248828   6.347   2.265   3.395 -2.6879 -0.6369  1.7842
  174RES    H4348829   6.319   2.349   3.544 -0.3165  0.5095 -0.7872
  174RES    O4448830   6.369   2.759   3.299  0.2515 -0.2905  0.9430
  174RES    C4548831   6.300   2.851   3.382  0.6993  0.1105  1.0220
  174RES    C4648832   6.395   2.959   3.426  0.5130  0.1161 -0.7793
  174RES    C4748833   6.326   3.088   3.471 -0.5108 -0.5597 -0.6195
  174RES    O4848834   6.415   3.197   3.465 -0.4526 -0.1703  0.1649
  174RES    C4948835   6.359   3.329   3.452  0.6759  0.1409 -0.6200
  174RES    H5048836   6.247   2.798   3.461 -0.7151  1.1609  0.7884
  174RES    H5148837   6.217   2.890   3.324 -0.0419 -1.5236  0.9551
  174RES    H5248838   6.452   2.989   3.337  0.4105  2.0345 -0.2313
  174RES    H5348839   6.241   3.112   3.407 -1.5589 -0.3993  0.8247
  174RES    H5448840   6.279   3.072   3.567 -1.4827 -1.0744 -1.1766
  174RES    H5548841   6.297   3.347   3.540  0.3788 -3.3223 -0.0474
  174RES    H5648842   6.290   3.326   3.367  1.7067  0.1836 -1.4659
  174RES    H5748843   6.434   3.406   3.432 -0.8963  1.6899 -0.7145
  174RES    O5848844   6.488   2.909   3.521  0.5166  0.0612  0.1965
  174RES    C5948845   6.622   2.882   3.479 -0.3743 -0.0083  0.3188
  174RES    C6048846   6.710   2.851   3.610 -0.3780  0.0547  0.0045
  174RES    C6148847   6.864   2.886   3.596  0.2962  0.4538 -0.0850
  174RES    O6248848   6.908   2.865   3.464 -0.1904 -0.3131 -0.2646
  174RES    C6348849   7.050   2.911   3.449  0.1265 -0.2040  0.1823
  174RES    H6448850   6.662   2.975   3.438  1.0852 -0.2740  1.0989
  174RES    H6548851   6.620   2.801   3.406 -0.9361  0.3858 -0.1117
  174RES    H6648852   6.667   2.909   3.691 -0.2353 -0.3348  0.3566
  174RES    H6748853   6.875   2.991   3.622 -0.4076 -0.1543  2.8224
  174RES    H6848854   6.923   2.837   3.673  1.4924  0.3151 -1.0669
  174RES    H6948855   7.069   3.018   3.446  2.9603 -0.6433  0.8733
  174RES    H7048856   7.091   2.875   3.354  0.1994 -1.0607  0.5296
  174RES    H7148857   7.109   2.881   3.535 -0.6703  0.9731  1.1403
  174RES    O7248858   6.704   2.711   3.638  0.2193  0.2631 -0.6256
  174RES    C7348859   6.583   2.645   3.639 -0.0413 -0.5650 -0.0673
  174RES    C7448860   6.588   2.533   3.747 -0.0085 -0.2096 -0.0889
  174RES    C7548861   6.698   2.423   3.724  0.8164  0.5335  0.2197
  174RES    O7648862   6.714   2.351   3.842  0.2177  0.2383  0.0774
  174RES    C7748863   6.803   2.245   3.830  0.8402  0.0251  0.0955
  174RES    H7848864   6.508   2.721   3.661  1.3139  0.9973 -0.7720
  174RES    H7948865   6.537   2.613   3.545  1.8865  1.9778 -1.9544
  174RES    H8048866   6.609   2.577   3.844  2.4429 -3.5392  0.9941
  174RES    H8148867   6.794   2.462   3.689 -0.0794  0.8325 -1.9587
  174RES    H8248868   6.658   2.358   3.647 -1.6763  3.4644 -1.0565
  174RES    H8348869   6.785   2.162   3.898  0.1818 -1.7310 -2.1939
  174RES    H8448870   6.902   2.284   3.855  0.4315  2.0474 -1.3396
  174RES    H8548871   6.805   2.211   3.727 -0.4764 -0.7242  0.3169
  174RES    O8648872   6.451   2.486   3.735 -0.0104  0.4685 -0.0315
  174RES    C8748873   6.407   2.410   3.845 -0.4989  0.1548 -0.2201
  174RES    C8848874   6.258   2.384   3.836 -0.0728  0.1503  0.3395
  174RES    C8948875   6.219   2.265   3.929  0.7797 -0.3047 -0.2892
  174RES    O9048876   6.082   2.228   3.898 -0.2229  0.3037  0.7773
  174RES    C9148877   6.037   2.114   3.961  0.1626 -0.4825 -0.3963
  174RES    H9248878   6.458   2.314   3.844 -0.6656  0.0218 -4.5060
  174RES    H9348879   6.425   2.453   3.943  0.3605 -0.3757 -0.1414
  174RES    H9448880   6.214   2.346   3.744 -2.0505 -1.4089  1.8734
  174RES    H9548881   6.272   2.173   3.904 -0.0433 -1.0934  0.8184
  174RES    H9648882   6.231   2.281   4.036 -0.4147 -3.7921  0.4491
  174RES    H9748883   5.938   2.085   3.925 -0.1371  2.6753 -2.2574
  174RES    H9848884   6.094   2.026   3.931  1.8334 -0.2721  2.0500
  174RES    H9948885   6.043   2.118   4.070 -0.4328 -1.5219 -0.3125
  174RES   O10048886   6.185   2.497   3.882 -0.1657  0.1993 -0.3336
  174RES   C10148887   6.165   2.592   3.779 -0.4163 -0.2523  0.0712
  174RES   C10248888   6.126   2.725   3.836  0.3541 -0.0247  0.3072
  174RES   C10348889   6.030   2.802   3.740  0.9332  0.5868 -0.1363
  174RES   O10448890   6.007   2.921   3.811 -0.8578 -0.2311  0.6929
  174RES   C10548891   5.904   3.004   3.758 -0.2227  0.3110 -0.4211
  174RES   H10648892   6.083   2.554   3.717 -0.7052 -0.2509  0.4515
  174RES   H10748893   6.245   2.607   3.707 -0.3124  0.5372  0.3511
  174RES   H10848894   6.066   2.717   3.927 -0.1473 -1.7206 -0.1517
  174RES   H10948895   5.934   2.754   3.719  0.4834  0.6203  1.7354
  174RES   H11048896   6.078   2.833   3.648 -0.0197 -0.0165 -0.8474
  174RES   H11148897   5.800   2.989   3.784 -1.1429  2.3393 -2.7129
  174RES   H11248898   5.892   3.014   3.650  1.7707  3.2372 -0.4245
  174RES   H11348899   5.925   3.108   3.782 -1.8645  1.1622 -2.5263
  174RES   O11448900   6.250   2.805   3.847  0.0325  0.0593  0.3262
  174RES   C11548901   6.266   2.851   3.973  0.5045  0.3995  0.0262
  174RES   C11648902   6.400   2.922   3.978  0.4984  0.1369 -0.5781
  174RES   C11748903   6.383   3.037   4.077  0.0444  0.3662 -0.1529
  174RES   O11848904   6.493   3.127   4.072  0.6643  0.8255  0.3814
  174RES   C11948905   6.492   3.231   4.163  0.5660  0.0331  0.2504
  174RES   H12048906   6.181   2.918   3.987  0.9792  1.3983 -1.6425
  174RES   H12148907   6.261   2.775   4.050  0.4708  2.2108  1.8426
  174RES   H12248908   6.423   2.952   3.876  0.0475  1.5659 -0.2735
  174RES   H12348909   6.291   3.087   4.046 -1.3418 -1.3345  1.0317
  174RES   H12448910   6.361   2.989   4.173 -1.8774 -1.2815 -1.3579
  174RES   H12548911   6.494   3.191   4.264  1.0314 -1.6784 -0.4205
  174RES   H12648912   6.414   3.307   4.153 -1.1351 -1.7761 -0.6751
  174RES   H12748913   6.582   3.291   4.167 -1.0657  2.4720  1.7977
  174RES   O12848914   6.485   2.824   4.027 -0.4961  0.5762 -0.0519
  174RES   C12948915   6.619   2.841   3.989 -0.0495  0.2081  0.4460
  174RES   C13048916   6.709   2.774   4.084 -0.7210  0.0847 -0.3371
  174RES   C13148917   6.718   2.861   4.210 -0.1071 -0.3857  0.9178
  174RES   O13248918   6.764   2.785   4.324  0.1250  0.3084  0.3185
  174RES   C13348919   6.780   2.869   4.438 -0.5776  0.2790 -0.1322
  174RES   H13448920   6.624   2.785   3.896 -0.0293 -0.7714  1.0371
  174RES   H13548921   6.653   2.944   3.977 -0.3167  0.4279  1.4739
  174RES   H13648922   6.669   2.675   4.106 -1.5290  0.4328 -0.2215
  174RES   H13748923   6.616   2.888   4.237 -0.2077 -2.1168  2.3766
  174RES   H13848924   6.772   2.953   4.190 -0.0100 -0.5517  0.4019
  174RES   H13948925   6.695   2.927   4.474  0.1150  1.9963 -1.2301
  174RES   H14048926   6.807   2.801   4.519 -2.2742 -0.4507 -0.1453
  174RES   H14148927   6.864   2.936   4.422 -0.4230  0.1020 -0.0691
  174RES   O14248928   6.838   2.777   4.032  0.0374 -0.0991 -0.0969
  174RES   C14348929   6.884   2.661   3.973 -0.7283 -0.3055 -0.1185
  174RES   C14448930   7.029   2.701   3.927 -0.3894 -0.4597 -0.5258
  174RES   C14548931   7.076   2.608   3.812 -1.0151 -0.2370  0.4792
  174RES   O14648932   7.205   2.644   3.765  0.9946 -0.0270 -0.7293
  174RES   C14748933   7.245   2.599   3.643 -0.2799 -0.2346 -0.0443
  174RES   H14848934   6.886   2.573   4.037 -0.6713 -2.0878 -2.5042
  174RES   H14948935   6.828   2.627   3.886 -0.4427 -0.1732 -0.3555
  174RES   H15048936   7.045   2.807   3.908  0.0796 -0.5315 -0.5370
  174RES   H15148937   7.002   2.611   3.732 -0.9703  0.7028  0.4716
  174RES   H15248938   7.084   2.504   3.844  0.4388 -0.0386  0.8139
  174RES   H15348939   7.271   2.494   3.658 -0.5847 -0.0885  1.5903
  174RES   H15448940   7.331   2.661   3.618  0.1795 -0.5227  0.8028
  174RES   H15548941   7.174   2.599   3.560 -0.7870 -0.9096  0.3817
  174RES   O15648942   7.121   2.666   4.036  0.4894 -0.1018 -0.5712
  174RES   C15748943   7.094   2.750   4.151  0.0218  0.5985 -0.2376
  174RES   C15848944   7.227   2.750   4.224 -0.1621  0.2251  0.0145
  174RES   C15948945   7.226   2.822   4.354  0.0278 -0.3036 -0.0048
  174RES   O16048946   7.175   2.956   4.353 -0.4968 -0.0977 -0.4407
  174RES   C16148947   7.190   3.037   4.472 -0.6249  0.0263  0.4383
  174RES   H16248948   7.077   2.855   4.129 -0.5689  0.6143  0.2877
  174RES   H16348949   7.020   2.707   4.218  2.0990 -0.8287  1.2175
  174RES   H16448950   7.233   2.641   4.232  1.1939  0.1924 -1.2054
  174RES   H16548951   7.171   2.758   4.422 -0.7901 -1.2763 -1.5675
  174RES   H16648952   7.324   2.818   4.403  0.7035  1.4458 -1.1368
  174RES   H16748953   7.149   3.133   4.438 -2.5056 -0.6892  0.6147
  174RES   H16848954   7.295   3.030   4.498 -0.4192  0.3985 -0.2709
  174RES   H16948955   7.131   3.006   4.559  0.6141  0.0424  1.2852
  174RES   O17048956   7.326   2.809   4.135 -0.0677  0.0882  0.7288
  174RES   C17148957   7.418   2.707   4.084 -0.4818  0.2764 -0.1135
  174RES   C17248958   7.462   2.760   3.940 -0.4441  0.2062  0.4099
  174RES   C17348959   7.544   2.648   3.865  0.2117 -0.5440  0.2939
  174RES   O17448960   7.557   2.672   3.722 -0.3459 -0.0756 -0.5817
  174RES   C17548961   7.624   2.796   3.690  0.2055 -0.1948 -0.3943
  174RES   H17648962   7.372   2.609   4.067  0.5162  0.2579 -2.8993
  174RES   H17748963   7.507   2.684   4.143 -1.1352 -1.2319  0.3289
  174RES   H17848964   7.372   2.779   3.881  0.1383 -0.5240 -0.7401
  174RES   H17948965   7.642   2.629   3.909 -0.2954 -0.4324  1.4832
  174RES   H18048966   7.485   2.558   3.877 -0.5120  0.0978  1.6507
  174RES   H18148967   7.696   2.833   3.763  0.1258  1.8495 -1.3294
  174RES   H18248968   7.549   2.872   3.669 -1.4435 -1.6345  0.1724
  174RES   H18348969   7.673   2.785   3.593 -0.1931  2.9244 -1.0040
  174RES   O18448970   7.543   2.877   3.946 -0.1999 -0.3250  0.6762
  174RES   C18548971   7.477   3.003   3.964  0.1482 -0.0836 -0.3577
  174RES   C18648972   7.496   3.061   4.103  0.2083  0.4581 -0.8002
  174RES   C18748973   7.396   3.181   4.129  0.2668  0.9235 -0.7361
  174RES   O18848974   7.422   3.236   4.256  0.0698  0.2756  0.5944
  174RES   C18948975   7.345   3.353   4.282  0.3485 -0.3116  0.3276
  174RES   H19048976   7.371   2.991   3.944  0.8625 -4.3184 -2.0482
  174RES   H19148977   7.515   3.077   3.894  1.3492  0.6843  1.0563
  174RES   H19248978   7.491   2.981   4.177 -0.3989  1.7172  0.5334
  174RES   H19348979   7.292   3.149   4.124  0.9636 -1.3906 -1.3881
  174RES   H19448980   7.413   3.249   4.046  1.2413 -0.7442 -1.9464
  174RES   H19548981   7.372   3.426   4.207 -0.9726  1.0115  1.1111
  174RES   H19648982   7.237   3.346   4.271  0.1642  1.0211  1.1904
  174RES   H19748983   7.358   3.377   4.388 -0.7685 -2.6944  1.0487
  174RES   O19848984   7.631   3.111   4.094 -0.8830 -0.1489 -1.0643
  174RES   C19948985   7.693   3.133   4.220 -0.5071  0.7261 -0.9088
  174RES   C20048986   7.789   3.254   4.208  0.8502  0.4936  0.5394
  174RES   C20148987   0.088   3.240   4.308  0.4321  0.8015  0.5164
  174RES   O20248988   0.184   3.344   4.293 -0.3226 -0.1389 -0.3049
  174RES   C20348989   0.305   3.342   4.370 -0.0471  0.1179 -0.0317
  174RES   H20448990   7.743   3.037   4.234 -1.6541 -0.0877 -2.1873
  174RES   H20548991   7.624   3.142   4.303  0.7636 -1.3991  0.4220
  174RES   H20648992   0.003   3.257   4.104 -0.2829  4.0549  0.2364
  174RES   H20748993   0.055   3.231   4.412 -0.7453 -1.2475 -0.0118
  174RES   H20848994   0.141   3.149   4.280  0.6405  0.9304  0.4864
  174RES   H20948995   0.348   3.441   4.360 -0.8470  0.4691  0.0399
  174RES   H21048996   0.379   3.268   4.339 -0.1332  0.4875 -1.1273
  174RES   H21148997   0.288   3.326   4.476  3.2398  0.0247  0.5361
  174RES   O21248998   7.710   3.364   4.244  0.3368 -0.2299 -0.1663
  174RES   C21348999   7.667   3.437   4.128 -0.1257 -0.1284  0.2511
  174RES   C21449000   7.771   3.523   4.054 -0.3664  0.3655  0.0154
  174RES   C21549001   7.743   3.679   4.060  0.5594  0.0684 -0.4400
  174RES   O21649002   7.615   3.712   4.011  0.2256 -0.0699  0.3625
  174RES   C21749003   7.612   3.857   3.980  0.9008 -0.4659 -0.5031
  174RES   H21849004   7.592   3.507   4.165  1.9505  0.6324  3.1784
  174RES   H21949005   7.613   3.371   4.060 -2.8328 -0.6461  2.8030
  174RES   H22049006   0.044   3.500   4.111 -1.4561 -1.9500  0.8974
  174RES   H22149007   7.745   3.702   4.166  2.6666 -0.0463 -0.4313
  174RES   H22249008   0.008   3.738   4.019  1.1221  0.7036  1.5740
  174RES   H22349009   7.637   3.911   4.071  0.4275  0.5807 -0.9875
  174RES   H22449010   7.511   3.885   3.951  1.7547  0.1443 -3.0169
  174RES   H22549011   7.675   3.888   3.897  1.0994 -1.0226 -0.5680
  174RES   O22649012   7.786   3.473   3.923 -0.4738  0.4159 -0.3437
  174RES   C22749013   0.075   3.524   3.843  0.9899 -0.0066 -0.4289
  174RES   C22849014   0.050   3.486   3.699  0.0677 -0.5947  1.1844
  174RES   C22949015   0.127   3.567   3.596 -0.1841 -0.3144 -0.0018
  174RES   O23049016   0.087   3.528   3.460 -0.0499  0.3857 -0.1737
  174RES   C23149017   0.175   3.441   3.401  0.6521  0.4128 -0.6609
  174RES   H23249018   0.173   3.501   3.883 -0.1763  0.0883  2.6074
  174RES   H23349019   0.058   3.632   3.845  0.0082 -0.1654  0.1998
  174RES   H23449020   7.761   3.502   3.678  0.1558 -1.0672  0.3553
  174RES   H23549021   0.235   3.580   3.608 -0.8416  2.9536  3.3595
  174RES   H23649022   0.091   3.669   3.602 -1.3507 -0.6923 -0.4087
  174RES   H23749023   0.253   3.509   3.367  0.5434  0.9277  0.1099
  174RES   H23849024   0.126   3.391   3.317  0.2994 -1.8297  0.8251
  174RES   H23949025   0.203   3.365   3.474 -0.2590 -1.4625 -2.2149
  174RES   O24049026   0.079   3.347   3.696  0.6273  0.8511  0.0897
  174RES   C24149027   7.786   3.254   3.721  0.1326  0.0549  0.2329
  174RES   C24249028   7.813   3.114   3.664 -0.2730  0.3573  0.8083
  174RES   C24349029   7.803   3.105   3.510 -0.2529  0.1006  0.5515
  174RES   O24449030   0.006   2.973   3.473 -0.1106  0.0464  0.6221
  174RES   C24549031   0.065   2.959   3.344  0.5968 -0.2652  0.2501
  174RES   H24649032   7.696   3.308   3.693  0.4082  1.2556  1.5587
  174RES   H24749033   7.770   3.244   3.829  0.2892  0.5343  0.3046
  174RES   H24849034   7.742   3.046   3.712  0.4904 -0.7073  0.4380
  174RES   H24949035   7.705   3.141   3.478 -0.2734  0.4397  1.0062
  174RES   H25049036   0.063   3.166   3.463 -1.4408  0.1440 -1.3873
  174RES   H25149037   0.011   3.004   3.260 -0.9181  0.2833  1.5061
  174RES   H25249038   0.056   2.857   3.306 -0.9696 -0.0545  0.0243
  174RES   H25349039   0.166   2.998   3.336  0.1798  0.6779 -0.6344
  174RES   O25449040   0.126   3.060   3.698 -0.4696 -0.8868 -0.7461
  174RES   C25549041   0.145   3.040   3.835 -0.5422 -0.6485  0.3372
  174RES   C25649042   0.286   2.980   3.854  1.0342 -0.2743  0.4576
  174RES   C25749043   0.360   3.023   3.985  0.5485  0.4007  0.0920
  174RES   O25849044   0.454   3.124   3.945  0.1970  0.9299 -0.0710
  174RES   C25949045   0.400   3.252   3.931  0.2395 -0.4683  0.8760
  174RES   H26049046   0.130   3.129   3.896  0.9536 -1.0124  1.2608
  174RES   H26149047   0.063   2.976   3.865 -0.4915  0.0194  1.9550
  174RES   H26249048   0.345   2.999   3.764  1.8459 -2.8162  0.4138
  174RES   H26349049   0.290   3.062   4.060  0.2233 -1.0475  0.5631
  174RES   H26449050   0.414   2.941   4.033 -1.4359 -1.3068 -0.4895
  174RES   H26549051   0.415   3.287   4.033  3.1653 -0.7396  0.5871
  174RES   H26649052   0.301   3.255   3.886  1.1534 -3.4599 -1.5261
  174RES   H26749053   0.468   3.307   3.866 -0.9053  0.0795  0.1355
  174RES   O26849054   0.277   2.840   3.854 -0.5760 -0.3219  0.4684
  174RES   C26949055   0.261   2.773   3.732  0.3495 -0.3694 -0.9258
  174RES   C27049056   0.237   2.628   3.744  0.0178  0.1172  0.2974
  174RES   C27149057   0.237   2.555   3.608 -0.2965  0.5870 -0.1643
  174RES   O27249058   0.231   2.413   3.621  0.1702  0.0764 -0.1256
  174RES   C27349059   0.215   2.355   3.494 -0.1295  0.0854  0.0851
  174RES   H27449060   0.357   2.762   3.680  0.0660 -0.3615 -1.4607
  174RES   H27549061   0.191   2.815   3.659 -1.3050 -1.7320 -0.1418
  174RES   H27649062   0.302   2.580   3.817  0.0243 -0.1655  0.1073
  174RES   H27749063   0.328   2.582   3.554  0.8218  0.0482  1.4035
  174RES   H27849064   0.155   2.591   3.546  0.0025 -1.0883 -1.5683
  174RES   H27949065   0.126   2.367   3.431 -0.1557 -0.5010  0.0081
  174RES   H28049066   0.219   2.246   3.503 -2.1077 -0.2747 -2.4821
  174RES   H28149067   0.294   2.383   3.425 -1.1093  2.3785 -0.1500
  174RES   H28249068   0.137   2.613   3.783 -1.2083  0.5318 -2.5671
  175RES     O149069   2.335   4.052   0.903  0.0922  0.4910  0.1848
  175RES     C249070   2.369   3.908   0.894 -0.2262 -0.7161 -0.2107
  175RES     C349071   2.281   3.844   0.998  0.4352 -0.1688  0.5404
  175RES     C449072   2.286   3.693   0.990 -0.7346  0.5507 -0.1573
  175RES     O549073   2.398   3.646   1.064 -0.5262 -0.5621 -0.1702
  175RES     C649074   2.369   3.531   1.147 -0.0077  0.3933 -1.5654
  175RES     H749075   2.339   3.875   0.795  0.7893  0.0711 -0.7924
  175RES     H849076   2.475   3.888   0.911  0.1204  1.3904  0.2974
  175RES     H949077   2.175   3.865   0.987  0.2169 -1.2555  0.4896
  175RES    H1049078   2.304   3.653   0.891  2.1967 -0.4289  0.7313
  175RES    H1149079   2.190   3.660   1.030  0.0130  1.2003  2.2501
  175RES    H1249080   2.440   3.451   1.123  0.3464  0.4817 -0.8198
  175RES    H1349081   2.364   3.557   1.253  1.1253 -2.1999 -0.8400
  175RES    H1449082   2.270   3.488   1.131 -1.3037  1.2710  3.4099
  175RES    H1549083   2.325   4.074   0.994  1.7216  0.5821  0.3642
  175RES    O1649084   2.315   3.900   1.125  0.5723  0.6001  0.0867
  175RES    C1749085   2.211   3.886   1.223 -0.3026  0.5162 -0.8075
  175RES    C1849086   2.262   3.939   1.354 -0.0304  1.1161 -0.5510
  175RES    C1949087   2.158   3.937   1.466 -0.2373  0.2316  0.5780
  175RES    O2049088   2.221   3.974   1.590  0.4900 -0.1100 -0.0682
  175RES    C2149089   2.138   4.023   1.692  0.2380 -0.7133  0.8445
  175RES    H2249090   2.182   3.783   1.243  0.0027  0.7936  1.1818
  175RES    H2349091   2.125   3.946   1.193  0.7439  0.9472 -3.0579
  175RES    H2449092   2.292   4.043   1.338 -2.1353  1.9122  0.4560
  175RES    H2549093   2.090   4.021   1.449 -0.7928 -0.1691  0.7867
  175RES    H2649094   2.113   3.839   1.481 -1.5109  0.6935 -0.1644
  175RES    H2749095   2.056   3.956   1.719 -0.7320 -0.6780 -1.8696
  175RES    H2849096   2.102   4.122   1.663  0.4157 -1.0076 -0.3941
  175RES    H2949097   2.197   4.052   1.779  2.2117 -1.0659 -0.3520
  175RES    O3049098   2.372   3.855   1.389 -0.3446 -0.0163 -0.0206
  175RES    C3149099   2.505   3.895   1.355 -0.6136  0.5542  0.6340
  175RES    C3249100   2.601   3.783   1.377  0.0521  0.5941  0.6156
  175RES    C3349101   2.628   3.758   1.527 -0.6579  0.0891 -0.6111
  175RES    O3449102   2.709   3.644   1.536  0.1372 -0.2048 -0.0463
  175RES    C3549103   2.774   3.645   1.669 -0.5280 -0.4566 -0.1121
  175RES    H3649104   2.522   3.918   1.250 -1.4361 -1.6976 -0.0154
  175RES    H3749105   2.530   3.987   1.406  1.9965  1.1059 -1.5413
  175RES    H3849106   2.555   3.692   1.337  2.1756 -0.6311  0.8616
  175RES    H3949107   2.537   3.734   1.583  0.7966 -1.3790  1.1994
  175RES    H4049108   2.667   3.851   1.567 -0.5195  0.3299 -1.2893
  175RES    H4149109   2.835   3.561   1.703  1.9732  0.9419 -0.9837
  175RES    H4249110   2.699   3.651   1.748 -0.2058  0.2318  0.1431
  175RES    H4349111   2.852   3.720   1.660 -2.0412  1.0112 -1.3152
  175RES    O4449112   2.719   3.812   1.306 -0.2983  0.6361 -0.3424
  175RES    C4549113   2.723   3.759   1.174  0.4894  0.3271  0.1601
  175RES    C4649114   2.823   3.837   1.093  0.7091  0.7256 -1.0226
  175RES    C4749115   2.890   3.739   0.986 -0.0326  0.4144  0.4911
  175RES    O4849116   2.997   3.802   0.935  0.2997 -0.3100  0.1595
  175RES    C4949117   3.059   3.718   0.838  0.5777  0.2458  0.0833
  175RES    H5049118   2.623   3.765   1.130  1.0731  1.0946 -1.0826
  175RES    H5149119   2.741   3.652   1.178 -1.0620  0.0894  1.3006
  175RES    H5249120   2.907   3.885   1.144 -0.3291  1.0001  0.4395
  175RES    H5349121   2.920   3.646   1.034  0.8970  1.1122  1.2593
  175RES    H5449122   2.824   3.713   0.903 -0.6979 -1.7096  1.6331
  175RES    H5549123   3.012   3.699   0.742 -0.9853  1.6614  0.5432
  175RES    H5649124   3.096   3.623   0.877  2.7248  0.6635 -0.8660
  175RES    H5749125   3.149   3.772   0.807  1.2760 -0.6825  0.4796
  175RES    O5849126   2.748   3.944   1.035 -0.1583 -0.0209 -0.4122
  175RES    C5949127   2.837   4.048   0.983  0.0442  0.1107  0.9088
  175RES    C6049128   2.754   4.157   0.917 -0.5398 -0.0880 -0.0047
  175RES    C6149129   2.829   4.255   0.832  0.7100 -0.4568 -0.6801
  175RES    O6249130   2.854   4.194   0.707  0.1819  0.0164  0.4276
  175RES    C6349131   2.989   4.165   0.688  0.0197  0.2089  0.5519
  175RES    H6449132   2.897   4.011   0.900  0.1579 -1.1762  1.5487
  175RES    H6549133   2.892   4.093   1.066 -0.8211  2.4630  0.2321
  175RES    H6649134   2.674   4.131   0.848  2.5730  0.1162 -3.8527
  175RES    H6749135   2.782   4.351   0.811  1.4973  0.1962  0.5515
  175RES    H6849136   2.922   4.287   0.878 -0.1260  2.3974 -0.8844
  175RES    H6949137   3.034   4.077   0.733  1.4331 -0.3542 -1.8456
  175RES    H7049138   3.055   4.249   0.712  1.0371 -0.4058 -0.0581
  175RES    H7149139   2.995   4.151   0.580  1.3347 -1.1545  0.7849
  175RES    O7249140   2.698   4.250   1.008 -0.2951 -0.3978 -0.2755
  175RES    C7349141   2.622   4.195   1.111 -0.4406 -0.3192 -0.1394
  175RES    C7449142   2.583   4.322   1.196 -0.5672  0.3697 -0.1370
  175RES    C7549143   2.511   4.276   1.319 -0.1366 -0.9161 -0.0384
  175RES    O7649144   2.603   4.251   1.422 -0.5507  0.4064  0.3494
  175RES    C7749145   2.542   4.235   1.555 -0.1772  0.0040  0.4268
  175RES    H7849146   2.536   4.135   1.081  0.6305 -2.2000  0.4292
  175RES    H7949147   2.684   4.137   1.181 -0.1528  1.6070  1.2515
  175RES    H8049148   2.665   4.389   1.223 -2.2915  1.7188  1.9211
  175RES    H8149149   2.443   4.193   1.299 -0.2236 -0.9828  0.5261
  175RES    H8249150   2.472   4.373   1.350  2.3649  0.3087 -0.6573
  175RES    H8349151   2.475   4.149   1.553 -1.1387  0.7346 -4.5780
  175RES    H8449152   2.492   4.324   1.594 -0.4235  0.1774 -0.2797
  175RES    H8549153   2.621   4.212   1.627 -0.1198 -3.1974 -0.6142
  175RES    O8649154   2.481   4.395   1.115  0.2381  0.8056  0.1654
  175RES    C8749155   2.519   4.510   1.043  0.3905  0.0740 -0.1746
  175RES    C8849156   2.428   4.526   0.922 -0.1440  0.0493  0.2676
  175RES    C8949157   2.448   4.396   0.837 -0.0404  0.0905  0.0810
  175RES    O9049158   2.377   4.402   0.715 -0.6798 -0.8358 -0.3419
  175RES    C9149159   2.405   4.284   0.644  0.1082 -0.3085 -0.1220
  175RES    H9249160   2.509   4.591   1.115 -1.8606  1.1027 -1.5974
  175RES    H9349161   2.625   4.497   1.020  0.2771  0.5422 -0.9506
  175RES    H9449162   2.465   4.607   0.859  1.6400 -1.8594 -1.2138
  175RES    H9549163   2.555   4.376   0.826  0.0767  2.1525 -3.4659
  175RES    H9649164   2.409   4.318   0.903  1.1800  0.5059  1.3128
  175RES    H9749165   2.365   4.192   0.686  0.3524  0.0357  0.8810
  175RES    H9849166   2.359   4.297   0.546  0.7780 -1.2519 -0.5707
  175RES    H9949167   2.510   4.273   0.615  0.1741 -1.5256  0.5544
  175RES   O10049168   2.298   4.545   0.970  0.4136 -0.2763 -0.2542
  175RES   C10149169   2.208   4.593   0.873  0.0047 -0.4619  0.5148
  175RES   C10249170   2.077   4.615   0.953 -0.4683  0.0342 -0.3268
  175RES   C10349171   1.967   4.660   0.847  1.0363  0.1210  0.1738
  175RES   O10449172   1.832   4.627   0.888 -0.1426 -0.0170 -0.3881
  175RES   C10549173   1.779   4.504   0.843  0.2914  0.0386 -0.2929
  175RES   H10649174   2.181   4.508   0.811  0.3328 -0.3751  0.2495
  175RES   H10749175   2.249   4.674   0.812 -0.8224 -0.5328 -0.1486
  175RES   H10849176   2.040   4.525   1.001  0.5192  0.0325  0.4474
  175RES   H10949177   1.987   4.593   0.764 -1.9089  0.7230 -1.1167
  175RES   H11049178   1.975   4.765   0.818 -1.8776  0.8319  1.7068
  175RES   H11149179   1.672   4.497   0.858  0.5438 -0.3317  1.3685
  175RES   H11249180   1.820   4.427   0.909  1.6227  0.0612 -1.0733
  175RES   H11349181   1.790   4.498   0.734 -1.4326  0.3970 -0.4996
  175RES   O11449182   2.102   4.719   1.050 -0.4666  0.1428 -0.0920
  175RES   C11549183   1.993   4.721   1.147  0.6895 -0.1899  0.7150
  175RES   C11649184   2.033   4.799   1.277  0.6308  0.3708 -0.7252
  175RES   C11749185   2.022   4.949   1.238  0.0835  0.2134 -1.1909
  175RES   O11849186   2.088   5.028   1.339  0.4096  0.0222 -0.1180
  175RES   C11949187   2.070   5.166   1.320  0.0387  0.3628 -0.5265
  175RES   H12049188   1.903   4.766   1.106  0.0861 -1.7652  0.3134
  175RES   H12149189   1.974   4.620   1.181 -0.4553  0.0478  0.7781
  175RES   H12249190   2.133   4.775   1.315  0.6594 -0.4930 -1.3331
  175RES   H12349191   2.074   4.968   1.144  0.0303 -0.0650 -1.2778
  175RES   H12449192   1.916   4.963   1.222  0.1730  0.6233 -1.4319
  175RES   H12549193   1.967   5.187   1.350 -0.0750 -0.1930 -0.5122
  175RES   H12649194   2.079   5.204   1.218  0.5772 -0.7583 -0.9056
  175RES   H12749195   2.145   5.217   1.379 -0.8308  0.2149  0.7198
  175RES   O12849196   1.927   4.759   1.368 -0.6386  0.2842  0.3395
  175RES   C12949197   1.942   4.800   1.506 -0.2362 -0.6703  0.3644
  175RES   C13049198   1.836   4.742   1.587  0.0049 -0.2187 -0.0372
  175RES   C13149199   1.836   4.786   1.733 -0.8402  0.0022 -0.5167
  175RES   O13249200   1.724   4.727   1.806 -0.6738  0.0592  0.3031
  175RES   C13349201   1.711   4.770   1.935  0.4547 -0.0095  0.3573
  175RES   H13449202   2.044   4.772   1.533  0.3258 -0.0426 -1.0359
  175RES   H13549203   1.924   4.907   1.509  0.9867 -0.4658  0.7183
  175RES   H13649204   1.741   4.788   1.557 -0.2906 -0.9415 -0.2342
  175RES   H13749205   1.813   4.892   1.729  0.0627  0.1552 -1.8618
  175RES   H13849206   1.936   4.763   1.772 -0.9924  2.9158  1.7098
  175RES   H13949207   1.725   4.878   1.942  0.7134 -0.1493  2.0327
  175RES   H14049208   1.621   4.730   1.980 -1.2400  0.7134 -2.2782
  175RES   H14149209   1.801   4.730   1.982  0.3994  0.0485  0.5106
  175RES   O14249210   1.852   4.599   1.585  0.2425  0.2329  0.3625
  175RES   C14349211   1.804   4.536   1.466  0.1825 -0.6907 -0.4064
  175RES   C14449212   1.747   4.403   1.486 -0.5530 -0.1084 -0.7581
  175RES   C14549213   1.745   4.339   1.346 -0.4625  0.7127 -0.6483
  175RES   O14649214   1.668   4.422   1.258 -0.6199  0.1228 -0.7148
  175RES   C14749215   1.618   4.338   1.156  0.2166  0.2398  0.1078
  175RES   H14849216   1.742   4.608   1.414  0.6035  0.2147  0.3183
  175RES   H14949217   1.901   4.525   1.417  0.1008 -1.4773 -0.3980
  175RES   H15049218   1.822   4.343   1.538  0.8206  1.4498 -0.8862
  175RES   H15149219   1.707   4.237   1.354 -2.1294  1.5139  3.3019
  175RES   H15249220   1.845   4.327   1.304  0.3102  2.0503  0.7482
  175RES   H15349221   1.539   4.272   1.191 -1.2708  0.6858 -2.3075
  175RES   H15449222   1.697   4.278   1.112 -0.3200 -1.5743  1.5425
  175RES   H15549223   1.567   4.393   1.077 -1.2239  1.5412  1.9005
  175RES   O15649224   1.625   4.399   1.553 -0.5092 -0.3264  0.1766
  175RES   C15749225   1.528   4.495   1.521  0.6235  0.1695  0.7276
  175RES   C15849226   1.384   4.482   1.583 -0.2471 -0.3677  0.0808
  175RES   C15949227   1.290   4.559   1.490 -0.0573 -0.4100 -0.1373
  175RES   O16049228   1.149   4.533   1.520  0.0551 -0.8422  0.5269
  175RES   C16149229   1.054   4.631   1.472  0.3046 -0.3640  0.3097
  175RES   H16249230   1.563   4.598   1.535 -1.3912  1.0597 -0.5975
  175RES   H16349231   1.523   4.490   1.412  0.5760 -0.9823  0.7852
  175RES   H16449232   1.347   4.380   1.584 -0.1429 -0.4177 -0.7107
  175RES   H16549233   1.308   4.665   1.507  0.2632 -0.3773 -0.6705
  175RES   H16649234   1.304   4.546   1.382  0.1662 -0.0319 -0.1538
  175RES   H16749235   1.037   4.633   1.364  0.7971  0.2650  0.2413
  175RES   H16849236   1.084   4.734   1.491  0.2570  0.0168 -1.5688
  175RES   H16949237   0.957   4.632   1.521  1.2890  1.3631  2.3145
  175RES   O17049238   1.381   4.550   1.709  0.7828 -0.2523 -0.3713
  175RES   C17149239   1.453   4.488   1.818  0.3513 -0.5809 -0.3273
  175RES   C17249240   1.383   4.550   1.941 -0.4987 -0.3830 -0.4226
  175RES   C17349241   1.454   4.532   2.074 -0.2284 -0.6591 -0.2648
  175RES   O17449242   1.470   4.645   2.164  0.6828 -0.6510 -0.4808
  175RES   C17549243   1.353   4.719   2.193 -0.8768  0.1837 -0.1333
  175RES   H17649244   1.553   4.525   1.798  1.0607 -0.8733  2.4653
  175RES   H17749245   1.468   4.380   1.812 -1.1299 -0.7354 -1.7412
  175RES   H17849246   1.390   4.657   1.921  1.3226 -0.7212 -1.7074
  175RES   H17949247   1.401   4.455   2.130  0.4761 -0.1101  1.1838
  175RES   H18049248   1.550   4.483   2.062 -0.8620 -2.2442  0.9194
  175RES   H18149249   1.355   4.758   2.294  1.5777  1.0147 -0.4631
  175RES   H18249250   1.263   4.658   2.191 -1.0829  0.5121 -1.1831
  175RES   H18349251   1.332   4.794   2.117  1.5490  1.1930  0.1464
  175RES   O18449252   1.250   4.503   1.953  0.6541 -0.5945 -0.4227
  175RES   C18549253   1.148   4.601   1.929  0.0865  0.8468 -0.1970
  175RES   C18649254   1.011   4.530   1.921  0.5904  0.6708  0.8156
  175RES   C18749255   0.917   4.631   1.856 -0.3254  0.2436  0.1050
  175RES   O18849256   0.802   4.553   1.811  0.0496  0.4132 -0.3195
  175RES   C18949257   0.713   4.633   1.732 -0.5158 -0.4678 -0.0062
  175RES   H19049258   1.174   4.654   1.837 -0.1220 -0.3635 -0.9595
  175RES   H19149259   1.137   4.679   2.004 -3.1736  1.1030 -0.8839
  175RES   H19249260   1.006   4.445   1.852 -0.1069  2.3126 -1.1969
  175RES   H19349261   0.961   4.692   1.777  1.0067 -0.3035  0.4218
  175RES   H19449262   0.883   4.698   1.935  1.2217  0.7635  0.3379
  175RES   H19549263   0.693   4.726   1.786  0.7791 -1.0844  1.5845
  175RES   H19649264   0.741   4.664   1.631 -0.9063 -1.1920 -0.3435
  175RES   H19749265   0.626   4.573   1.706  0.3458 -2.2001  1.0255
  175RES   O19849266   0.962   4.504   2.059  0.1070  0.3667  0.6106
  175RES   C19949267   1.029   4.395   2.117 -0.7404 -0.3630 -0.6761
  175RES   C20049268   0.964   4.356   2.249  0.0200 -0.1045 -0.4270
  175RES   C20149269   0.815   4.388   2.255  0.3605  0.4521  0.0629
  175RES   O20249270   0.743   4.309   2.354 -0.1695  0.1164 -0.4530
  175RES   C20349271   0.612   4.349   2.377  0.4338 -0.0061  0.5095
  175RES   H20449272   1.137   4.407   2.124 -0.4087 -3.0874 -0.7149
  175RES   H20549273   1.029   4.307   2.053 -0.0177 -0.8381 -0.0346
  175RES   H20649274   0.974   4.247   2.249 -0.3738 -0.1581  1.6013
  175RES   H20749275   0.802   4.496   2.263  0.0678  0.5797 -1.9532
  175RES   H20849276   0.771   4.370   2.157 -3.2231  2.3151  1.2373
  175RES   H20949277   0.567   4.402   2.293  0.5285  1.3741  1.3057
  175RES   H21049278   0.588   4.393   2.474 -0.2860  0.3524  0.1759
  175RES   H21149279   0.566   4.251   2.386  3.1280 -1.1789  2.1376
  175RES   O21249280   1.038   4.423   2.354  0.0824  0.0119  0.0193
  175RES   C21349281   1.109   4.328   2.432 -0.3137 -0.2256 -0.4026
  175RES   C21449282   1.196   4.378   2.554  0.0397  0.4895  0.5714
  175RES   C21549283   1.333   4.432   2.515 -0.2452  0.1002 -0.7788
  175RES   O21649284   1.395   4.534   2.605  0.4375  0.2897 -0.5146
  175RES   C21749285   1.419   4.492   2.739 -0.3948  0.1745  0.0291
  175RES   H21849286   1.184   4.275   2.373  0.8317 -0.5057  1.2787
  175RES   H21949287   1.035   4.262   2.476  1.5675 -1.4533  0.9729
  175RES   H22049288   1.149   4.461   2.605 -0.7319 -0.0455  0.7416
  175RES   H22149289   1.408   4.353   2.502 -0.0717  0.0474  0.4804
  175RES   H22249290   1.328   4.476   2.416 -0.0660  1.0866 -0.3546
  175RES   H22349291   1.332   4.460   2.796  0.0867  0.2476  0.8045
  175RES   H22449292   1.473   4.563   2.802  2.2585 -0.9461 -0.9537
  175RES   H22549293   1.479   4.402   2.735 -1.1578 -0.3209 -0.2909
  175RES   O22649294   1.210   4.263   2.648  0.0515  0.0531  0.2817
  175RES   C22749295   1.103   4.265   2.746 -0.6489  0.3261 -0.0164
  175RES   C22849296   1.135   4.178   2.869  0.0564  0.4258 -0.0611
  175RES   C22949297   1.044   4.217   2.981  1.0264 -0.5055  0.0024
  175RES   O23049298   1.099   4.178   3.110  0.1253  0.3708  0.6593
  175RES   C23149299   1.010   4.214   3.217 -1.0121 -0.0905 -0.2213
  175RES   H23249300   1.017   4.229   2.691  1.3091 -1.6794 -1.8930
  175RES   H23349301   1.085   4.367   2.781 -1.9716  0.1041 -0.0474
  175RES   H23449302   1.230   4.182   2.923  1.0455  0.9868 -1.7954
  175RES   H23549303   0.947   4.173   2.961 -0.6179  2.7430  0.5600
  175RES   H23649304   1.018   4.322   2.990 -1.4912 -1.1098 -0.0577
  175RES   H23749305   0.988   4.320   3.209 -2.2748 -0.1696  1.7838
  175RES   H23849306   1.059   4.182   3.309  2.3661 -0.4998 -2.0723
  175RES   H23949307   0.918   4.159   3.199 -0.1435 -1.6949  0.1542
  175RES   O24049308   1.105   4.043   2.820 -0.0426  0.4116 -0.3490
  175RES   C24149309   1.150   3.944   2.910 -0.1400  0.2024 -0.2838
  175RES   C24249310   1.149   3.802   2.843 -0.2290  0.9342 -0.1677
  175RES   C24349311   1.246   3.700   2.905  0.8351  0.2596 -0.0852
  175RES   O24449312   1.268   3.594   2.814  0.2157 -0.2763 -0.0174
  175RES   C24549313   1.357   3.492   2.855  0.6437  0.6832 -0.2555
  175RES   H24649314   1.095   3.953   3.004 -1.9570 -1.6822 -1.1267
  175RES   H24749315   1.254   3.963   2.938  0.6205 -1.9281 -1.5072
  175RES   H24849316   1.174   3.808   2.737  2.1363  0.3645  0.3298
  175RES   H24949317   1.340   3.756   2.912 -0.0346  1.6294  0.9039
  175RES   H25049318   1.211   3.662   3.001 -0.9985  0.8601 -0.4944
  175RES   H25149319   1.372   3.423   2.772  0.4002 -1.0724  1.1429
  175RES   H25249320   1.329   3.430   2.940  0.1516  4.4566  2.4434
  175RES   H25349321   1.452   3.528   2.893 -1.1343  1.9237  3.2272
  175RES   O25449322   1.027   3.739   2.867  0.0989 -0.0929  0.0140
  175RES   C25549323   0.913   3.805   2.812  0.5564  0.4933  0.5840
  175RES   C25649324   0.795   3.717   2.858 -0.8401 -0.2561 -0.0337
  175RES   C25749325   0.785   3.579   2.788  0.0727 -0.2099 -0.1175
  175RES   O25849326   0.661   3.516   2.814  1.0681 -0.2011  0.0471
  175RES   C25949327   0.642   3.391   2.748 -0.7428 -0.6348  0.4167
  175RES   H26049328   0.896   3.905   2.850  0.8124  0.7391  0.0531
  175RES   H26149329   0.912   3.801   2.703  0.2277 -0.1017  0.6040
  175RES   H26249330   0.700   3.761   2.829  0.4833  1.9428 -1.2096
  175RES   H26349331   0.791   3.577   2.680  1.7739  0.1037 -0.0477
  175RES   H26449332   0.866   3.513   2.820 -0.3160 -1.0478 -0.8654
  175RES   H26549333   0.537   3.360   2.748 -0.7008 -0.7787  0.5017
  175RES   H26649334   0.691   3.308   2.799  2.9646  0.0812 -1.8488
  175RES   H26749335   0.666   3.390   2.642 -0.0120 -1.0338  0.5872
  175RES   O26849336   0.804   3.696   3.000  0.2163  0.3479 -0.0235
  175RES   C26949337   0.806   3.819   3.073  0.1895 -0.5662 -0.4909
  175RES   C27049338   0.787   3.793   3.217  0.3672  0.2586 -0.6071
  175RES   C27149339   0.814   3.907   3.318  0.2520 -0.0167  0.9445
  175RES   O27249340   0.829   3.849   3.443  0.1388 -0.1379  0.3632
  175RES   C27349341   0.874   3.937   3.543  0.5515  0.2028 -0.7091
  175RES   H27449342   0.725   3.889   3.051 -2.0400 -3.0624 -0.4503
  175RES   H27549343   0.905   3.865   3.069  0.0038  0.1180  1.8639
  175RES   H27649344   0.683   3.761   3.228 -0.4898  3.5644  1.9497
  175RES   H27749345   0.737   3.984   3.326  0.6570  0.6439 -1.1881
  175RES   H27849346   0.908   3.954   3.288 -1.3454  0.5047 -3.6112
  175RES   H27949347   0.832   4.036   3.525  1.6293  0.7320 -0.3582
  175RES   H28049348   0.983   3.944   3.542  0.5327  0.8219  0.4576
  175RES   H28149349   0.830   3.900   3.636  1.2474 -2.4787 -1.4029
  175RES   H28249350   0.848   3.704   3.235  2.0753  1.1817 -1.7069
  176RES     O149351   4.136   5.636   6.654 -0.1229 -0.1703  0.1229
  176RES     C249352   4.080   5.754   6.714 -0.2261 -0.0233  0.5745
  176RES     C349353   4.069   5.856   6.600  0.0440 -0.5245  0.2011
  176RES     C449354   3.995   5.982   6.644  0.3480  0.3551 -0.3085
  176RES     O549355   3.913   6.026   6.533  0.0745 -0.7795 -0.6552
  176RES     C649356   3.838   6.145   6.557 -0.3284 -0.1070  0.6828
  176RES     H749357   3.988   5.741   6.770 -0.0693 -1.1392  0.5941
  176RES     H849358   4.151   5.803   6.781  1.1329 -2.7298  1.1694
  176RES     H949359   4.013   5.795   6.529 -1.7300 -0.1531  1.2521
  176RES    H1049360   4.065   6.063   6.664  3.9062 -2.0666 -2.2512
  176RES    H1149361   3.939   5.958   6.734  0.7007 -1.3170 -0.5179
  176RES    H1249362   3.765   6.153   6.475 -1.0970 -1.2688  1.2400
  176RES    H1349363   3.784   6.138   6.651  0.8220 -1.2753  1.2494
  176RES    H1449364   3.900   6.235   6.559 -0.2055 -0.1494 -0.4568
  176RES    H1549365   4.157   5.566   6.713 -1.4076 -2.7328 -2.3258
  176RES    O1649366   4.204   5.890   6.564  0.4047  0.4286  0.3348
  176RES    C1749367   4.240   5.961   6.445  0.1607 -0.1696 -0.3910
  176RES    C1849368   4.185   5.906   6.315 -0.7237 -0.2487 -0.3367
  176RES    C1949369   4.161   5.999   6.196  0.1219  0.1265 -0.2412
  176RES    O2049370   4.263   6.094   6.189  0.3948 -0.3978  0.0799
  176RES    C2149371   4.383   6.044   6.137 -0.8849 -0.2872 -0.0455
  176RES    H2249372   4.349   5.961   6.435  0.1072  0.6464 -0.9998
  176RES    H2349373   4.209   6.064   6.455  0.7901 -0.1053  0.9425
  176RES    H2449374   4.092   5.849   6.321 -2.1669  1.6283 -3.6352
  176RES    H2549375   4.146   5.939   6.106  0.0270  0.6842 -0.5994
  176RES    H2649376   4.071   6.051   6.228 -0.3710 -0.4037 -0.7592
  176RES    H2749377   4.429   6.133   6.093  0.0598 -1.2744 -1.0794
  176RES    H2849378   4.379   5.967   6.060  0.6642  1.4180 -1.8684
  176RES    H2949379   4.440   6.016   6.226  1.0321  0.7394 -0.9255
  176RES    O3049380   4.278   5.808   6.256 -0.1969  0.1682 -0.1483
  176RES    C3149381   4.281   5.684   6.325  0.2559  0.6558 -0.4377
  176RES    C3249382   4.391   5.582   6.284 -0.2180 -0.0774 -0.1427
  176RES    C3349383   4.388   5.446   6.355 -0.6787 -0.5389 -0.3471
  176RES    O3449384   4.446   5.346   6.271  0.1364 -0.7034 -0.3632
  176RES    C3549385   4.472   5.230   6.343 -0.0164  0.1586  0.0501
  176RES    H3649386   4.297   5.696   6.432  3.1139  1.1875 -0.8673
  176RES    H3749387   4.184   5.635   6.318  1.2282 -1.5005  0.7234
  176RES    H3849388   4.373   5.557   6.179 -0.3279 -3.0858  0.5498
  176RES    H3949389   4.290   5.406   6.379 -0.8707 -0.3983 -0.9053
  176RES    H4049390   4.447   5.446   6.447  2.2044  0.9710 -2.1224
  176RES    H4149391   4.392   5.186   6.403  0.6135  0.4652  1.1184
  176RES    H4249392   4.564   5.243   6.400 -0.2711  1.7392  0.1071
  176RES    H4349393   4.504   5.150   6.275 -2.9693 -1.3728  0.3370
  176RES    O4449394   4.523   5.638   6.314 -0.0726 -0.1390  0.4780
  176RES    C4549395   4.569   5.720   6.217 -0.2063  0.3281  0.0537
  176RES    C4649396   4.653   5.650   6.113 -0.3204 -0.2156 -0.6360
  176RES    C4749397   4.682   5.729   5.983 -0.3834  0.1970 -0.7685
  176RES    O4849398   4.566   5.700   5.908 -0.4801 -0.4676  0.5164
  176RES    C4949399   4.549   5.792   5.799  0.0659 -0.1929 -0.0292
  176RES    H5049400   4.642   5.781   6.269  0.0407 -0.6365  0.8460
  176RES    H5149401   4.494   5.788   6.175  0.7196  0.0933 -2.0693
  176RES    H5249402   4.621   5.550   6.083 -0.9831  0.6467 -2.9099
  176RES    H5349403   4.693   5.832   6.015  0.5929  0.3206 -1.4764
  176RES    H5449404   4.773   5.700   5.930 -0.3153  1.6558 -1.4496
  176RES    H5549405   4.472   5.764   5.728 -1.2825  2.5837  0.2806
  176RES    H5649406   4.642   5.809   5.744  0.7537  1.4612  1.5924
  176RES    H5749407   4.520   5.890   5.837 -2.3480 -0.6840 -0.5214
  176RES    O5849408   4.788   5.630   6.158  0.4719  0.3604  0.2208
  176RES    C5949409   4.812   5.525   6.256  0.2263 -0.0099 -0.1457
  176RES    C6049410   4.959   5.485   6.256 -0.5210  0.1153 -0.3084
  176RES    C6149411   5.046   5.596   6.303  0.6244 -0.3275 -0.2621
  176RES    O6249412   5.174   5.548   6.338 -0.0601  0.3897  0.3291
  176RES    C6349413   5.242   5.659   6.393 -0.5821  0.0444  0.1465
  176RES    H6449414   4.745   5.445   6.223  0.6281 -0.6951  0.6631
  176RES    H6549415   4.766   5.551   6.352  0.9907  1.1772 -0.0930
  176RES    H6649416   4.956   5.403   6.328  0.3667  0.7399  0.4615
  176RES    H6749417   5.060   5.673   6.227 -2.4523 -0.4144 -0.9967
  176RES    H6849418   5.000   5.643   6.391 -1.6793  1.1166 -2.1780
  176RES    H6949419   5.240   5.751   6.335 -1.2034 -0.8960 -1.3602
  176RES    H7049420   5.341   5.620   6.417 -1.2914 -1.0261  1.3700
  176RES    H7149421   5.210   5.686   6.494 -0.0228  0.4537  0.2175
  176RES    O7249422   4.992   5.447   6.121 -0.2106 -0.1153  0.1218
  176RES    C7349423   5.128   5.395   6.099  0.3450 -0.2020 -1.1964
  176RES    C7449424   5.152   5.319   5.960 -0.0460 -0.8094  0.2914
  176RES    C7549425   5.259   5.207   5.966  0.3926  0.0154  0.2173
  176RES    O7649426   5.392   5.243   5.998 -0.0065 -0.3919 -0.0658
  176RES    C7749427   5.465   5.137   6.061  0.5372  0.8012 -0.2073
  176RES    H7849428   5.193   5.483   6.093 -0.1514  0.1617 -1.2839
  176RES    H7949429   5.146   5.323   6.178 -0.8395 -0.9728 -1.6255
  176RES    H8049430   5.065   5.261   5.930  1.0348 -2.1791 -0.1962
  176RES    H8149431   5.262   5.154   5.871 -0.2413 -1.2467  0.8817
  176RES    H8249432   5.223   5.130   6.034 -0.8773  0.6636  0.2863
  176RES    H8349433   5.465   5.051   5.995  4.0634  0.0607  0.6716
  176RES    H8449434   5.430   5.106   6.159 -0.2324 -1.7715 -1.2513
  176RES    H8549435   5.571   5.159   6.066  0.6591 -0.1808  1.6911
  176RES    O8649436   5.190   5.403   5.855 -0.1646 -0.3617  0.0257
  176RES    C8749437   5.076   5.455   5.779  0.0562  0.3158  0.1564
  176RES    C8849438   5.129   5.520   5.651  0.2311 -0.0160  0.1107
  176RES    C8949439   5.005   5.561   5.569 -0.2965 -0.7170 -0.3720
  176RES    O9049440   5.036   5.579   5.433 -0.4558  0.1345 -0.3284
  176RES    C9149441   4.939   5.655   5.364 -0.1880 -0.4035 -0.3456
  176RES    H9249442   5.003   5.378   5.754 -0.8127  1.1479  0.0914
  176RES    H9349443   5.029   5.528   5.846  1.3306  2.8788 -1.6418
  176RES    H9449444   5.191   5.446   5.601 -0.9586 -0.0769 -1.2882
  176RES    H9549445   4.931   5.480   5.568  0.4890 -1.4437 -0.4714
  176RES    H9649446   4.962   5.647   5.619 -0.3390 -0.2971 -1.1248
  176RES    H9749447   5.011   5.727   5.325 -0.5204  1.3742  2.1937
  176RES    H9849448   4.892   5.611   5.276  0.3837 -2.4269  0.3303
  176RES    H9949449   4.877   5.706   5.438  2.6389  2.1202  0.3949
  176RES   O10049450   5.208   5.638   5.682  0.1032 -0.0309  0.1624
  176RES   C10149451   5.333   5.633   5.610 -0.4244 -1.0301 -0.3832
  176RES   C10249452   5.420   5.742   5.679 -0.3695 -0.4063  0.1928
  176RES   C10349453   5.497   5.829   5.577  0.0849  0.5314 -0.2499
  176RES   O10449454   5.562   5.937   5.651 -0.1650 -0.3132  0.5223
  176RES   C10549455   5.628   6.036   5.573 -0.2411 -0.3461 -0.7878
  176RES   H10649456   5.325   5.654   5.503  1.8973  0.5111 -0.2922
  176RES   H10749457   5.398   5.545   5.612  0.8772 -0.1339 -2.2114
  176RES   H10849458   5.355   5.816   5.726 -1.7109 -0.3940 -1.6007
  176RES   H10949459   5.424   5.866   5.506 -1.3351 -0.7460  0.5131
  176RES   H11049460   5.569   5.767   5.523 -2.2261 -0.3213 -2.4724
  176RES   H11149461   5.692   5.989   5.499 -0.1231 -1.5007  0.0454
  176RES   H11249462   5.694   6.081   5.648 -1.4724 -0.7491  0.5641
  176RES   H11349463   5.566   6.117   5.533 -0.5953 -0.6106 -0.7778
  176RES   O11449464   5.513   5.693   5.774  0.0845 -0.1332  0.4384
  176RES   C11549465   5.455   5.627   5.880  0.5492 -0.5420 -0.4494
  176RES   C11649466   5.558   5.601   5.987  0.0588 -0.1847 -0.1054
  176RES   C11749467   5.490   5.583   6.128 -0.0077  0.6268  0.0354
  176RES   O11849468   5.585   5.586   6.234  0.2242 -0.1542 -0.8235
  176RES   C11949469   5.626   5.459   6.274 -0.1023  0.8298 -0.2226
  176RES   H12049470   5.375   5.686   5.924  0.6744 -1.7604  1.4893
  176RES   H12149471   5.406   5.533   5.855 -0.4106 -0.2047  0.1809
  176RES   H12249472   5.640   5.674   5.987  0.6019 -0.7772  0.8815
  176RES   H12349473   5.435   5.673   6.154 -1.2856  0.3563 -1.6519
  176RES   H12449474   5.426   5.498   6.149  1.7561 -0.7000  0.1659
  176RES   H12549475   5.720   5.470   6.329 -0.4524 -3.4210  1.4655
  176RES   H12649476   5.644   5.394   6.188  1.9366  0.1159  0.7113
  176RES   H12749477   5.548   5.421   6.341  2.1896 -1.5829  1.1675
  176RES   O12849478   5.626   5.482   5.968  0.1946  0.3246  0.0391
  176RES   C12949479   5.731   5.493   5.877  0.5909 -0.6021 -0.3184
  176RES   C13049480   5.780   5.354   5.848  0.5909 -0.2276  0.0180
  176RES   C13149481   5.930   5.354   5.810  0.3021  0.6805  0.7200
  176RES   O13249482   6.010   5.359   5.920  0.2339  0.5845 -0.3067
  176RES   C13349483   6.143   5.329   5.892  0.0120 -0.1165 -0.0978
  176RES   H13449484   5.708   5.554   5.789  2.0115  1.9068  0.9964
  176RES   H13549485   5.809   5.554   5.921 -0.3817  1.3695 -1.2870
  176RES   H13649486   5.767   5.288   5.934 -0.7861 -0.5075 -0.3906
  176RES   H13749487   5.952   5.431   5.737  1.9925 -2.1388 -1.8567
  176RES   H13849488   5.960   5.264   5.757 -0.7272  0.6883  0.1023
  176RES   H13949489   6.196   5.321   5.987 -1.4387 -0.8845  0.6532
  176RES   H14049490   6.161   5.233   5.845  1.5833  0.0330  0.1855
  176RES   H14149491   6.189   5.407   5.831 -0.4396  0.2076 -0.0267
  176RES   O14249492   5.713   5.294   5.734  0.4805 -0.4142  0.1820
  176RES   C14349493   5.570   5.319   5.722 -0.4531 -0.3061 -0.1436
  176RES   C14449494   5.524   5.237   5.602 -0.4407  0.5269 -0.7614
  176RES   C14549495   5.534   5.086   5.646  0.7979  0.6931 -0.5218
  176RES   O14649496   5.456   5.004   5.560 -0.2907  0.1004 -0.1342
  176RES   C14749497   5.526   4.932   5.453 -0.3167  0.0026  0.3882
  176RES   H14849498   5.528   5.286   5.817 -2.1037 -0.7616 -1.0020
  176RES   H14949499   5.558   5.421   5.683  0.2158 -0.9239 -2.0061
  176RES   H15049500   5.419   5.265   5.593 -0.5438  0.3248 -0.2156
  176RES   H15149501   5.495   5.051   5.741 -1.3461 -1.5037 -2.1206
  176RES   H15249502   5.639   5.062   5.634  1.1326  1.1630  1.3689
  176RES   H15349503   5.621   4.893   5.488  0.4288 -0.2468 -1.8212
  176RES   H15449504   5.573   5.002   5.384  0.2024  0.3690  1.1117
  176RES   H15549505   5.467   4.864   5.391 -0.2554 -0.3816  0.7550
  176RES   O15649506   5.600   5.278   5.489  0.3092  0.0187  0.1703
  176RES   C15749507   5.549   5.383   5.408 -0.3136 -0.8112 -0.2877
  176RES   C15849508   5.435   5.344   5.315  0.5819  0.2943 -0.9534
  176RES   C15949509   5.403   5.454   5.207 -0.8555 -0.3277  0.2160
  176RES   O16049510   5.334   5.382   5.099  0.3588  0.4448 -0.3700
  176RES   C16149511   5.212   5.430   5.052 -0.1677  0.4957  0.3824
  176RES   H16249512   5.531   5.476   5.463 -1.7869  0.1461 -2.3391
  176RES   H16349513   5.630   5.412   5.341  0.1746 -0.2303  0.5422
  176RES   H16449514   5.475   5.249   5.280 -3.3307 -1.3403 -1.3184
  176RES   H16549515   5.346   5.537   5.249 -1.3170 -1.1364  1.2048
  176RES   H16649516   5.487   5.507   5.162 -0.4954 -0.1048  1.1347
  176RES   H16749517   5.193   5.379   4.958  2.4296  2.8310 -1.4968
  176RES   H16849518   5.208   5.538   5.037 -2.4976  0.8083  2.8816
  176RES   H16949519   5.135   5.394   5.119 -1.0181  0.5674 -0.5425
  176RES   O17049520   5.314   5.328   5.397 -0.3086  0.2316  0.3635
  176RES   C17149521   5.241   5.209   5.355 -0.5891 -0.1753  0.2260
  176RES   C17249522   5.081   5.225   5.384  0.7307  0.0276 -0.5461
  176RES   C17349523   5.046   5.117   5.499  0.1817  0.0052  0.0397
  176RES   O17449524   4.946   5.172   5.583  0.2982  0.1644 -0.2777
  176RES   C17549525   4.906   5.078   5.678 -0.7511  0.2370  0.4685
  176RES   H17649526   5.279   5.109   5.380 -0.3910 -0.1598 -0.0176
  176RES   H17749527   5.249   5.200   5.247  0.0136  3.0401 -0.0192
  176RES   H17849528   5.063   5.327   5.419 -2.1538 -0.9838  1.0977
  176RES   H17949529   5.030   5.017   5.459 -1.6211  0.2494  0.0823
  176RES   H18049530   5.134   5.119   5.563 -0.5272 -0.9648  1.0489
  176RES   H18149531   4.810   5.112   5.718 -1.7347 -1.6033 -0.2576
  176RES   H18249532   4.983   5.086   5.755  0.0792 -0.9121 -0.2208
  176RES   H18349533   4.887   4.978   5.637 -0.2145 -0.3206  1.5590
  176RES   O18449534   5.018   5.194   5.268  0.0465  0.3997  0.1510
  176RES   C18549535   4.892   5.255   5.258  0.5949  1.1725  0.1347
  176RES   C18649536   4.814   5.223   5.125  0.1115  0.2671  0.0742
  176RES   C18749537   4.693   5.312   5.103 -0.2814 -0.2961  0.5817
  176RES   O18849538   4.653   5.330   4.968 -0.2301  0.5180  0.1278
  176RES   C18949539   4.534   5.392   4.946  0.1127 -0.8315  0.1437
  176RES   H19049540   4.909   5.363   5.257  1.0744  1.0967 -1.4533
  176RES   H19149541   4.824   5.230   5.340  1.2846 -0.2576  0.2800
  176RES   H19249542   4.880   5.249   5.042  0.0220 -0.4821 -0.2303
  176RES   H19349543   4.710   5.409   5.150  0.3673  0.0497 -0.3708
  176RES   H19449544   4.604   5.288   5.162 -0.7539  0.8757  0.3551
  176RES   H19549545   4.518   5.408   4.840  0.0828  1.4258  0.4663
  176RES   H19649546   4.447   5.341   4.987 -0.5308  0.5858  0.5508
  176RES   H19749547   4.529   5.492   4.988  0.6110 -0.9946  0.5908
  176RES   O19849548   4.786   5.083   5.116  1.0162  0.2468 -0.1320
  176RES   C19949549   4.702   5.047   5.007  0.1875  0.6022 -0.0480
  176RES   C20049550   4.688   4.897   5.009 -0.1720 -0.7527  0.6297
  176RES   C20149551   4.630   4.846   4.878 -0.0166 -0.3421 -0.2215
  176RES   O20249552   4.657   4.708   4.858  0.3409  0.7873 -0.4488
  176RES   C20349553   4.641   4.666   4.723  0.5398 -0.5990 -0.5450
  176RES   H20449554   4.739   5.088   4.913  1.0915 -1.4225 -0.5816
  176RES   H20549555   4.601   5.089   5.015  0.0467  1.1795 -3.7172
  176RES   H20649556   4.781   4.843   5.027 -1.3107 -2.6280  1.0475
  176RES   H20749557   4.528   4.880   4.857  0.3681  1.2050  0.3670
  176RES   H20849558   4.679   4.902   4.799  1.9904 -2.1038 -0.2677
  176RES   H20949559   4.687   4.722   4.642 -1.9365 -1.7788 -2.8832
  176RES   H21049560   4.532   4.671   4.710  0.2084 -0.4247  2.0787
  176RES   H21149561   4.683   4.566   4.715  1.4229 -0.4246  1.5701
  176RES   O21249562   4.599   4.856   5.113  0.3870 -0.3432 -0.2283
  176RES   C21349563   4.637   4.744   5.196  0.1827 -0.2350  0.4423
  176RES   C21449564   4.713   4.808   5.318  0.3333 -0.2004 -0.0205
  176RES   C21549565   4.777   4.695   5.399 -0.0689  0.0475  0.1351
  176RES   O21649566   4.700   4.576   5.422 -0.4430 -0.3138 -0.6442
  176RES   C21749567   4.756   4.516   5.544 -0.3913 -0.2052  0.7769
  176RES   H21849568   4.709   4.687   5.138  1.2814  2.6662 -1.1640
  176RES   H21949569   4.552   4.689   5.237  1.0228 -0.7234  1.5525
  176RES   H22049570   4.782   4.887   5.289 -2.8840  2.7639  0.1022
  176RES   H22149571   4.867   4.658   5.351  0.6738  0.0012  1.5335
  176RES   H22249572   4.811   4.743   5.491 -0.7042  0.7229  0.0292
  176RES   H22349573   4.858   4.483   5.527 -1.0833 -1.7272 -0.5493
  176RES   H22449574   4.693   4.429   5.563 -0.9864  0.6637  2.8536
  176RES   H22549575   4.755   4.586   5.627  4.8622  1.2332 -0.2055
  176RES   O22649576   4.614   4.852   5.409  0.1351  0.0647  0.0455
  176RES   C22749577   4.593   4.990   5.403  0.3994 -0.2380  0.3254
  176RES   C22849578   4.478   5.034   5.497 -0.4719 -0.1811 -0.2909
  176RES   C22949579   4.495   5.178   5.542 -0.1223  0.2395  0.2200
  176RES   O23049580   4.536   5.251   5.428 -0.3380  0.2136 -0.6557
  176RES   C23149581   4.552   5.392   5.445  0.4074 -0.6358  1.0299
  176RES   H23249582   4.569   5.024   5.303  2.4614  0.1671 -0.0618
  176RES   H23349583   4.684   5.043   5.430  1.4754 -2.1843  0.5893
  176RES   H23449584   4.486   4.981   5.592  0.6671  1.0283  0.3050
  176RES   H23549585   4.578   5.191   5.611  1.2600  0.5943 -1.4845
  176RES   H23649586   4.404   5.215   5.590  0.2247  1.8861 -0.3744
  176RES   H23749587   4.591   5.435   5.353 -1.8929  1.3641  0.9354
  176RES   H23849588   4.614   5.409   5.533 -1.5284 -0.7173  2.4536
  176RES   H23949589   4.461   5.441   5.480 -0.4815 -2.0020  0.6711
  176RES   O24049590   4.350   5.013   5.441 -0.0921 -0.1738  0.0516
  176RES   C24149591   4.313   4.878   5.400 -0.4857 -0.7619  0.1395
  176RES   C24249592   4.168   4.871   5.334 -0.2485 -0.2426 -0.3663
  176RES   C24349593   4.125   4.726   5.299  0.7428  0.8092 -0.1412
  176RES   O24449594   4.050   4.730   5.179 -0.3423 -0.2031  0.4718
  176RES   C24549595   3.973   4.613   5.158 -0.0801  0.5112  0.6255
  176RES   H24649596   4.319   4.802   5.478 -0.1666  0.6196  1.4949
  176RES   H24749597   4.386   4.841   5.329 -0.2214 -2.4219  1.2351
  176RES   H24849598   4.166   4.937   5.247  0.9630 -1.4255 -1.3049
  176RES   H24949599   4.219   4.673   5.281  0.1086 -0.3789 -0.0037
  176RES   H25049600   4.082   4.679   5.388  0.3630  1.3314 -0.0464
  176RES   H25149601   4.032   4.536   5.108 -0.0709  0.1517  1.1859
  176RES   H25249602   3.887   4.625   5.092  0.7784  0.5758 -0.4896
  176RES   H25349603   3.942   4.573   5.255  1.7445  2.4099  2.0239
  176RES   O25449604   4.082   4.916   5.439 -0.9614 -0.2497  0.4527
  176RES   C25549605   3.941   4.941   5.414 -0.0969 -0.6526  0.3397
  176RES   C25649606   3.923   5.096   5.375  0.9528 -0.2578  0.0602
  176RES   C25749607   3.784   5.125   5.300  0.0513 -0.5074 -0.1118
  176RES   O25849608   3.813   5.159   5.160 -0.3974 -0.4070 -0.0732
  176RES   C25949609   3.694   5.215   5.095 -0.2751  0.5664 -0.0767
  176RES   H26049610   3.911   4.874   5.333  0.4230  0.6626 -0.9585
  176RES   H26149611   3.881   4.925   5.504 -0.6827  0.5411  0.1612
  176RES   H26249612   3.994   5.116   5.294  2.1142 -0.1913  1.0885
  176RES   H26349613   3.710   5.045   5.293 -2.5000  1.6485  0.8257
  176RES   H26449614   3.729   5.212   5.338  0.8138 -0.5003  1.0094
  176RES   H26549615   3.726   5.238   4.994  0.1504 -1.6073 -0.4561
  176RES   H26649616   3.653   5.309   5.131  1.7107  1.3721  0.1442
  176RES   H26749617   3.610   5.145   5.092  0.0715 -0.0662  3.2936
  176RES   O26849618   3.932   5.192   5.481 -0.0441 -0.3204  0.2442
  176RES   C26949619   4.060   5.243   5.520  0.1640 -0.0486 -0.4082
  176RES   C27049620   4.039   5.317   5.654  0.1307 -0.2026 -0.2342
  176RES   C27149621   4.158   5.378   5.732  0.0188  0.1018  0.5705
  176RES   O27249622   4.114   5.446   5.846  0.3891  0.0890  0.0561
  176RES   C27349623   4.234   5.493   5.910  0.4297  0.4187 -0.3213
  176RES   H27449624   4.095   5.314   5.445 -0.1963 -0.4818 -0.9846
  176RES   H27549625   4.121   5.153   5.527  0.7018  0.3676  0.4208
  176RES   H27649626   3.969   5.401   5.645 -0.4354 -0.5462  0.8160
  176RES   H27749627   4.220   5.435   5.662 -0.8004 -0.7626 -0.8693
  176RES   H27849628   4.228   5.295   5.744 -0.3628 -0.1020  1.4434
  176RES   H27949629   4.291   5.557   5.843  1.1891  0.6557  0.5433
  176RES   H28049630   4.290   5.410   5.953 -0.9782  0.5455  1.8315
  176RES   H28149631   4.200   5.548   5.997 -1.4492 -0.2490 -0.6037
  176RES   H28249632   3.983   5.249   5.718 -2.6939  2.7572  0.6116
  177RES     O149633   2.706   1.217   3.931  0.5686  0.0628  0.3234
  177RES     C249634   2.815   1.303   3.940 -0.0735  0.1348  0.2547
  177RES     C349635   2.921   1.276   4.041  0.0158 -0.2029  0.0095
  177RES     C449636   3.056   1.308   3.989  0.6197 -0.5551 -0.8964
  177RES     O549637   3.153   1.241   4.075  0.0560  0.3012 -1.1055
  177RES     C649638   3.279   1.293   4.047 -0.4875  0.7330  0.5135
  177RES     H749639   2.859   1.294   3.840 -0.6761 -0.1063  0.0079
  177RES     H849640   2.787   1.408   3.931 -3.2782 -0.6916 -0.0478
  177RES     H949641   2.911   1.170   4.064  2.2177 -0.0918  1.6978
  177RES    H1049642   3.063   1.417   3.989  1.6635 -0.6134  0.3779
  177RES    H1149643   3.071   1.274   3.887 -2.3434  2.3182 -2.4244
  177RES    H1249644   3.346   1.244   4.118 -2.4175 -0.0752  1.7992
  177RES    H1349645   3.317   1.250   3.954  0.9209  0.5057  1.1830
  177RES    H1449646   3.290   1.401   4.055  0.1801  0.9036 -2.1498
  177RES    H1549647   2.692   1.160   4.006  1.3758  0.7672  1.0068
  177RES    O1649648   2.880   1.365   4.153  0.5781 -0.4670 -0.4491
  177RES    C1749649   2.915   1.299   4.270  0.3783  0.1233 -0.6135
  177RES    C1849650   2.869   1.389   4.388  0.0175 -0.3445  0.4754
  177RES    C1949651   2.911   1.536   4.361 -0.3437  0.0683  0.0518
  177RES    O2049652   2.887   1.620   4.480  0.2003  0.1403  0.2549
  177RES    C2149653   2.958   1.743   4.473  0.5223 -0.3613  0.4428
  177RES    H2249654   3.023   1.286   4.272  0.3263 -0.1310  0.7146
  177RES    H2349655   2.871   1.201   4.282  2.5310 -0.6485  1.3899
  177RES    H2449656   2.906   1.344   4.480  0.4232  0.7842  0.8717
  177RES    H2549657   3.014   1.532   4.326 -0.8729 -0.7745 -1.4954
  177RES    H2649658   2.851   1.581   4.282  0.0586  2.0998  0.8769
  177RES    H2749659   3.065   1.731   4.455  0.6114 -0.6428  1.1198
  177RES    H2849660   2.940   1.797   4.566 -0.6070 -0.4940  0.3060
  177RES    H2949661   2.921   1.798   4.387  1.1092  0.2960  0.6042
  177RES    O3049662   2.727   1.365   4.393  0.4994  0.1177  0.0405
  177RES    C3149663   2.660   1.422   4.506  0.4208 -0.2071 -0.2305
  177RES    C3249664   2.511   1.374   4.504 -0.3832  0.1467  0.2899
  177RES    C3349665   2.419   1.487   4.562 -0.7418 -0.4162  0.1210
  177RES    O3449666   2.476   1.536   4.686  0.0683  0.0496 -0.0988
  177RES    C3549667   2.400   1.646   4.737 -0.4689  0.1798 -0.6574
  177RES    H3649668   2.710   1.388   4.596  2.6494  3.4429  0.0029
  177RES    H3749669   2.664   1.530   4.491 -0.9903 -0.2949 -1.4244
  177RES    H3849670   2.493   1.374   4.396 -0.1850 -2.1583  0.2281
  177RES    H3949671   2.321   1.443   4.578 -1.6421  1.4114 -0.3033
  177RES    H4049672   2.415   1.562   4.483 -1.1053 -1.7118 -1.0952
  177RES    H4149673   2.442   1.653   4.837  0.9159 -1.1801 -1.1303
  177RES    H4249674   2.291   1.640   4.746 -0.3437 -1.8079 -0.3745
  177RES    H4349675   2.430   1.737   4.685 -0.4404  1.8319  2.1620
  177RES    O4449676   2.497   1.249   4.566  0.0315 -0.4607 -0.3805
  177RES    C4549677   2.561   1.132   4.500 -0.3920 -0.4282  0.6827
  177RES    C4649678   2.508   1.111   4.349  0.0008  0.3894  0.1293
  177RES    C4749679   2.604   1.019   4.280 -0.6954  0.5062 -0.3464
  177RES    O4849680   2.616   1.054   4.147 -0.3639  0.3443 -0.1327
  177RES    C4949681   2.508   1.016   4.063 -0.1072  0.1273 -0.6523
  177RES    H5049682   2.534   1.044   4.559 -1.2133 -0.3333  0.4523
  177RES    H5149683   2.670   1.132   4.504 -0.3939  0.7707  0.9060
  177RES    H5249684   2.504   1.203   4.291 -1.7192  1.3611  1.7407
  177RES    H5349685   2.704   1.031   4.322 -1.4115  1.8004  1.0318
  177RES    H5449686   2.585   0.914   4.300  0.0851  0.7792  2.0198
  177RES    H5549687   2.437   1.099   4.064  0.5287  0.6791  0.5485
  177RES    H5649688   2.460   0.927   4.102  1.1902 -0.9597 -1.4884
  177RES    H5749689   2.541   1.004   3.960 -2.1484 -0.9614 -1.1904
  177RES    O5849690   2.378   1.056   4.344  0.5058  0.1417 -0.3147
  177RES    C5949691   2.277   1.151   4.314 -0.6200 -0.2696 -0.1094
  177RES    C6049692   2.133   1.097   4.331  0.0800 -0.9103 -0.2017
  177RES    C6149693   2.044   1.176   4.233  0.0737 -0.4053  0.1328
  177RES    O6249694   2.054   1.320   4.221 -0.4596 -0.0872  0.0627
  177RES    C6349695   1.988   1.397   4.323 -0.9673  0.2844  0.4119
  177RES    H6449696   2.291   1.177   4.209 -2.4143 -2.1295 -0.8643
  177RES    H6549697   2.290   1.246   4.366  2.2497  1.2149 -3.3764
  177RES    H6649698   2.124   0.993   4.303  2.0229 -1.0070 -0.4923
  177RES    H6749699   2.062   1.133   4.134 -0.4428  0.0215 -0.1481
  177RES    H6849700   1.940   1.145   4.239 -0.0047 -0.2576 -0.4167
  177RES    H6949701   1.982   1.501   4.291 -1.3157  0.2723  0.4329
  177RES    H7049702   2.059   1.405   4.405 -1.5010  2.0928  0.7028
  177RES    H7149703   1.889   1.356   4.344 -0.8514 -0.4931 -0.4884
  177RES    O7249704   2.103   1.120   4.467  0.1769  0.0902 -0.3693
  177RES    C7349705   1.983   1.056   4.518 -0.3989 -0.2377  0.1374
  177RES    C7449706   1.942   1.080   4.666 -0.5109 -0.0707 -0.2177
  177RES    C7549707   1.818   1.007   4.715 -0.2535 -0.0068  0.6833
  177RES    O7649708   1.770   1.061   4.842 -0.3270  0.0538  0.5490
  177RES    C7749709   1.731   0.966   4.934 -0.7938 -0.4617  0.8304
  177RES    H7849710   1.891   1.069   4.461  0.0950  0.9499 -0.3932
  177RES    H7949711   2.014   0.952   4.504  1.4255  0.0769  1.7196
  177RES    H8049712   2.025   1.052   4.731  1.9036  1.0364 -2.7020
  177RES    H8149713   1.838   0.901   4.729 -0.7252 -0.0593  0.9953
  177RES    H8249714   1.748   1.035   4.636  0.1032 -0.0136  0.3651
  177RES    H8349715   1.825   0.924   4.970 -0.0150 -0.1094 -0.7410
  177RES    H8449716   1.679   0.887   4.880  0.3581 -0.8335  0.2551
  177RES    H8549717   1.675   1.006   5.018 -0.6923  1.1824  0.1342
  177RES    O8649718   1.910   1.224   4.667 -0.0913 -0.1527  0.2273
  177RES    C8749719   2.008   1.318   4.715 -0.7451  0.2163 -0.0377
  177RES    C8849720   1.927   1.441   4.752  0.0704 -0.1848  0.5144
  177RES    C8949721   2.006   1.540   4.848 -0.6232 -0.2987  0.1014
  177RES    O9049722   1.907   1.631   4.896 -0.3897  0.5969  0.0973
  177RES    C9149723   1.971   1.738   4.966  0.2125  0.5616  0.3335
  177RES    H9249724   2.068   1.281   4.798  0.6995 -1.5640 -1.8114
  177RES    H9349725   2.061   1.334   4.621  0.4299  0.7355  0.7018
  177RES    H9449726   1.837   1.405   4.801  1.3985 -1.3663  2.1580
  177RES    H9549727   2.047   1.493   4.938  0.1057 -1.2522 -0.7141
  177RES    H9649728   2.090   1.578   4.790  1.2048 -2.9208  0.9391
  177RES    H9749729   1.890   1.810   4.975  0.2084  0.8622 -1.8526
  177RES    H9849730   2.013   1.703   5.061 -1.2816  2.0622  1.5581
  177RES    H9949731   2.052   1.787   4.911 -0.9133  1.1848 -0.7731
  177RES   O10049732   1.899   1.517   4.632  0.2733 -0.4939 -0.0294
  177RES   C10149733   1.773   1.580   4.613  0.5400 -0.1491  0.5736
  177RES   C10249734   1.775   1.732   4.620 -0.7546  0.0453 -0.2245
  177RES   C10349735   1.641   1.798   4.658  0.0522  1.2950 -0.9140
  177RES   O10449736   1.672   1.927   4.708 -0.2991 -0.0209  0.3066
  177RES   C10549737   1.556   2.003   4.742  0.0658  0.4708  0.3139
  177RES   H10649738   1.709   1.534   4.688  2.5063 -2.3333  0.9288
  177RES   H10749739   1.733   1.559   4.513  0.9361  0.4230  0.2849
  177RES   H10849740   1.848   1.768   4.693 -0.2487 -1.6850  0.1493
  177RES   H10949741   1.591   1.739   4.736  2.5815  1.9745  1.2975
  177RES   H11049742   1.567   1.797   4.579  0.8296  1.1444 -1.6460
  177RES   H11149743   1.498   2.012   4.650 -1.5734 -0.7835  1.2118
  177RES   H11249744   1.601   2.096   4.778 -0.9674  0.7632  0.8618
  177RES   H11349745   1.492   1.960   4.819 -1.1733  0.3188 -0.7927
  177RES   O11449746   1.815   1.778   4.491  0.5666 -0.0550 -0.2234
  177RES   C11549747   1.907   1.886   4.498 -0.3657  0.2708 -0.4626
  177RES   C11649748   2.061   1.835   4.503 -0.2996 -0.4629  0.1463
  177RES   C11749749   2.103   1.795   4.364  0.7163  0.0053  0.7438
  177RES   O11849750   2.238   1.749   4.379  0.3103 -0.0590 -0.4926
  177RES   C11949751   2.292   1.704   4.254 -0.1222  0.7594  0.4018
  177RES   H12049752   1.885   1.926   4.399 -0.0089  1.5443 -0.0371
  177RES   H12149753   1.879   1.959   4.574 -0.9672  2.5592 -2.7867
  177RES   H12249754   2.087   1.755   4.572  0.3382 -0.4310 -0.0599
  177RES   H12349755   2.045   1.717   4.315  1.1037  0.4495 -0.4409
  177RES   H12449756   2.086   1.873   4.290 -0.1701 -2.0757 -1.2993
  177RES   H12549757   2.398   1.682   4.263  0.2585  1.9470 -1.0427
  177RES   H12649758   2.268   1.761   4.165 -0.2785  0.5390  0.3006
  177RES   H12749759   2.232   1.617   4.226 -1.8335  1.0314  3.0235
  177RES   O12849760   2.132   1.957   4.526  0.2588  0.0845 -0.3932
  177RES   C12949761   2.161   1.959   4.668  0.0614 -0.4644  0.7428
  177RES   C13049762   2.217   2.096   4.714  0.1578 -0.3998  0.0408
  177RES   C13149763   2.263   2.098   4.863  0.2034 -0.2298  0.3532
  177RES   O13249764   2.331   2.222   4.865 -0.4481 -0.5591  0.4931
  177RES   C13349765   2.374   2.242   4.999  0.4290  0.0982  0.4281
  177RES   H13449766   2.074   1.936   4.729 -2.3404  2.9865 -1.2234
  177RES   H13549767   2.226   1.875   4.690  0.7526  0.2584  1.4819
  177RES   H13649768   2.301   2.123   4.649 -0.9509 -1.2588 -1.7858
  177RES   H13749769   2.339   2.021   4.878  0.5847 -0.3823 -2.0295
  177RES   H13849770   2.181   2.080   4.932 -0.2853  0.7588  0.0351
  177RES   H13949771   2.287   2.239   5.064 -0.1892  2.2216 -0.2406
  177RES   H14049772   2.450   2.171   5.031 -0.0264 -1.2328 -1.3732
  177RES   H14149773   2.405   2.344   5.025 -1.4562 -0.1203  3.8362
  177RES   O14249774   2.111   2.192   4.695  0.2854 -0.1319 -0.5074
  177RES   C14349775   2.138   2.309   4.622  0.2491 -0.0798  1.2343
  177RES   C14449776   2.117   2.278   4.470  0.1149  0.8127 -0.3263
  177RES   C14549777   2.230   2.350   4.384  0.1025  0.3266 -0.2738
  177RES   O14649778   2.217   2.306   4.250 -0.6997 -0.2955 -0.4196
  177RES   C14749779   2.279   2.184   4.218  0.4483  0.1603  0.8383
  177RES   H14849780   2.065   2.385   4.649 -1.2026 -1.1841  0.5612
  177RES   H14949781   2.238   2.347   4.638  0.2751  1.2652 -1.7604
  177RES   H15049782   2.130   2.176   4.434  0.4871  0.4029  0.9405
  177RES   H15149783   2.328   2.321   4.423  0.5750 -0.0464 -1.6905
  177RES   H15249784   2.225   2.458   4.382 -0.7715  0.3267  1.1588
  177RES   H15349785   2.232   2.157   4.123 -0.9273  0.3730  1.4472
  177RES   H15449786   2.259   2.109   4.294  0.3707  0.3744  1.0277
  177RES   H15549787   2.387   2.201   4.212  0.7133 -1.4341  0.7096
  177RES   O15649788   2.001   2.344   4.418  0.1921 -0.7299 -0.0503
  177RES   C15749789   1.878   2.297   4.465 -0.1163  0.3401 -0.0691
  177RES   C15849790   1.779   2.366   4.370 -0.3393  0.2249 -0.5811
  177RES   C15949791   1.633   2.343   4.422 -0.3927  0.2019  0.2158
  177RES   O16049792   1.536   2.408   4.340  0.5854  0.0938 -0.1231
  177RES   C16149793   1.533   2.548   4.342 -0.0332  0.0657 -0.4084
  177RES   H16249794   1.864   2.189   4.474  0.1980  0.2136 -1.0992
  177RES   H16349795   1.853   2.346   4.559 -0.1504 -1.5103  0.9016
  177RES   H16449796   1.796   2.474   4.359  0.6714  0.2464  1.0916
  177RES   H16549797   1.614   2.236   4.423  0.5089  0.0385  0.7558
  177RES   H16649798   1.618   2.384   4.522  1.4480 -1.0915  1.0645
  177RES   H16749799   1.515   2.599   4.436  0.0762  0.3119 -0.5193
  177RES   H16849800   1.441   2.568   4.288  0.1617 -0.1775 -0.8361
  177RES   H16949801   1.612   2.588   4.279  0.1281  2.1724  1.0747
  177RES   O17049802   1.784   2.303   4.245 -0.1121  0.2897 -0.4512
  177RES   C17149803   1.856   2.380   4.153  0.3019 -0.4276 -0.0138
  177RES   C17249804   1.916   2.297   4.037 -0.1854  0.1027 -0.3924
  177RES   C17349805   2.012   2.389   3.962  0.0121  0.0716 -0.3547
  177RES   O17449806   2.102   2.312   3.883 -0.3814 -0.5335  0.4071
  177RES   C17549807   2.174   2.377   3.781 -0.1480  0.2628  0.1484
  177RES   H17649808   1.947   2.415   4.203  0.7367 -0.1021 -1.0161
  177RES   H17749809   1.799   2.468   4.122 -0.5851 -1.7200 -2.1289
  177RES   H17849810   1.969   2.211   4.079  2.7545  1.5502 -1.0041
  177RES   H17949811   1.957   2.455   3.896  4.3379  2.9465 -1.2998
  177RES   H18049812   2.061   2.454   4.035 -1.1625  1.2115 -0.5541
  177RES   H18149813   2.243   2.458   3.808 -0.6024  0.4978  0.6200
  177RES   H18249814   2.103   2.423   3.711 -0.3957  2.2485  1.6519
  177RES   H18349815   2.236   2.305   3.728 -0.0095 -0.3855  1.1795
  177RES   O18449816   1.800   2.264   3.957 -1.0394 -0.3310  0.4360
  177RES   C18549817   1.748   2.127   3.971 -0.2401  0.1760 -0.1979
  177RES   C18649818   1.600   2.130   3.922  0.1920  0.2680 -0.0362
  177RES   C18749819   1.496   2.114   4.036  0.0117 -0.0055  0.8183
  177RES   O18849820   1.371   2.146   3.970 -0.5805 -0.2711 -0.0003
  177RES   C18949821   1.297   2.029   3.950 -0.2858 -0.0432  0.2963
  177RES   H19049822   1.759   2.098   4.075  0.9014 -0.4436 -0.4793
  177RES   H19149823   1.802   2.048   3.918  1.4789  0.9176  0.4171
  177RES   H19249824   1.585   2.232   3.886  1.6647 -0.4990 -2.9618
  177RES   H19349825   1.521   2.189   4.111 -1.8927  0.6994  0.7914
  177RES   H19449826   1.505   2.014   4.079  2.6144 -0.7236 -1.2833
  177RES   H19549827   1.349   1.956   3.887 -1.2295 -0.1043 -0.4098
  177RES   H19649828   1.271   1.984   4.046 -1.9955 -0.1641 -0.2193
  177RES   H19749829   1.205   2.050   3.897 -0.2832 -2.1485 -0.6234
  177RES   O19849830   1.587   2.038   3.807 -0.1779  0.1434 -0.5690
  177RES   C19949831   1.604   2.096   3.680  0.2934  0.0186  0.0487
  177RES   C20049832   1.580   1.995   3.572 -0.2475 -0.5187 -0.4644
  177RES   C20149833   1.653   2.031   3.444 -0.6286 -0.2787 -0.2300
  177RES   O20249834   1.673   1.912   3.372  0.0244 -0.1164 -0.0962
  177RES   C20349835   1.744   1.937   3.255  0.6302 -0.3848  0.1301
  177RES   H20449836   1.705   2.138   3.680  0.7772 -1.1251  1.0204
  177RES   H20549837   1.546   2.188   3.682  0.1059 -0.1106  1.2134
  177RES   H20649838   1.619   1.901   3.611 -0.5402 -0.2782  0.4266
  177RES   H20749839   1.592   2.100   3.387 -1.4904 -0.2308  0.7523
  177RES   H20849840   1.747   2.081   3.469 -2.3475  0.9504  4.1734
  177RES   H20949841   1.674   1.988   3.189  1.8229  2.6137  1.1240
  177RES   H21049842   1.770   1.840   3.211 -0.4203 -0.9928  0.8154
  177RES   H21149843   1.834   1.998   3.265 -1.0088  2.6363 -2.6505
  177RES   O21249844   1.442   1.987   3.552  0.4598 -0.0052  0.0576
  177RES   C21349845   1.406   1.866   3.491 -0.7287  0.2073 -0.1469
  177RES   C21449846   1.257   1.841   3.536  0.3744  0.5755 -0.1353
  177RES   C21549847   1.206   1.701   3.510 -0.0728 -0.8618 -0.5709
  177RES   O21649848   1.081   1.673   3.570 -0.1079  0.4963 -0.5414
  177RES   C21749849   1.026   1.552   3.514 -0.1084  0.3857  0.4753
  177RES   H21849850   1.463   1.786   3.537 -0.8437  0.4047  0.3412
  177RES   H21949851   1.413   1.870   3.382 -0.0001 -1.0145 -0.1576
  177RES   H22049852   1.258   1.863   3.643  2.5995  0.0820 -0.0291
  177RES   H22149853   1.201   1.687   3.402 -1.7827  0.9192 -0.7519
  177RES   H22249854   1.273   1.622   3.542  1.6405  0.0087 -1.9154
  177RES   H22349855   1.036   1.553   3.406 -1.5619  0.0160  0.3262
  177RES   H22449856   0.921   1.538   3.539 -0.1304  0.1881  0.2714
  177RES   H22549857   1.083   1.467   3.552 -1.3138 -1.6232 -2.1132
  177RES   O22649858   1.181   1.942   3.470 -0.1762 -0.0547  0.4405
  177RES   C22749859   1.063   1.974   3.543 -0.2210 -0.0758 -0.8903
  177RES   C22849860   0.939   1.950   3.456  0.4327 -0.6173 -0.0870
  177RES   C22949861   0.811   1.993   3.530  0.6867  0.1013  0.2101
  177RES   O23049862   0.698   1.905   3.506 -0.4361  0.0290 -0.1617
  177RES   C23149863   0.689   1.787   3.577  0.1461 -0.0688 -0.3370
  177RES   H23249864   1.063   2.080   3.566 -1.8930 -0.4305  0.9240
  177RES   H23349865   1.052   1.928   3.641  1.3667  2.3226  0.4484
  177RES   H23449866   0.943   1.848   3.418 -1.0058 -0.8028  0.2385
  177RES   H23549867   0.778   2.095   3.511 -0.4016 -0.0897  1.0165
  177RES   H23649868   0.823   1.996   3.638  1.5796  0.5399  0.1001
  177RES   H23749869   0.648   1.802   3.677 -1.2202 -2.0196 -0.5736
  177RES   H23849870   0.786   1.736   3.579  0.0856 -0.2781 -1.9966
  177RES   H23949871   0.617   1.724   3.524  0.0009  0.2290 -0.4949
  177RES   O24049872   0.944   2.036   3.343 -0.1212 -0.1225 -0.0360
  177RES   C24149873   0.888   1.998   3.222 -0.3568  0.2785  0.7215
  177RES   C24249874   0.974   1.904   3.134 -0.7582 -0.0666 -0.5388
  177RES   C24349875   0.887   1.869   3.012  0.8669 -0.4270  0.6441
  177RES   O24449876   0.772   1.799   3.055  0.2934 -0.3276 -0.7124
  177RES   C24549877   0.671   1.803   2.962  0.3388 -0.0471 -0.0705
  177RES   H24649878   0.866   2.084   3.159 -1.6997 -3.0850 -3.6084
  177RES   H24749879   0.803   1.938   3.254  1.7074 -3.2869 -0.2081
  177RES   H24849880   1.008   1.820   3.195  0.3659  0.1315 -0.8720
  177RES   H24949881   0.854   1.959   2.961 -1.0892 -1.6635 -0.3476
  177RES   H25049882   0.943   1.804   2.945 -0.4396 -0.0781 -0.8126
  177RES   H25149883   0.580   1.762   3.006 -1.0432  2.1117 -0.8397
  177RES   H25249884   0.697   1.744   2.874  1.4180  2.4345 -1.4597
  177RES   H25349885   0.654   1.907   2.936  0.8892  0.4013  1.3447
  177RES   O25449886   1.079   1.977   3.077 -0.4914  0.3169 -0.0381
  177RES   C25549887   1.182   2.032   3.163  0.1795  0.1934 -0.7289
  177RES   C25649888   1.285   2.092   3.068  0.2525  0.1175  0.0961
  177RES   C25749889   1.400   2.159   3.146 -0.3466  0.3296 -0.4186
  177RES   O25849890   1.495   2.221   3.063 -0.5193 -0.1614 -0.2440
  177RES   C25949891   1.598   2.278   3.144 -0.0400 -0.0436 -0.1139
  177RES   H26049892   1.142   2.109   3.229 -1.2658 -0.2508 -1.0651
  177RES   H26149893   1.221   1.951   3.224  1.7418  0.9937 -0.6559
  177RES   H26249894   1.238   2.161   2.997  2.4376  0.1173 -1.4297
  177RES   H26349895   1.355   2.223   3.222 -0.1238 -1.7309  1.5157
  177RES   H26449896   1.432   2.075   3.207 -1.0343  0.2222 -0.2051
  177RES   H26549897   1.562   2.322   3.237  2.9903 -1.5039  1.8084
  177RES   H26649898   1.645   2.361   3.092  1.2645 -0.5751  0.1950
  177RES   H26749899   1.674   2.206   3.174 -1.1622 -2.0491 -1.8976
  177RES   O26849900   1.330   1.980   2.989  0.1000 -0.2083  0.0635
  177RES   C26949901   1.412   2.015   2.878 -0.1412 -0.6656 -0.4143
  177RES   C27049902   1.385   1.918   2.758 -0.4171  0.1755 -0.2155
  177RES   C27149903   1.235   1.884   2.725  0.0408  0.7635  1.1790
  177RES   O27249904   1.227   1.780   2.627 -0.0053 -0.5360  0.1617
  177RES   C27349905   1.092   1.744   2.608  0.4157  0.0578  0.3232
  177RES   H27449906   1.519   2.011   2.899 -0.0771  0.7639 -0.4242
  177RES   H27549907   1.385   2.115   2.842 -0.6657 -0.0688  1.5941
  177RES   H27649908   1.444   1.956   2.674  0.6295 -0.6282  0.1454
  177RES   H27749909   1.183   1.970   2.682  0.5265 -0.0723 -1.1360
  177RES   H27849910   1.181   1.857   2.816 -1.7455  0.9408  0.2006
  177RES   H27949911   1.034   1.833   2.586 -0.7140 -1.3085 -2.5224
  177RES   H28049912   1.048   1.697   2.696  0.5391  2.6795  1.8110
  177RES   H28149913   1.092   1.668   2.529 -1.4425 -0.3803  0.7158
  177RES   H28249914   1.443   1.826   2.769 -1.6393 -0.9641 -3.0034
   7.81710   7.81710   7.81710
