Control file title. For DL_FIELD 4.10
49894
    1MOL     C1    1   4.952   5.064   5.717  0.1264  0.0273  0.5604
    1MOL     O2    2   5.022   4.999   5.797 -0.4112 -0.3164 -0.4266
    1MOL     C3    3   5.028   5.141   5.608 -0.2968 -0.1963  0.4866
    1MOL     C4    4   5.038   5.050   5.484  0.4580  0.3934  0.5000
    1MOL     N5    5   5.136   4.950   5.481 -0.5342  0.3529 -0.6084
    1MOL     H6    6   5.132   5.167   5.629 -0.8293  1.6880  0.8651
    1MOL     H7    7   4.981   5.239   5.598  4.1720  1.8091 -2.5896
    1MOL     H8    8   5.044   5.111   5.393  0.7862  0.6841  0.7165
    1MOL     H9    9   4.942   5.001   5.470 -1.0140  2.4681  3.0104
    1MOL    H10   10   5.110   4.852   5.484 -1.8393  0.6857 -0.7123
    1MOL    H11   11   4.846   5.079   5.702  0.7105  2.6201 -1.3433
    1MOL    C12   12   5.260   4.967   5.443 -0.4819  0.6881 -0.0922
    1MOL    O13   13   5.302   5.072   5.406  0.6174 -0.2455 -0.5322
    1MOL    C14   14   5.349   4.839   5.449  0.0450  0.1222 -1.0456
    1MOL    C15   15   5.390   4.770   5.321  0.1377  0.2817 -0.1221
    1MOL    N16   16   5.436   4.855   5.206  0.4755 -0.0358 -0.1349
    1MOL    H17   17   5.300   4.757   5.501 -0.3123 -1.1124 -3.2731
    1MOL    H18   18   5.436   4.862   5.511  0.4687 -0.8864 -1.2698
    1MOL    H19   19   5.470   4.696   5.334  0.0637  0.2615  0.2114
    1MOL    H20   20   5.306   4.708   5.289 -0.8000  1.0499  0.8518
    1MOL    H21   21   5.533   4.884   5.201  0.3550  0.6688  1.4228
    1MOL    C22   22   5.357   4.895   5.112  0.0046 -0.4137  0.2866
    1MOL    O23   23   5.243   4.846   5.098  0.1824 -0.2609 -0.5572
    1MOL    C24   24   5.410   5.010   5.035 -0.2836 -0.0646 -0.7167
    1MOL    C25   25   5.302   5.122   5.016 -0.0195  0.5265  0.2074
    1MOL    N26   26   5.259   5.194   5.138  0.3672 -0.0626  0.0670
    1MOL    H27   27   5.451   4.964   4.945 -0.2590 -0.3303 -0.5691
    1MOL    H28   28   5.504   5.036   5.082 -0.0912 -1.9234 -0.0565
    1MOL    H29   29   5.328   5.204   4.949 -1.7928  0.6283 -0.3983
    1MOL    H30   30   5.211   5.080   4.972 -0.4920  0.2162  1.4634
    1MOL    H31   31   5.299   5.171   5.228  0.2585 -0.5587 -0.0102
    1MOL    C32   32   5.175   5.298   5.132  0.3023 -0.6951 -0.4500
    1MOL    O33   33   5.130   5.341   5.027  0.2515  0.1879 -0.2339
    1MOL    C34   34   5.126   5.366   5.259 -0.6084  0.1374  0.8524
    1MOL    C35   35   4.972   5.392   5.267 -0.1901  0.0235  0.5491
    1MOL    N36   36   4.907   5.484   5.177 -0.5177  0.0230  0.0014
    1MOL    H37   37   5.192   5.453   5.265  0.8982 -1.0012  1.1976
    1MOL    H38   38   5.151   5.304   5.345  0.6009  1.1084  1.2015
    1MOL    H39   39   4.920   5.297   5.264 -0.8334  0.3892 -0.2946
    1MOL    H40   40   4.954   5.427   5.369 -0.5675  1.8611 -0.1280
    1MOL    H41   41   4.829   5.460   5.118 -2.7061  1.6019  2.1548
    1MOL    C42   42   4.952   5.614   5.158 -0.1051  0.2712  0.5145
    1MOL    O43   43   5.038   5.669   5.226 -0.8202 -0.5231 -0.1400
    1MOL    C44   44   4.904   5.692   5.035  0.0500  0.3044 -0.3206
    1MOL    C45   45   5.015   5.683   4.925  0.2902  0.9581 -0.1946
    1MOL    N46   46   4.992   5.558   4.850  0.6021 -0.2556 -0.7168
    1MOL    H47   47   4.815   5.654   4.984 -0.1457  1.3883 -0.8068
    1MOL    H48   48   4.882   5.797   5.053 -2.4593  0.3365 -3.2540
    1MOL    H49   49   5.023   5.772   4.864 -0.6925  1.9357  1.0714
    1MOL    H50   50   5.111   5.679   4.977  0.4649 -0.3507 -0.5885
    1MOL    H51   51   5.007   5.472   4.900  1.0105  0.1448 -0.1530
    1MOL    C52   52   4.958   5.556   4.718  0.2292 -0.4499 -0.5541
    1MOL    O53   53   4.927   5.654   4.659  0.4308 -0.4091 -0.5021
    1MOL    C54   54   4.945   5.423   4.654  0.6096 -0.4257  0.3727
    1MOL    C55   55   4.809   5.354   4.665  0.5921  0.2820  0.1064
    1MOL    N56   56   4.774   5.262   4.560 -0.0648  0.1682  0.9807
    1MOL    H57   57   4.973   5.436   4.550  3.5976 -1.3518  1.0036
    1MOL    H58   58   5.026   5.360   4.691 -1.1494 -0.9944  3.4683
    1MOL    H59   59   4.734   5.433   4.657 -1.4097 -1.5152  0.4730
    1MOL    H60   60   4.800   5.304   4.762  1.8362 -1.0485 -0.4424
    1MOL    H61   61   4.709   5.292   4.489  0.8491 -1.1927 -0.4629
    1MOL    C62   62   4.831   5.140   4.553  0.2212  0.1573 -1.1054
    1MOL    O63   63   4.901   5.094   4.643 -0.5008 -0.7726  0.2510
    1MOL    C64   64   4.800   5.065   4.429  0.1426  0.2035 -0.1250
    1MOL    C65   65   4.869   4.923   4.426 -0.2002  0.1154 -0.0773
    1MOL    N66   66   4.791   4.820   4.496  0.3219  0.3290  0.0482
    1MOL    H67   67   4.692   5.066   4.420  0.0926  2.3301  0.4039
    1MOL    H68   68   4.843   5.129   4.352 -1.3632  1.2258 -0.1347
    1MOL    H69   69   4.874   4.904   4.318  1.0045 -0.6058  0.0960
    1MOL    H70   70   4.976   4.928   4.444  0.1253  2.2662 -2.2983
    1MOL    H71   71   4.796   4.821   4.597  0.1191  0.0648  0.0619
    1MOL    C72   72   4.687   4.749   4.445 -0.4677 -0.8088  1.1897
    1MOL    O73   73   4.669   4.744   4.322 -0.5549 -0.2768 -0.2407
    1MOL    C74   74   4.600   4.667   4.532 -0.4687  0.0973 -0.2325
    1MOL    C75   75   4.616   4.521   4.515 -0.0801 -0.0376  0.0979
    1MOL    N76   76   4.685   4.458   4.627 -0.1423 -0.5148 -0.5297
    1MOL    H77   77   4.621   4.697   4.635 -0.0435  1.7203 -0.7793
    1MOL    H78   78   4.500   4.702   4.503 -0.3021  1.5153  0.8360
    1MOL    H79   79   4.522   4.468   4.504  0.7387 -0.7367 -5.1273
    1MOL    H80   80   4.668   4.495   4.422  1.2337  1.1122  0.4915
    1MOL    H81   81   4.705   4.521   4.704  0.1313 -0.5021 -0.6142
    1MOL    C82   82   4.704   4.329   4.647 -0.5409 -0.2561 -0.3290
    1MOL    O83   83   4.678   4.234   4.574 -0.3951 -0.8140  0.1790
    1MOL    C84   84   4.765   4.293   4.787 -0.2201 -0.6638  0.7396
    1MOL    C85   85   4.690   4.199   4.863  0.4985  0.4513 -0.4986
    1MOL    N86   86   4.730   4.196   5.009 -0.7420  0.7893  0.4414
    1MOL    H87   87   4.866   4.254   4.773  0.2850  0.1835  1.9534
    1MOL    H88   88   4.771   4.384   4.847  1.1924  0.8497 -1.6014
    1MOL    H89   89   4.583   4.219   4.873  0.1904 -2.2933  3.1329
    1MOL    H90   90   4.692   4.098   4.821  1.7422  0.5404 -0.6543
    1MOL    H91   91   4.734   4.289   5.049 -0.3627  0.3517  1.4412
    1MOL    C92   92   4.744   4.086   5.080 -0.1395  0.0571 -0.1100
    1MOL    O93   93   4.727   3.976   5.027  0.3026  0.7846 -0.6518
    1MOL    C94   94   4.772   4.093   5.236 -0.3995 -0.2647 -0.2869
    1MOL    C95   95   4.898   4.018   5.276  0.0954  0.3341  0.4023
    1MOL    N96   96   4.919   4.033   5.420  0.7898  0.1856  0.3825
    1MOL    H97   97   4.773   4.195   5.274  0.6475 -1.4695  3.1586
    1MOL    H98   98   4.691   4.045   5.292 -1.5130  0.8013 -0.9497
    1MOL    H99   99   4.883   3.912   5.256 -0.4547  0.2841  1.0769
    1MOL   H100  100   4.985   4.059   5.224  0.7393 -0.5755  0.7609
    1MOL   H101  101   4.864   4.100   5.472  1.0667 -0.3108  1.3426
    1MOL   C102  102   5.005   3.967   5.496 -0.3989 -0.2358  0.6748
    1MOL   O103  103   5.087   3.880   5.453  0.2780 -0.2129 -0.1571
    1MOL   C104  104   4.998   3.990   5.645  1.1921 -0.8943  0.6997
    1MOL   C105  105   5.092   4.095   5.701 -0.3599  0.2691  0.4093
    1MOL   N106  106   5.232   4.065   5.672 -0.0695  0.4345  0.4737
    1MOL   H107  107   5.018   3.892   5.689  0.0255 -1.1100  0.7488
    1MOL   H108  108   4.894   4.007   5.673  0.8352 -1.7899 -0.0807
    1MOL   H109  109   5.079   4.200   5.676 -2.8887 -0.1541 -0.1657
    1MOL   H110  110   5.068   4.100   5.807  0.4325 -0.5279  0.6353
    1MOL   H111  111   5.269   4.071   5.578 -1.3515  0.5585 -0.0324
    1MOL   C112  112   5.319   4.024   5.767 -0.4136 -0.1906  0.4666
    1MOL   O113  113   5.285   3.983   5.875 -0.1349  0.1615  0.6193
    1MOL   C114  114   5.464   4.020   5.719 -0.1869  0.0338  0.2323
    1MOL   C115  115   5.562   4.084   5.827 -0.1398  0.3336  0.3277
    1MOL   N116  116   5.538   4.225   5.843  0.3728  0.1869  0.3258
    1MOL   H117  117   5.481   4.073   5.626 -0.5642 -2.6588 -1.4422
    1MOL   H118  118   5.504   3.921   5.695  1.6789  0.9724 -0.6464
    1MOL   H119  119   5.535   4.022   5.912  0.8422  0.0883  0.4626
    1MOL   H120  120   5.664   4.051   5.804 -0.2887 -0.8689  1.3272
    1MOL   H121  121   5.492   4.247   5.930 -0.8554  3.5150 -1.0693
    1MOL   C122  122   5.581   4.319   5.767  0.8443  0.5853  0.1142
    1MOL   O123  123   5.657   4.299   5.672  0.0347  0.0525 -0.2601
    1MOL   C124  124   5.521   4.460   5.783 -0.3608  0.0458  0.3694
    1MOL   C125  125   5.486   4.533   5.651 -0.8013 -0.4267 -0.4777
    1MOL   N126  126   5.350   4.510   5.607 -0.2597 -0.2098 -0.5454
    1MOL   H127  127   5.610   4.506   5.828  0.4500 -0.8198 -0.3447
    1MOL   H128  128   5.441   4.468   5.857 -0.2094 -0.0128  0.5403
    1MOL   H129  129   5.504   4.640   5.650 -0.4841 -0.4183  1.9725
    1MOL   H130  130   5.551   4.495   5.572 -0.6335  1.4901 -1.2861
    1MOL   H131  131   5.277   4.514   5.677 -0.7852  0.5407 -1.1319
    1MOL   C132  132   5.319   4.467   5.483  0.3574  0.2575 -0.4640
    1MOL   O133  133   5.395   4.456   5.387  0.0736  0.5924  0.6712
    1MOL   C134  134   5.169   4.430   5.461 -1.2929 -0.2188 -0.8960
    1MOL   C135  135   5.143   4.314   5.361  0.4210 -0.4437  0.3682
    1MOL   N136  136   5.174   4.350   5.222 -0.0036  0.7119 -0.0013
    1MOL   H137  137   5.134   4.530   5.432  0.2544  1.1427  1.7806
    1MOL   H138  138   5.115   4.394   5.548 -0.9620 -1.5569 -1.2392
    1MOL   H139  139   5.182   4.219   5.398  1.2412 -0.2543 -0.0127
    1MOL   H140  140   5.038   4.288   5.378  0.3433  0.0570  0.6637
    1MOL   H141  141   5.270   4.373   5.200 -0.3657  1.5928 -0.7012
    1MOL   C142  142   5.086   4.383   5.123 -0.7401 -0.7473 -0.2316
    1MOL   O143  143   4.966   4.356   5.136  0.4545 -0.7562  0.9211
    1MOL   C144  144   5.142   4.455   5.006 -0.6910 -0.2079  0.2199
    1MOL   C145  145   5.051   4.538   4.924  0.4104  0.1017  0.1369
    1MOL   N146  146   5.025   4.675   4.977 -0.0055 -0.5006 -0.0554
    1MOL   H147  147   5.201   4.391   4.941  0.2725  1.5662 -0.6923
    1MOL   H148  148   5.226   4.514   5.040 -0.2276 -0.1024 -1.0742
    1MOL   H149  149   5.098   4.552   4.827 -1.1581 -0.8966 -0.7852
    1MOL   H150  150   4.957   4.486   4.905 -0.1724  1.2263 -0.0736
    1MOL   H151  151   5.089   4.698   5.052  0.7441 -1.1897 -0.4724
    1MOL   C152  152   4.928   4.763   4.949  0.1579  0.4951  0.1132
    1MOL   O153  153   4.841   4.723   4.876 -0.2193 -0.1906 -0.8217
    1MOL   C154  154   4.932   4.900   5.026  0.1993 -0.4386  0.0498
    1MOL   C155  155   4.812   4.991   5.009  0.0339  0.3609  0.1368
    1MOL   N156  156   4.702   4.956   5.101  0.0066  0.6729 -0.2949
    1MOL   H157  157   5.024   4.947   4.991  0.9795 -1.9245  0.0576
    1MOL   H158  158   4.952   4.885   5.132 -0.2980 -2.2347 -0.0872
    1MOL   H159  159   4.840   5.094   5.030 -3.2085  0.9759  1.6627
    1MOL   H160  160   4.760   4.995   4.913 -0.4272 -3.6462  0.1160
    1MOL   H161  161   4.621   4.906   5.068  0.1860  1.9727 -2.8034
    1MOL   C162  162   4.683   5.009   5.225  0.0935  0.1537 -0.3967
    1MOL   O163  163   4.772   5.068   5.286 -0.1709  0.4108 -0.4511
    1MOL   C164  164   4.544   4.999   5.293 -0.0919 -0.5560 -0.1729
    1MOL   C165  165   4.556   4.948   5.444 -0.0858  0.0678  0.0895
    1MOL   N166  166   4.430   4.915   5.500 -0.4787 -0.2385 -0.6293
    1MOL   H167  167   4.482   4.927   5.240 -1.5622  0.3492  0.2750
    1MOL   H168  168   4.502   5.100   5.292  1.3065  0.0435 -0.1963
    1MOL   H169  169   4.630   4.868   5.444  0.3069  0.4286 -0.1515
    1MOL   H170  170   4.604   5.020   5.511 -0.3886 -0.1588  0.5466
    1MOL   H171  171   4.380   4.975   5.563  2.5115  1.4656  0.2276
    1MOL   C172  172   4.343   4.815   5.457 -0.2408 -0.1390 -0.5640
    1MOL   O173  173   4.379   4.731   5.380 -0.3256  0.3805 -0.2471
    1MOL   C174  174   4.205   4.806   5.517 -0.0495 -0.8583 -0.4898
    1MOL   C175  175   4.124   4.924   5.468 -0.3651 -0.2114 -0.4209
    1MOL   N176  176   4.105   4.918   5.324 -0.6967 -0.1691  0.0631
    1MOL   H177  177   4.215   4.812   5.625 -0.7283  2.9532 -0.5706
    1MOL   H178  178   4.152   4.716   5.487 -1.1945 -0.0448 -0.9494
    1MOL   H179  179   4.031   4.924   5.524 -2.1639  0.7805 -3.2784
    1MOL   H180  180   4.164   5.019   5.505 -0.7759 -0.4224  0.5632
    1MOL   H181  181   4.023   4.869   5.291  0.7491 -1.4721 -1.6569
    1MOL   C182  182   4.153   5.014   5.239  0.7281  0.0839 -0.4729
    1MOL   O183  183   4.250   5.088   5.278  0.6397 -0.8112  0.5625
    1MOL   C184  184   4.090   5.014   5.104  0.8061  0.6937  0.3779
    1MOL   C185  185   4.134   4.892   5.012  0.3519  0.7688 -0.5130
    1MOL   N186  186   4.208   4.934   4.888  0.5789  0.1528  0.0186
    1MOL   H187  187   4.099   5.108   5.050 -1.3043 -0.1382 -1.4864
    1MOL   H188  188   3.983   5.006   5.122  0.8521 -0.4749  0.1756
    1MOL   H189  189   4.192   4.816   5.064 -2.2233 -1.8047 -1.3443
    1MOL   H190  190   4.041   4.844   4.984 -0.2423  2.3279 -1.3091
    1MOL   H191  191   4.149   4.942   4.806 -0.2516 -1.7249  0.3853
    1MOL   C192  192   4.340   4.929   4.875  0.0677 -0.1899  0.1673
    1MOL   O193  193   4.423   4.921   4.967 -0.1363  0.1980 -0.1756
    1MOL   C194  194   4.375   4.919   4.728  0.2896  0.6021 -0.2950
    1MOL   C195  195   4.456   5.046   4.685 -0.6651  0.5202  0.4441
    1MOL   N196  196   4.378   5.165   4.666  0.2941 -0.2401 -0.3284
    1MOL   H197  197   4.435   4.829   4.716 -0.3579  0.2297 -0.7640
    1MOL   H198  198   4.287   4.896   4.669  1.4562 -1.7466 -1.1966
    1MOL   H199  199   4.545   5.068   4.745 -0.8989  2.6335  0.0484
    1MOL   H200  200   4.502   5.023   4.589 -0.3821 -1.3419  0.9923
    1MOL   H201  201   4.435   5.247   4.652 -0.1309  0.4006  1.4865
    1MOL   H202  202   4.316   5.159   4.586 -0.0224  1.7383 -0.2753
    2MOL     C1  203   6.455   7.102   4.532  0.9456 -0.6603 -0.1404
    2MOL     O2  204   6.376   7.062   4.442  0.4093 -0.6499 -0.3747
    2MOL     C3  205   6.605   7.085   4.515 -0.0338 -0.6354 -0.1493
    2MOL     C4  206   6.638   6.936   4.503 -0.3432  0.0151 -0.3268
    2MOL     N5  207   6.653   6.874   4.628  0.4283 -0.1304  0.5501
    2MOL     H6  208   6.656   7.133   4.599 -0.3915  0.5162 -0.5820
    2MOL     H7  209   6.640   7.134   4.425  2.9176 -2.2456  0.0468
    2MOL     H8  210   6.732   6.928   4.449 -0.9457 -0.3564 -1.3367
    2MOL     H9  211   6.575   6.881   4.433  1.0181 -0.6663 -1.0284
    2MOL    H10  212   6.741   6.897   4.671  0.6613  1.4174 -0.7238
    2MOL    H11  213   6.427   7.145   4.629 -1.4722 -0.8516 -0.7139
    2MOL    C12  214   6.563   6.800   4.695  0.6750 -0.2804 -0.1997
    2MOL    O13  215   6.461   6.755   4.646  0.1288 -0.4166  0.5636
    2MOL    C14  216   6.600   6.776   4.836 -0.7903  0.4277 -0.2907
    2MOL    C15  217   6.507   6.851   4.934  0.0416  0.1498  0.3685
    2MOL    N16  218   6.563   6.988   4.960 -0.2501 -0.3586  0.1003
    2MOL    H17  219   6.707   6.793   4.849 -0.5046 -0.7272 -0.9779
    2MOL    H18  220   6.584   6.671   4.862 -0.8806  0.3710 -0.5772
    2MOL    H19  221   6.407   6.849   4.891 -1.0845  3.5871  2.6344
    2MOL    H20  222   6.502   6.796   5.028  2.7269 -0.1035  0.4007
    2MOL    H21  223   6.660   7.004   4.937 -0.8806  1.0647 -1.6347
    2MOL    C22  224   6.500   7.075   5.034 -0.2291  0.1123  0.3673
    2MOL    O23  225   6.380   7.060   5.072  0.4413 -0.1687 -0.9311
    2MOL    C24  226   6.585   7.199   5.074 -0.0589  0.2859  0.4163
    2MOL    C25  227   6.611   7.303   4.954 -0.5672 -0.1041 -0.0449
    2MOL    N26  228   6.486   7.376   4.920 -0.0212  0.0117 -0.0235
    2MOL    H27  229   6.676   7.161   5.121 -0.2341  1.0380  1.3893
    2MOL    H28  230   6.545   7.243   5.166 -0.3536  0.1469  0.3569
    2MOL    H29  231   6.676   7.386   4.979 -0.5781 -0.3198  0.7114
    2MOL    H30  232   6.644   7.247   4.867  0.4753 -2.2481  1.6850
    2MOL    H31  233   6.423   7.409   4.992 -1.9500 -1.3212 -1.0531
    2MOL    C32  234   6.456   7.427   4.802  0.1943 -0.1221  0.7610
    2MOL    O33  235   6.516   7.405   4.701 -0.2963  0.0783 -0.5981
    2MOL    C34  236   6.338   7.526   4.794 -1.5533  0.0234  0.2084
    2MOL    C35  237   6.219   7.469   4.713 -0.4443  0.0982  1.1301
    2MOL    N36  238   6.125   7.391   4.788  0.4288  0.3804  0.2855
    2MOL    H37  239   6.374   7.620   4.751 -0.0097 -0.3422  0.6692
    2MOL    H38  240   6.310   7.556   4.895 -1.1791 -0.2706  0.4037
    2MOL    H39  241   6.160   7.557   4.687  0.5575  0.3663 -0.2727
    2MOL    H40  242   6.256   7.420   4.623  0.9281  0.3735  1.5212
    2MOL    H41  243   6.045   7.446   4.817 -0.0402 -0.2149  0.1382
    2MOL    C42  244   6.134   7.262   4.819 -0.4536  0.1458  0.4257
    2MOL    O43  245   6.232   7.188   4.803  0.3158  0.2546 -0.4316
    2MOL    C44  246   6.009   7.209   4.887  0.1170 -0.8816  0.0739
    2MOL    C45  247   6.029   7.078   4.974  0.0308 -0.3630  0.5018
    2MOL    N46  248   5.894   7.020   5.002  0.2802 -0.5233  0.2771
    2MOL    H47  249   5.968   7.276   4.962 -1.8842 -1.0482 -0.8343
    2MOL    H48  250   5.932   7.208   4.809  0.6091 -1.0091 -0.4090
    2MOL    H49  251   6.083   7.020   4.899 -1.0223 -0.1723 -0.4234
    2MOL    H50  252   6.095   7.086   5.061 -0.7997  0.1616  1.0944
    2MOL    H51  253   5.853   6.961   4.932 -0.4545 -1.2437  1.2923
    2MOL    C52  254   5.812   7.057   5.104 -0.1415  0.2585  0.0488
    2MOL    O53  255   5.849   7.130   5.195 -0.5175 -0.2693 -0.0977
    2MOL    C54  256   5.672   6.997   5.097 -0.6754 -0.1473 -0.1541
    2MOL    C55  257   5.603   6.964   5.233 -0.1351  0.2087 -0.2684
    2MOL    N56  258   5.480   7.048   5.252  0.2562  0.2695 -0.0123
    2MOL    H57  259   5.612   7.066   5.037  0.1612  0.5067 -0.2431
    2MOL    H58  260   5.677   6.913   5.029  0.3218 -0.3923  0.2166
    2MOL    H59  261   5.674   6.970   5.316  0.0489  1.4081 -0.5067
    2MOL    H60  262   5.578   6.859   5.250  1.1717 -0.1348 -0.3923
    2MOL    H61  263   5.436   7.076   5.166  1.1043  1.9432  0.0842
    2MOL    C62  264   5.416   7.081   5.361  0.8041 -0.0034 -0.7685
    2MOL    O63  265   5.455   7.040   5.472 -0.0142  0.1952  0.0918
    2MOL    C64  266   5.279   7.152   5.348 -0.0583  0.6619  0.2215
    2MOL    C65  267   5.171   7.107   5.435 -0.0782  0.6299  0.6222
    2MOL    N66  268   5.122   6.968   5.409 -0.4236  0.1900  0.8346
    2MOL    H67  269   5.289   7.259   5.368  0.3104  0.3043  2.0555
    2MOL    H68  270   5.241   7.145   5.246  0.4851  2.4877 -0.1362
    2MOL    H69  271   5.206   7.111   5.538  0.0070  0.6529  0.5922
    2MOL    H70  272   5.096   7.186   5.441 -1.2596 -0.5214  1.4166
    2MOL    H71  273   5.165   6.898   5.467  1.3216  1.4354  1.0563
    2MOL    C72  274   5.046   6.930   5.307 -0.0262  0.1341 -0.1453
    2MOL    O73  275   5.019   7.000   5.207 -0.1584  0.1666 -0.1451
    2MOL    C74  276   4.987   6.796   5.322  0.1015  0.0007 -0.3258
    2MOL    C75  277   5.041   6.687   5.218 -0.2025  0.7460 -0.0376
    2MOL    N76  278   4.970   6.565   5.240  0.4968 -0.5297  0.3032
    2MOL    H77  279   5.001   6.766   5.425 -1.6745 -0.9716 -0.3453
    2MOL    H78  280   4.882   6.825   5.317 -0.6326 -2.2389  1.1700
    2MOL    H79  281   5.039   6.717   5.113 -1.7019  0.8933  0.0219
    2MOL    H80  282   5.146   6.665   5.239  0.0110  0.7879 -1.0335
    2MOL    H81  283   4.886   6.562   5.296  1.6744  0.3525  2.1856
    2MOL    C82  284   5.027   6.452   5.198  0.1945  0.2833 -0.3589
    2MOL    O83  285   5.121   6.447   5.123  0.3113 -0.2014 -0.5946
    2MOL    C84  286   4.948   6.318   5.237 -0.7665  0.1976  0.2563
    2MOL    C85  287   4.972   6.195   5.147 -0.2536 -0.1354  0.8613
    2MOL    N86  288   5.110   6.158   5.130 -0.4274 -0.5344 -0.8696
    2MOL    H87  289   4.977   6.293   5.339 -1.6532 -0.4674  0.3526
    2MOL    H88  290   4.843   6.343   5.226 -1.1207 -0.4616  1.9770
    2MOL    H89  291   4.903   6.112   5.163 -2.7386  1.2581 -2.1107
    2MOL    H90  292   4.934   6.224   5.049  0.9989  0.1628  0.4521
    2MOL    H91  293   5.176   6.220   5.175  0.9352 -1.8361 -1.0213
    2MOL    C92  294   5.154   6.064   5.045  0.0272  0.3567 -0.3188
    2MOL    O93  295   5.081   6.004   4.969 -0.4954  0.0665  0.1610
    2MOL    C94  296   5.304   6.044   5.038 -0.1956  0.6466  0.3102
    2MOL    C95  297   5.363   5.989   4.905 -0.3227 -0.2373  0.8707
    2MOL    N96  298   5.319   5.857   4.874 -0.2005  0.1282  0.2612
    2MOL    H97  299   5.344   6.141   5.068 -1.2108  1.2291 -0.1844
    2MOL    H98  300   5.337   5.970   5.111  2.0004  1.1252 -0.1507
    2MOL    H99  301   5.333   6.059   4.827  0.1468  1.3848  2.1304
    2MOL   H100  302   5.471   6.001   4.912 -0.2279  1.0215 -1.9735
    2MOL   H101  303   5.229   5.835   4.914  0.5761 -1.8645  0.9402
    2MOL   C102  304   5.375   5.777   4.785 -0.0031  0.1010 -0.3132
    2MOL   O103  305   5.480   5.809   4.729  0.4262 -0.1638 -0.4525
    2MOL   C104  306   5.318   5.637   4.773 -0.0083  0.0034  0.2290
    2MOL   C105  307   5.407   5.541   4.677  0.2305 -0.6900 -0.7171
    2MOL   N106  308   5.339   5.414   4.653  0.1267 -0.2163  0.0534
    2MOL   H107  309   5.218   5.648   4.731  0.3343 -0.2424 -0.6676
    2MOL   H108  310   5.320   5.597   4.874  1.2628  0.6714  0.4731
    2MOL   H109  311   5.429   5.593   4.584  2.3974  0.0379  0.1808
    2MOL   H110  312   5.498   5.512   4.730 -1.1192 -3.1533  0.3414
    2MOL   H111  313   5.298   5.373   4.736 -0.8366  0.0712 -0.2711
    2MOL   C112  314   5.320   5.358   4.533  0.4974 -0.4159 -0.1089
    2MOL   O113  315   5.379   5.391   4.437 -0.3258  0.3557 -0.0869
    2MOL   C114  316   5.234   5.224   4.523  0.3970 -0.0419  0.5761
    2MOL   C115  317   5.312   5.103   4.471 -0.0417 -0.5766 -0.3497
    2MOL   N116  318   5.249   4.985   4.530 -1.0392  0.2377 -0.2258
    2MOL   H117  319   5.147   5.239   4.459 -0.2947 -0.6444  1.3703
    2MOL   H118  320   5.187   5.213   4.620 -1.6996 -1.2790 -0.5652
    2MOL   H119  321   5.309   5.101   4.362  0.5318 -4.6569 -0.3515
    2MOL   H120  322   5.418   5.110   4.499 -0.5657  2.8919  1.0770
    2MOL   H121  323   5.193   4.933   4.463 -0.1373  1.2054 -1.7475
    2MOL   C122  324   5.263   4.931   4.649 -0.4726 -0.6998 -1.1115
    2MOL   O123  325   5.335   4.993   4.734  0.1242 -0.1462 -0.1071
    2MOL   C124  326   5.200   4.801   4.684  0.6683 -0.2073  0.4547
    2MOL   C125  327   5.297   4.684   4.689  0.3695 -0.3766  0.7806
    2MOL   N126  328   5.364   4.659   4.825 -0.1685  0.9266 -0.1205
    2MOL   H127  329   5.118   4.775   4.617  1.1916 -0.2466 -0.1746
    2MOL   H128  330   5.160   4.815   4.784  0.6585  0.0863  0.4121
    2MOL   H129  331   5.241   4.599   4.653 -3.0427  1.7393  0.9099
    2MOL   H130  332   5.376   4.697   4.615  0.9862  1.9727  1.7827
    2MOL   H131  333   5.305   4.690   4.900 -1.3313  2.2100 -1.5218
    2MOL   C132  334   5.462   4.573   4.843 -0.1063 -0.0583  0.1533
    2MOL   O133  335   5.528   4.532   4.750  0.2187  0.1351 -0.2747
    2MOL   C134  336   5.503   4.544   4.990 -0.5793  0.2440  0.5458
    2MOL   C135  337   5.543   4.399   5.004  0.1257 -0.5215  0.0663
    2MOL   N136  338   5.581   4.367   5.136 -0.3143 -0.7970 -0.2688
    2MOL   H137  339   5.431   4.593   5.056  0.5333  0.6473  1.4908
    2MOL   H138  340   5.594   4.600   5.012 -0.6366  0.9255 -0.9311
    2MOL   H139  341   5.459   4.340   4.967  0.4660 -0.6333 -0.5378
    2MOL   H140  342   5.629   4.379   4.941  0.0477 -0.2376 -0.1340
    2MOL   H141  343   5.541   4.413   5.216  1.8316  2.0398 -0.7191
    2MOL   C142  344   5.687   4.292   5.171 -0.7157  0.1140  0.9055
    2MOL   O143  345   5.748   4.213   5.092 -0.3914 -0.1383  0.3318
    2MOL   C144  346   5.716   4.287   5.321  0.2116  0.2415 -0.0865
    2MOL   C145  347   5.850   4.217   5.353  0.2585 -0.1274 -0.3454
    2MOL   N146  348   5.867   4.201   5.492  0.2040  0.7586 -0.4261
    2MOL   H147  349   5.634   4.232   5.368 -1.2584  0.6028 -2.1616
    2MOL   H148  350   5.716   4.390   5.358 -0.1458  0.2748 -0.1789
    2MOL   H149  351   5.858   4.115   5.314 -1.4191 -0.7664  0.8928
    2MOL   H150  352   5.933   4.270   5.307  0.1139 -0.1101 -0.5902
    2MOL   H151  353   5.796   4.225   5.560  0.8500  0.1802  0.4710
    2MOL   C152  354   5.985   4.176   5.552  0.0135 -0.1429 -0.5142
    2MOL   O153  355   6.086   4.139   5.494 -0.0180 -0.4772 -0.0304
    2MOL   C154  356   5.982   4.201   5.703 -0.2232  0.2154  0.3442
    2MOL   C155  357   6.039   4.079   5.775  0.5967  0.3719  0.0876
    2MOL   N156  358   5.998   4.066   5.914  0.4977  0.0653 -0.3150
    2MOL   H157  359   5.881   4.222   5.736 -0.6562 -1.4307  0.1093
    2MOL   H158  360   6.052   4.283   5.714  0.0746 -0.2314  1.9115
    2MOL   H159  361   5.996   3.992   5.726  2.0375 -1.2403  1.5998
    2MOL   H160  362   6.146   4.057   5.769  0.3882 -1.0470  1.3090
    2MOL   H161  363   5.914   4.111   5.947  1.3571  0.9492  0.7071
    2MOL   C162  364   6.047   3.975   5.992 -0.0644  0.0614  0.5876
    2MOL   O163  365   6.151   3.918   5.965 -0.1040  0.4303 -0.3285
    2MOL   C164  366   5.976   3.943   6.130 -0.0541  0.1354  0.5007
    2MOL   C165  367   5.916   3.797   6.131 -0.5810 -0.5602 -0.8212
    2MOL   N166  368   5.791   3.792   6.058 -0.1228  0.1116  0.3903
    2MOL   H167  369   5.900   4.018   6.151  2.4222  2.2394  2.3255
    2MOL   H168  370   6.037   3.955   6.219  0.3283 -1.5639  0.4833
    2MOL   H169  371   5.984   3.729   6.080 -0.8732 -0.2119 -1.6860
    2MOL   H170  372   5.893   3.764   6.233 -0.5713 -0.6885 -0.8603
    2MOL   H171  373   5.792   3.822   5.961 -2.2627 -2.5893 -0.5248
    2MOL   C172  374   5.677   3.735   6.100  0.1044 -0.2781  0.2769
    2MOL   O173  375   5.676   3.673   6.202 -0.5887  0.3043 -0.4140
    2MOL   C174  376   5.550   3.744   6.011  0.3167  0.3722  0.0442
    2MOL   C175  377   5.463   3.618   5.990 -0.6310 -0.0674  0.3332
    2MOL   N176  378   5.346   3.647   5.902  0.3485 -0.8753 -0.4699
    2MOL   H177  379   5.585   3.790   5.919 -0.4984 -2.6795 -1.8702
    2MOL   H178  380   5.487   3.820   6.058 -0.4960  0.5497 -1.3005
    2MOL   H179  381   5.520   3.544   5.935 -3.5057 -1.6748 -0.6224
    2MOL   H180  382   5.420   3.584   6.085 -1.8283  1.1614  0.2492
    2MOL   H181  383   5.270   3.674   5.963  0.7097 -3.2915  1.1551
    2MOL   C182  384   5.340   3.635   5.766  0.0690  1.0186 -0.2859
    2MOL   O183  385   5.442   3.611   5.707 -0.4820  0.3851 -0.1875
    2MOL   C184  386   5.208   3.679   5.692 -0.1774  0.0691  0.3352
    2MOL   C185  387   5.139   3.564   5.621  0.4656  0.5143 -0.4605
    2MOL   N186  388   4.995   3.592   5.616 -0.4171  0.1170 -0.5057
    2MOL   H187  389   5.246   3.748   5.617 -0.0614 -1.5341 -1.1074
    2MOL   H188  390   5.155   3.731   5.772  3.0713  2.1428  1.2428
    2MOL   H189  391   5.172   3.537   5.521 -2.7565 -1.9491 -0.9162
    2MOL   H190  392   5.148   3.469   5.674  2.6506  0.3837 -1.0257
    2MOL   H191  393   4.959   3.681   5.582  0.9314  0.5102 -0.9380
    2MOL   C192  394   4.901   3.514   5.672  0.0476 -0.4306 -0.3461
    2MOL   O193  395   4.913   3.405   5.728  0.1755  0.4738  0.0380
    2MOL   C194  396   4.767   3.584   5.674  0.0972 -0.2150 -0.3456
    2MOL   C195  397   4.642   3.503   5.696  0.1850  0.4585  0.7800
    2MOL   N196  398   4.595   3.441   5.576 -0.1720  0.0304  0.6194
    2MOL   H197  399   4.764   3.661   5.751 -1.7941  1.4658 -2.0494
    2MOL   H198  400   4.759   3.643   5.583  0.5067  0.8754  0.3162
    2MOL   H199  401   4.661   3.425   5.770 -2.5925 -1.1868 -0.1821
    2MOL   H200  402   4.571   3.572   5.741  0.7124 -0.1465  2.6079
    2MOL   H201  403   4.667   3.386   5.530 -0.8156  0.4282 -0.8986
    2MOL   H202  404   4.529   3.367   5.596  0.4729 -0.6173  0.3785
    3MOL     C1  405   5.113   3.736   6.784 -0.1445  0.2352 -0.1413
    3MOL     O2  406   5.179   3.769   6.680 -0.6622  1.0205 -0.0985
    3MOL     C3  407   5.011   3.832   6.837 -0.3001 -1.8131  0.1923
    3MOL     C4  408   5.068   3.971   6.887 -0.5132  1.1232  0.2696
    3MOL     N5  409   5.140   4.045   6.785  0.3958  0.3479 -0.2656
    3MOL     H6  410   4.957   3.783   6.918 -1.8481  0.5325  0.6329
    3MOL     H7  411   4.927   3.847   6.769 -0.1860  2.1642  0.7936
    3MOL     H8  412   5.130   3.946   6.973  0.2091 -2.9950 -1.2931
    3MOL     H9  413   4.978   4.028   6.911 -0.7246  0.7782  0.3024
    3MOL    H10  414   5.102   4.035   6.692  0.3504  2.7612 -0.5459
    3MOL    H11  415   5.133   3.650   6.848 -0.3372 -0.7212 -1.3309
    3MOL    C12  416   5.267   4.093   6.788 -0.3132 -0.4866  0.5730
    3MOL    O13  417   5.331   4.085   6.889 -0.0786  0.2569 -0.2393
    3MOL    C14  418   5.334   4.157   6.660  0.2387  0.4010  0.0260
    3MOL    C15  419   5.350   4.309   6.672 -0.6366  0.1866  0.3511
    3MOL    N16  420   5.233   4.383   6.638 -0.0338 -0.4036  0.4056
    3MOL    H17  421   5.269   4.134   6.575 -1.0079  0.2115  1.0120
    3MOL    H18  422   5.432   4.115   6.638  0.5535  0.8550  0.5484
    3MOL    H19  423   5.383   4.339   6.772  0.4493 -0.0411  0.0680
    3MOL    H20  424   5.428   4.334   6.601 -1.4312 -0.6952 -0.8435
    3MOL    H21  425   5.172   4.399   6.717 -1.1852  1.8209 -0.8672
    3MOL    C22  426   5.218   4.453   6.526  0.4395 -0.2978 -0.4330
    3MOL    O23  427   5.298   4.446   6.424  0.2508 -0.3883 -0.1625
    3MOL    C24  428   5.102   4.557   6.516 -0.1075 -0.6705  0.6165
    3MOL    C25  429   5.046   4.566   6.368  0.2662 -0.3300  0.5405
    3MOL    N26  430   4.940   4.661   6.347 -0.1116 -0.2170  0.2337
    3MOL    H27  431   5.138   4.653   6.553  3.0566 -1.7753  0.5502
    3MOL    H28  432   5.014   4.532   6.575 -1.3965  0.8672 -0.6031
    3MOL    H29  433   5.130   4.597   6.305 -2.0782 -0.4255 -2.7598
    3MOL    H30  434   5.006   4.472   6.330 -1.4048  1.3640 -2.0719
    3MOL    H31  435   4.925   4.729   6.421  0.5496  1.0088 -0.7519
    3MOL    C32  436   4.863   4.663   6.234  0.0538  0.0966  0.7998
    3MOL    O33  437   4.849   4.563   6.160 -0.9554 -0.3165  0.5590
    3MOL    C34  438   4.778   4.792   6.210  0.0496  0.2513  0.0935
    3MOL    C35  439   4.635   4.758   6.238 -0.5723 -0.2573 -0.7236
    3MOL    N36  440   4.609   4.762   6.386  0.0548  0.1893  0.2707
    3MOL    H37  441   4.782   4.823   6.106  1.2231 -1.1550 -0.2987
    3MOL    H38  442   4.798   4.879   6.272 -0.7206  0.6333 -0.1903
    3MOL    H39  443   4.578   4.831   6.181  1.8367  1.9205 -0.4110
    3MOL    H40  444   4.614   4.654   6.211  1.5184 -0.6068 -1.1344
    3MOL    H41  445   4.678   4.797   6.451  1.0027 -0.4984 -0.3569
    3MOL    C42  446   4.495   4.708   6.435  0.3012 -0.6200  0.5092
    3MOL    O43  447   4.424   4.633   6.371 -0.1604 -0.2438  0.6993
    3MOL    C44  448   4.472   4.732   6.582  0.4802 -0.0192 -0.5561
    3MOL    C45  449   4.340   4.688   6.644 -0.3015 -0.5069  0.5792
    3MOL    N46  450   4.337   4.537   6.640 -0.5055 -0.6902 -0.3754
    3MOL    H47  451   4.548   4.675   6.635  0.0961  1.8894  2.1977
    3MOL    H48  452   4.475   4.838   6.610 -0.4879  0.9398 -3.9231
    3MOL    H49  453   4.314   4.729   6.742 -0.5576  0.4620  0.1156
    3MOL    H50  454   4.258   4.726   6.583  0.4409  0.2701  0.0532
    3MOL    H51  455   4.423   4.506   6.597  0.9137  1.1241  1.0477
    3MOL    C52  456   4.232   4.453   6.656 -0.0540 -0.0422  0.3654
    3MOL    O53  457   4.143   4.493   6.724  0.6525  0.5826  0.0011
    3MOL    C54  458   4.241   4.315   6.593 -0.2834  0.5037  0.0474
    3MOL    C55  459   4.218   4.196   6.683  0.5624 -0.9648  0.2912
    3MOL    N56  460   4.340   4.162   6.766  0.3136 -0.2225  1.2716
    3MOL    H57  461   4.151   4.320   6.531  0.6475 -1.7066 -1.5587
    3MOL    H58  462   4.327   4.305   6.526 -0.3042  1.4439 -0.1385
    3MOL    H59  463   4.188   4.115   6.617 -0.0904  1.5467 -2.5797
    3MOL    H60  464   4.137   4.217   6.754 -0.0314  0.3102 -0.7500
    3MOL    H61  465   4.347   4.196   6.861 -1.7299  1.4662  0.8636
    3MOL    C62  466   4.436   4.081   6.722 -0.8772  0.5874  0.0739
    3MOL    O63  467   4.440   4.017   6.613  0.5423 -0.7942 -0.2639
    3MOL    C64  468   4.547   4.056   6.831 -0.0772  0.1162  0.2571
    3MOL    C65  469   4.612   3.917   6.818  0.7922 -0.2450 -0.2586
    3MOL    N66  470   4.622   3.855   6.951  0.0524 -0.1725 -0.2002
    3MOL    H67  471   4.608   4.146   6.822  1.1903 -0.6379  1.2351
    3MOL    H68  472   4.506   4.073   6.931 -1.1238  2.7389 -0.5735
    3MOL    H69  473   4.570   3.846   6.747 -0.9318  0.4198  0.0592
    3MOL    H70  474   4.709   3.938   6.774  2.0228 -2.3523  1.3855
    3MOL    H71  475   4.714   3.845   6.993  0.2194  1.2652 -0.1935
    3MOL    C72  476   4.522   3.788   7.014 -0.0976 -0.6811  0.0862
    3MOL    O73  477   4.414   3.763   6.956 -0.0034 -0.5545  0.0293
    3MOL    C74  478   4.561   3.739   7.154  0.0391 -0.6255 -0.2571
    3MOL    C75  479   4.429   3.686   7.223 -0.0923 -0.0002  0.6854
    3MOL    N76  480   4.441   3.695   7.365  0.0440  0.6892  0.0951
    3MOL    H77  481   4.648   3.673   7.162  0.8907  0.4441 -0.6784
    3MOL    H78  482   4.582   3.832   7.206  1.5595 -0.4761 -1.1188
    3MOL    H79  483   4.354   3.763   7.203  0.0551  0.5141  2.0416
    3MOL    H80  484   4.398   3.589   7.186  0.8516  0.7094 -2.1236
    3MOL    H81  485   4.474   3.786   7.392  0.1665  1.6095 -3.0577
    3MOL    C82  486   4.405   3.596   7.451  0.3520 -0.3096 -0.5104
    3MOL    O83  487   4.360   3.488   7.412  0.6750 -0.0577  0.9903
    3MOL    C84  488   4.423   3.625   7.597  0.0365 -0.0519  0.4394
    3MOL    C85  489   4.329   3.551   7.697  0.3519  0.0494  0.0654
    3MOL    N86  490   4.369   3.419   7.744 -0.2341 -0.0079  0.2659
    3MOL    H87  491   4.530   3.611   7.611  0.7698  3.9377 -0.5170
    3MOL    H88  492   4.403   3.732   7.607  0.7034 -0.1123  2.8659
    3MOL    H89  493   4.339   3.605   0.011  1.5181 -0.4648  0.2481
    3MOL    H90  494   4.227   3.550   7.658  0.8719  1.1521 -1.3894
    3MOL    H91  495   4.466   3.393   7.730  0.5035  2.3019  0.9130
    3MOL    C92  496   4.286   3.328   0.010 -0.5659 -0.2315 -0.0493
    3MOL    O93  497   4.163   3.343   0.017  0.3883 -0.3331 -0.2100
    3MOL    C94  498   4.337   3.197   0.066 -0.0703  0.0429  0.0676
    3MOL    C95  499   4.335   3.080   7.748 -0.2836 -0.9405  0.1259
    3MOL    N96  500   4.421   3.102   7.632 -0.1306 -0.1382  0.1143
    3MOL    H97  501   4.438   3.203   0.105  0.2722 -0.3856 -0.7517
    3MOL    H98  502   4.271   3.164   0.146  1.0174 -3.1177 -0.2807
    3MOL    H99  503   4.359   2.985   0.014  0.3349  0.0346  1.8391
    3MOL   H100  504   4.231   3.071   7.715 -0.2175  1.5313 -0.8406
    3MOL   H101  505   4.488   3.178   7.627 -1.1692  0.8202  0.6058
    3MOL   C102  506   4.424   3.022   7.531  0.1636 -0.1103  0.7356
    3MOL   O103  507   4.374   2.911   7.527  0.1019  0.1950 -0.1037
    3MOL   C104  508   4.508   3.073   7.417  0.7765  0.3838  0.8330
    3MOL   C105  509   4.449   3.053   7.280  0.0197  0.2074 -0.1133
    3MOL   N106  510   4.551   3.074   7.169 -0.3537 -0.3594 -0.2956
    3MOL   H107  511   4.603   3.021   7.432  0.7537  0.4408  1.1838
    3MOL   H108  512   4.529   3.178   7.435  1.4425  0.9951 -3.1155
    3MOL   H109  513   4.415   2.950   7.265 -1.6080  0.6033  0.7934
    3MOL   H110  514   4.356   3.107   7.265  0.0869 -0.6032 -4.0302
    3MOL   H111  515   4.596   2.988   7.142  0.8948  0.1461  0.1508
    3MOL   C112  516   4.566   3.188   7.098 -0.1187  0.1682 -0.2206
    3MOL   O113  517   4.510   3.291   7.115 -0.1219 -0.1304 -0.3477
    3MOL   C114  518   4.677   3.191   6.991  0.2248 -0.1890  0.1493
    3MOL   C115  519   4.793   3.277   7.032  0.7260 -0.4903 -0.0103
    3MOL   N116  520   4.880   3.290   6.924  0.2079  0.6598 -0.2341
    3MOL   H117  521   4.641   3.234   6.897  0.7966  0.8768  0.4033
    3MOL   H118  522   4.705   3.088   6.971 -0.1895 -0.8413  2.7248
    3MOL   H119  523   4.750   3.375   7.055  2.9334  0.0835  1.9191
    3MOL   H120  524   4.839   3.236   7.122  1.2147 -0.4446 -0.2395
    3MOL   H121  525   4.928   3.205   6.899 -0.0899 -0.1491  1.8506
    3MOL   C122  526   4.907   3.393   6.848  0.3434  1.0035 -0.0773
    3MOL   O123  527   4.875   3.508   6.864  0.1160  0.1056 -0.4249
    3MOL   C124  528   5.003   3.357   6.736 -0.2388  0.4667 -0.3997
    3MOL   C125  529   4.929   3.324   6.607 -0.0591  0.1649  0.1043
    3MOL   N126  530   4.840   3.205   6.623  0.0114  0.2776  0.2747
    3MOL   H127  531   5.068   3.274   6.766 -0.8395  0.9955  2.5906
    3MOL   H128  532   5.071   3.441   6.721 -0.2755  0.6334  0.3511
    3MOL   H129  533   4.867   3.412   6.592  0.6935  0.2904 -2.5123
    3MOL   H130  534   4.995   3.306   6.522  0.4751  3.6267 -0.2601
    3MOL   H131  535   4.855   3.146   6.704 -2.8411 -1.6274 -0.5361
    3MOL   C132  536   4.745   3.159   6.539 -0.3042  0.3034 -0.0216
    3MOL   O133  537   4.718   3.215   6.432 -0.3145  0.5952  0.7132
    3MOL   C134  538   4.659   3.047   6.578  0.5041 -0.2141  0.5815
    3MOL   C135  539   4.507   3.057   6.550  0.3212 -0.5364 -0.2135
    3MOL   N136  540   4.428   3.066   6.675 -0.1189 -0.1891 -0.5498
    3MOL   H137  541   4.689   3.016   6.678 -1.4055  1.4207  1.7073
    3MOL   H138  542   4.700   2.971   6.511  3.4389  0.1983  1.8349
    3MOL   H139  543   4.480   3.141   6.486 -0.9884 -0.8094 -0.0334
    3MOL   H140  544   4.474   2.967   6.498  1.7843 -2.4764  2.0969
    3MOL   H141  545   4.383   3.154   6.696 -0.9717 -1.1756  1.8838
    3MOL   C142  546   4.400   2.968   6.756  0.1828  0.2058  0.3491
    3MOL   O143  547   4.442   2.851   6.732  0.1441  0.0627  0.3546
    3MOL   C144  548   4.313   3.006   6.869  0.1240  0.3487  0.2753
    3MOL   C145  549   4.304   2.900   6.987  0.5165  0.3541 -0.5598
    3MOL   N146  550   4.190   2.926   7.071 -0.2760 -0.1761  0.0741
    3MOL   H147  551   4.215   3.019   6.824 -0.5475 -1.4833  1.1633
    3MOL   H148  552   4.334   3.105   6.911 -0.7152  1.4211 -1.7818
    3MOL   H149  553   4.308   2.800   6.944  0.0707 -0.2338  0.7504
    3MOL   H150  554   4.388   2.894   7.055 -0.5458  0.2268  0.7612
    3MOL   H151  555   4.163   3.023   7.084  1.0916 -0.0446  2.0986
    3MOL   C152  556   4.135   2.835   7.156 -0.2310 -0.8305  0.6817
    3MOL   O153  557   4.172   2.721   7.170  0.2045 -0.5180  0.4031
    3MOL   C154  558   4.023   2.893   7.246 -0.1047 -0.0100 -0.0764
    3MOL   C155  559   4.066   2.962   7.380 -0.0474  0.1190 -1.0919
    3MOL   N156  560   4.115   2.863   7.475 -0.3047 -0.7949  0.2051
    3MOL   H157  561   3.948   2.819   7.269 -0.7816  1.3957  2.4775
    3MOL   H158  562   3.980   2.975   7.189 -0.3509 -1.4836 -2.0633
    3MOL   H159  563   4.143   3.038   7.364 -0.9641  1.2601 -0.1954
    3MOL   H160  564   3.983   3.010   7.433  0.3594 -1.0068  0.5940
    3MOL   H161  565   4.214   2.870   7.496  0.3689  0.4671 -2.9474
    3MOL   C162  566   4.050   2.772   7.547  0.4607  0.2091  0.3006
    3MOL   O163  567   3.931   2.758   7.537 -0.3696 -0.8332 -0.6864
    3MOL   C164  568   4.135   2.692   7.644  0.0243 -1.0539 -0.4549
    3MOL   C165  569   4.191   2.569   7.565 -0.1042  0.2781  0.0254
    3MOL   N166  570   4.270   2.581   7.437 -0.1324  0.2507 -0.2230
    3MOL   H167  571   4.069   2.652   7.721 -0.3401  0.3102 -0.0443
    3MOL   H168  572   4.207   2.760   7.688 -0.1298  0.5221 -2.5726
    3MOL   H169  573   4.253   2.508   7.631  0.7418 -0.2053 -1.2070
    3MOL   H170  574   4.102   2.511   7.541 -0.6123  1.8025 -1.9464
    3MOL   H171  575   4.217   2.601   7.354  0.6694 -0.4146 -0.8991
    3MOL   C172  576   4.402   2.561   7.433  0.2167  0.3401 -0.4675
    3MOL   O173  577   4.468   2.539   7.533  0.1756 -0.0274  0.0201
    3MOL   C174  578   4.456   2.562   7.290  0.2656  0.6706 -0.3195
    3MOL   C175  579   4.569   2.663   7.278  0.4516  0.2036 -0.2796
    3MOL   N176  580   4.622   2.657   7.148  0.5780 -0.1822 -0.3140
    3MOL   H177  581   4.382   2.594   7.217 -0.3258  1.4932  0.6213
    3MOL   H178  582   4.486   2.459   7.269 -0.8752  0.1201  0.6858
    3MOL   H179  583   4.538   2.763   7.310  0.1649 -0.8315  2.8025
    3MOL   H180  584   4.646   2.645   7.353  0.0602  0.1492  0.1134
    3MOL   H181  585   4.590   2.578   7.095  0.8041  0.2105 -1.0407
    3MOL   C182  586   4.684   2.757   7.083 -0.3101 -0.5813  0.3159
    3MOL   O183  587   4.719   2.857   7.140 -0.3854 -0.5794  0.5255
    3MOL   C184  588   4.727   2.739   6.943 -0.1761 -0.6588  0.1985
    3MOL   C185  589   4.640   2.642   6.863 -0.0349  0.3032  0.0111
    3MOL   N186  590   4.691   2.506   6.858 -0.0810  0.9848 -0.0133
    3MOL   H187  591   4.824   2.690   6.955  0.0605  0.5627  3.8817
    3MOL   H188  592   4.735   2.834   6.891  1.4303 -0.1434  1.3595
    3MOL   H189  593   4.535   2.646   6.890  0.4920  0.2654  2.1643
    3MOL   H190  594   4.631   2.668   6.758  2.2484  0.5973 -0.1476
    3MOL   H191  595   4.775   2.482   6.807  0.6003 -0.0891  1.5609
    3MOL   C192  596   4.619   2.399   6.908  0.0622 -0.2425  0.7076
    3MOL   O193  597   4.525   2.419   6.987 -0.3759  0.2353  0.2557
    3MOL   C194  598   4.681   2.259   6.888 -0.4694 -0.1958  0.3050
    3MOL   C195  599   4.593   2.140   6.937 -0.5115  0.0434 -0.3091
    3MOL   N196  600   4.582   2.118   7.081 -0.1287 -0.1735 -0.1323
    3MOL   H197  601   4.710   2.247   6.784  2.7379  0.6660  1.0555
    3MOL   H198  602   4.777   2.269   6.938  0.1344  0.8012 -1.0404
    3MOL   H199  603   4.490   2.149   6.902 -0.9239 -1.2951  0.5148
    3MOL   H200  604   4.643   2.055   6.890  2.0727  1.0354  0.5646
    3MOL   H201  605   4.677   2.122   7.113 -0.9950  2.3993  2.2908
    3MOL   H202  606   4.538   2.193   7.132 -0.5098 -0.5364  0.0799
    4MOL     C1  607   6.143   6.830   3.567 -0.2435  0.4396  0.0883
    4MOL     O2  608   6.217   6.900   3.633 -0.2544 -0.2721  0.1034
    4MOL     C3  609   6.001   6.861   3.555  0.0259  0.9778 -0.0898
    4MOL     C4  610   5.935   6.859   3.692  0.4220 -0.1073  0.7903
    4MOL     N5  611   5.906   6.729   3.753 -0.4809 -0.3745  0.1492
    4MOL     H6  612   5.954   6.807   3.473 -0.6846 -2.4073  2.4365
    4MOL     H7  613   5.990   6.962   3.515  0.2855  0.9804 -0.1588
    4MOL     H8  614   5.847   6.924   3.700 -0.5364 -1.2682 -0.1588
    4MOL     H9  615   6.003   6.906   3.762  2.5170 -0.4018 -1.0066
    4MOL    H10  616   5.931   6.734   3.851 -0.8668 -0.2955  0.2440
    4MOL    H11  617   6.184   6.744   3.515 -0.1212  0.4106  0.2354
    4MOL    C12  618   5.834   6.624   3.704 -0.6708 -0.5937  0.7617
    4MOL    O13  619   5.796   6.617   3.589 -0.1016  0.0106 -0.5352
    4MOL    C14  620   5.835   6.494   3.791  0.4318 -0.4432 -0.4125
    4MOL    C15  621   5.691   6.439   3.822 -0.6905  0.1123 -0.1825
    4MOL    N16  622   5.647   6.491   3.947  0.0746 -0.5032 -0.7651
    4MOL    H17  623   5.900   6.512   3.877  0.7907  0.5089 -0.8747
    4MOL    H18  624   5.890   6.427   3.725  0.5393  0.7986 -1.6038
    4MOL    H19  625   5.624   6.452   3.737  0.4230 -0.3402 -1.1456
    4MOL    H20  626   5.700   6.331   3.830  0.5782  0.1302 -1.2296
    4MOL    H21  627   5.700   6.458   4.026  1.7170 -0.2730 -1.7308
    4MOL    C22  628   5.553   6.586   3.953 -0.2647  0.7329 -0.0270
    4MOL    O23  629   5.490   6.623   3.850  0.5148  0.1341 -0.4513
    4MOL    C24  630   5.517   6.631   4.094  0.0744 -0.1331 -0.0774
    4MOL    C25  631   5.393   6.722   4.104  0.2104  0.2460  0.4591
    4MOL    N26  632   5.367   6.769   4.238  0.7760 -0.7098 -0.5122
    4MOL    H27  633   5.600   6.693   4.129  0.8992 -1.8661  1.1274
    4MOL    H28  634   5.498   6.544   4.158 -0.5557  0.5804  0.7075
    4MOL    H29  635   5.394   6.805   4.033 -0.3450 -0.8859 -0.9103
    4MOL    H30  636   5.303   6.663   4.085 -0.0431 -0.0730  2.5825
    4MOL    H31  637   5.442   6.792   4.301 -0.3747  1.0560  0.2724
    4MOL    C32  638   5.252   6.759   4.303 -0.5386  0.3151 -0.2847
    4MOL    O33  639   5.148   6.727   4.256 -0.1283 -0.1086 -0.5454
    4MOL    C34  640   5.261   6.812   4.446  0.7586  0.4163 -0.1924
    4MOL    C35  641   5.179   6.730   4.550 -0.0968 -0.2529 -0.0481
    4MOL    N36  642   5.036   6.749   4.533 -0.0229  1.2100 -0.6642
    4MOL    H37  643   5.212   6.910   4.437  0.4340  0.2660 -0.0521
    4MOL    H38  644   5.359   6.839   4.484  0.0330  2.0048  0.6211
    4MOL    H39  645   5.184   6.621   4.544 -1.9651 -0.2770 -2.2253
    4MOL    H40  646   5.214   6.739   4.653  0.9495 -2.6709 -0.1563
    4MOL    H41  647   4.992   6.704   4.453 -0.6612 -0.2731  0.4896
    4MOL    C42  648   4.961   6.821   4.612  0.1230  0.5663 -0.3011
    4MOL    O43  649   4.996   6.855   4.727 -0.4560 -0.3624  0.3028
    4MOL    C44  650   4.831   6.862   4.565  0.6802 -0.0796 -0.6363
    4MOL    C45  651   4.768   6.987   4.634  0.0803 -0.2630 -0.1508
    4MOL    N46  652   4.725   6.964   4.774 -0.3023  0.1820 -1.2735
    4MOL    H47  653   4.849   6.886   4.460  0.9324  0.9189 -0.3695
    4MOL    H48  654   4.770   6.771   4.565 -0.0321  0.3878 -1.7997
    4MOL    H49  655   4.842   7.067   4.636  0.2626 -0.3463 -2.6277
    4MOL    H50  656   4.698   7.041   4.572 -0.6193  0.4538  1.2343
    4MOL    H51  657   4.761   6.878   4.814 -0.9674  0.8936  0.9135
    4MOL    C52  658   4.638   7.038   4.842  0.8944 -0.2662 -0.1260
    4MOL    O53  659   4.605   7.151   4.809  0.0144  0.1109  0.0829
    4MOL    C54  660   4.582   6.970   4.962 -0.6546  0.1186  0.2698
    4MOL    C55  661   4.691   6.951   5.077  0.3152 -0.0670 -0.5871
    4MOL    N56  662   4.748   7.071   5.145 -0.0647 -0.1933  0.1586
    4MOL    H57  663   4.488   7.015   4.993  0.3005  1.8241  0.7517
    4MOL    H58  664   4.551   6.867   4.944  1.2941 -0.5210  0.3988
    4MOL    H59  665   4.776   6.891   5.042  0.1933 -0.6279  0.0720
    4MOL    H60  666   4.646   6.890   5.155 -1.5100 -0.0917 -1.6145
    4MOL    H61  667   4.844   7.055   5.172  0.0725 -0.1193 -0.2939
    4MOL    C62  668   4.684   7.182   5.179 -0.1509 -0.3336 -0.9486
    4MOL    O63  669   4.561   7.199   5.158 -0.8007 -0.3712 -0.9198
    4MOL    C64  670   4.762   7.302   5.238  0.1642  0.5191  0.1759
    4MOL    C65  671   4.708   7.338   5.383 -0.4844 -0.2406  0.1028
    4MOL    N66  672   4.733   7.240   5.480  0.0112  0.8790 -0.3780
    4MOL    H67  673   4.870   7.294   5.240  0.1006 -0.5874 -0.5575
    4MOL    H68  674   4.727   7.393   5.188 -0.0707 -0.4980 -1.5246
    4MOL    H69  675   4.747   7.436   5.411  0.1105 -0.5506  0.3793
    4MOL    H70  676   4.599   7.342   5.386 -0.5053 -0.8465  0.1141
    4MOL    H71  677   4.661   7.169   5.481  1.6949 -0.9070 -1.4579
    4MOL    C72  678   4.832   7.241   5.568  0.4913 -0.2647  0.6111
    4MOL    O73  679   4.917   7.327   5.565  0.1651 -0.1990 -0.1077
    4MOL    C74  680   4.819   7.142   5.682 -0.4576 -0.0394  0.2282
    4MOL    C75  681   4.932   7.141   5.782 -0.2469 -0.6545 -0.1198
    4MOL    N76  682   4.935   7.016   5.863  0.2605 -0.4123  0.3211
    4MOL    H77  683   4.725   7.158   5.734  0.2779 -1.8399  2.1592
    4MOL    H78  684   4.814   7.047   5.630 -1.9645  0.4877 -0.6312
    4MOL    H79  685   5.027   7.161   5.732 -0.1272  0.6717  0.6121
    4MOL    H80  686   4.924   7.220   5.856 -0.9806 -0.4185 -0.4419
    4MOL    H81  687   4.945   6.928   5.816  0.8101  0.6051 -1.4858
    4MOL    C82  688   4.901   7.005   5.988 -0.1219 -0.3496 -0.2185
    4MOL    O83  689   4.875   7.101   6.061  0.1083 -0.3909 -0.3885
    4MOL    C84  690   4.890   6.864   6.029 -0.0667 -0.0511  0.1564
    4MOL    C85  691   4.884   6.831   6.182 -0.1780 -0.6010 -1.2794
    4MOL    N86  692   4.808   6.921   6.270 -0.5626  0.1298 -0.3744
    4MOL    H87  693   4.791   6.834   5.995  0.4908  1.2224 -2.7090
    4MOL    H88  694   4.974   6.805   5.990 -1.0238 -1.2347 -0.1591
    4MOL    H89  695   4.843   6.731   6.198  0.8033 -0.8759 -0.3841
    4MOL    H90  696   4.987   6.831   6.216 -0.4807  1.3188 -0.3168
    4MOL    H91  697   4.865   6.996   6.307 -1.0192  0.9254 -1.2671
    4MOL    C92  698   4.681   6.907   6.292  0.2301  1.0032 -0.0622
    4MOL    O93  699   4.625   6.798   6.276 -0.1841 -0.2861 -0.0733
    4MOL    C94  700   4.602   7.030   6.350  0.6544  0.2389  0.0251
    4MOL    C95  701   4.515   7.091   6.242 -0.2415 -0.1436 -0.4460
    4MOL    N96  702   4.414   7.184   6.285 -0.1646  0.2059  0.6549
    4MOL    H97  703   4.539   6.975   6.420  0.7162  0.8184  0.5478
    4MOL    H98  704   4.675   7.098   6.395  0.4303 -0.0070  0.7808
    4MOL    H99  705   4.572   7.132   6.158 -1.1656 -0.5737 -1.2907
    4MOL   H100  706   4.463   7.004   6.201 -0.9538 -0.0393  0.2304
    4MOL   H101  707   4.425   7.282   6.261  0.7609  0.2440  1.2142
    4MOL   C102  708   4.302   7.147   6.354 -0.2099 -0.3535 -0.4221
    4MOL   O103  709   4.283   7.037   6.404  0.0784 -0.5683  0.2899
    4MOL   C104  710   4.189   7.254   6.361 -0.4937 -0.6559 -0.5728
    4MOL   C105  711   4.049   7.197   6.394 -0.4338 -0.1256  0.3719
    4MOL   N106  712   3.954   7.236   6.286 -0.1680  0.3420 -0.2407
    4MOL   H107  713   4.192   7.306   6.265  1.1005 -0.9719 -0.7196
    4MOL   H108  714   4.222   7.339   6.422 -0.8668 -0.9817  0.0922
    4MOL   H109  715   4.038   7.089   6.404  0.3845 -0.0919  1.6619
    4MOL   H110  716   4.015   7.244   6.487 -1.5523  1.5153 -0.8254
    4MOL   H111  717   3.964   7.190   6.197  1.7521  0.1047  0.0592
    4MOL   C112  718   3.876   7.339   6.294  0.7434 -0.3164  0.1178
    4MOL   O113  719   3.867   7.414   6.389  0.3674 -0.2337 -0.8700
    4MOL   C114  720   3.786   7.364   6.178 -0.4008 -0.6419  0.1206
    4MOL   C115  721   3.822   7.487   6.087  0.4598 -0.0951 -0.7272
    4MOL   N116  722   3.959   7.478   6.047  0.0836  0.2878  0.4959
    4MOL   H117  723   3.685   7.385   6.214 -0.7258  0.5206 -1.4017
    4MOL   H118  724   3.776   7.275   6.116 -0.8638 -0.9186  0.5922
    4MOL   H119  725   3.756   7.476   6.001 -1.1692  0.6227  0.4087
    4MOL   H120  726   3.805   7.582   6.138 -1.3078  0.2650 -1.9469
    4MOL   H121  727   4.005   7.389   6.048  0.6203  0.5712  1.1897
    4MOL   C122  728   4.033   7.573   5.998 -0.6841 -0.3975 -0.2068
    4MOL   O123  729   3.992   7.692   5.978  0.7299  0.5751 -0.1453
    4MOL   C124  730   4.182   7.547   5.990 -0.3412  0.3116  0.5874
    4MOL   C125  731   4.256   7.601   6.105  0.0945 -0.2321  0.7315
    4MOL   N126  732   4.408   7.588   6.087 -0.1427  0.4777 -0.2471
    4MOL   H127  733   4.206   7.609   5.904  0.1926 -1.3826 -0.4988
    4MOL   H128  734   4.195   7.442   5.964 -2.0957  0.4423 -0.9647
    4MOL   H129  735   4.212   7.701   6.112 -0.4290 -0.3060 -1.3231
    4MOL   H130  736   4.228   7.549   6.196 -1.5185  3.5356  2.5115
    4MOL   H131  737   4.457   7.676   6.088  0.4735  0.1451 -1.6269
    4MOL   C132  738   4.471   7.475   6.067  0.2945  0.2797 -0.1332
    4MOL   O133  739   4.418   7.368   6.056  0.5534 -0.7228  0.1046
    4MOL   C134  740   4.627   7.485   6.056  0.3937 -0.3028 -0.1961
    4MOL   C135  741   4.701   7.388   5.961 -0.0076 -0.9575  0.5974
    4MOL   N136  742   4.803   7.459   5.885  0.0650 -0.4723 -0.2908
    4MOL   H137  743   4.660   7.468   6.159 -1.1474 -0.9046  0.2200
    4MOL   H138  744   4.661   7.588   6.040 -1.1017  0.2879  0.3324
    4MOL   H139  745   4.753   7.309   6.014  0.0774 -2.3185 -1.4784
    4MOL   H140  746   4.634   7.346   5.886  0.8045  3.3989 -2.7918
    4MOL   H141  747   4.896   7.437   5.918 -0.7444 -0.5813  1.9563
    4MOL   C142  748   4.781   7.549   5.786 -0.6023  0.0365  0.5028
    4MOL   O143  749   4.671   7.565   5.729  0.3261 -0.2444 -0.0345
    4MOL   C144  750   4.896   7.634   5.728 -0.0790 -0.3836  0.6801
    4MOL   C145  751   4.887   7.673   5.576 -0.6108 -0.6633 -1.1519
    4MOL   N146  752   4.989   7.605   5.498  0.4213  0.3315  0.1138
    4MOL   H147  753   4.998   7.609   5.757  0.6906 -0.1496 -1.6862
    4MOL   H148  754   4.892   7.727   5.783  4.0032 -0.9343  2.0695
    4MOL   H149  755   4.785   7.663   5.540 -1.8117 -0.9429  2.1292
    4MOL   H150  756   4.902   0.001   5.580  0.1030 -0.7883 -0.3165
    4MOL   H151  757   5.005   7.508   5.521 -0.7973 -0.0241 -0.4882
    4MOL   C152  758   5.044   7.637   5.381  0.2912  0.0203  0.4454
    4MOL   O153  759   5.025   7.752   5.336 -0.1120 -0.0368  0.5028
    4MOL   C154  760   5.148   7.541   5.313  0.2141  0.1721  0.7117
    4MOL   C155  761   5.195   7.582   5.173  0.2114  0.1461 -0.2490
    4MOL   N156  762   5.267   7.474   5.096 -0.0195  0.4368 -0.8139
    4MOL   H157  763   5.100   7.444   5.300 -0.0374  0.1993  1.4150
    4MOL   H158  764   5.234   7.524   5.377  0.0107  0.5284  1.0737
    4MOL   H159  765   5.106   7.602   5.113  0.1284  0.3488 -0.0584
    4MOL   H160  766   5.264   7.665   5.184 -1.0720  1.1123  0.8091
    4MOL   H161  767   5.229   7.456   5.005 -1.7699  1.0725 -0.2238
    4MOL   C162  768   5.395   7.445   5.118  0.2848  0.0546  0.1666
    4MOL   O163  769   5.451   7.478   5.218  0.6494 -0.8229 -0.7197
    4MOL   C164  770   5.479   7.378   5.012 -0.1774 -0.3684  0.0525
    4MOL   C165  771   5.629   7.408   5.002 -0.0369  0.1787 -0.6319
    4MOL   N166  772   5.660   7.545   4.974  0.1704 -0.2044  0.1519
    4MOL   H167  773   5.436   7.385   4.912  0.1986 -0.1743 -0.0960
    4MOL   H168  774   5.473   7.270   5.024  1.1304 -0.1606  2.9335
    4MOL   H169  775   5.669   7.375   5.099 -0.5784  1.6250  0.0898
    4MOL   H170  776   5.670   7.342   4.926 -1.2714 -2.6113  1.0208
    4MOL   H171  777   5.587   7.614   4.984  0.4954  0.0599  0.7236
    4MOL   C172  778   5.783   7.584   4.932  0.0186 -0.7212  0.3053
    4MOL   O173  779   5.882   7.513   4.923  0.0690  0.7672 -0.8274
    4MOL   C174  780   5.791   7.732   4.897  0.2915  0.1594  0.4226
    4MOL   C175  781   5.879   0.033   4.991 -0.5011  0.1033 -0.3693
    4MOL   N176  782   6.018   0.044   4.938  0.4749 -0.7118 -0.0906
    4MOL   H177  783   5.694   0.002   4.904  1.2876  1.9096  2.3915
    4MOL   H178  784   5.818   7.737   4.792  0.6999  1.1075  0.5708
    4MOL   H179  785   5.845   0.137   4.991  2.8753  1.2708  0.1069
    4MOL   H180  786   5.884   7.777   5.094  1.8680  0.4286 -0.3351
    4MOL   H181  787   6.088   7.771   4.989  0.6051 -1.0107 -0.5716
    4MOL   C182  788   6.060   0.133   4.845 -0.9707  0.5232 -0.3716
    4MOL   O183  789   5.978   0.200   4.779  0.0049 -0.0706 -0.1461
    4MOL   C184  790   6.212   0.146   4.817 -0.2486  0.3799  0.1832
    4MOL   C185  791   6.259   0.296   4.810 -0.2390 -0.0128 -0.3427
    4MOL   N186  792   6.388   0.301   4.739 -0.3782 -0.2712  0.4235
    4MOL   H187  793   6.221   0.102   4.718 -0.8518  1.1912 -0.2268
    4MOL   H188  794   6.272   0.092   4.891 -0.1588 -3.3054 -2.4596
    4MOL   H189  795   6.189   0.356   4.751 -1.1714  1.3225  2.0578
    4MOL   H190  796   6.265   0.339   4.910  0.5106 -0.2643 -0.2842
    4MOL   H191  797   6.441   0.218   4.714  0.8031  0.6981 -0.3600
    4MOL   C192  798   6.441   0.419   4.698 -0.6828  0.3834  0.3666
    4MOL   O193  799   6.387   0.524   4.722 -0.0573  0.1641  0.1720
    4MOL   C194  800   6.577   0.412   4.622  0.0772  0.6535 -0.4883
    4MOL   C195  801   6.567   0.411   4.466 -0.6869  0.3076 -0.4206
    4MOL   N196  802   6.477   0.309   4.412  0.8321 -0.8782 -0.5604
    4MOL   H197  803   6.652   0.479   4.663 -1.1019  2.0182 -0.5231
    4MOL   H198  804   6.617   0.315   4.652  3.3852  2.7978  2.3242
    4MOL   H199  805   6.544   0.507   4.420  1.0761  1.6665  1.4777
    4MOL   H200  806   6.665   0.391   4.422 -0.9876  0.1844 -1.0518
    4MOL   H201  807   6.502   0.213   4.435  0.6691 -0.3329  2.0220
    4MOL   H202  808   6.385   0.321   4.451  1.6235 -0.8538  1.3515
    5MOL     C1  809   3.782   2.373   7.505 -0.2705  0.2610  0.0038
    5MOL     O2  810   3.692   2.298   7.532 -0.3370  0.0686 -0.0563
    5MOL     C3  811   3.869   2.342   7.384  0.2019  0.3632 -0.4546
    5MOL     C4  812   3.791   2.313   7.253  0.4211  0.5157  0.1742
    5MOL     N5  813   3.859   2.354   7.127 -0.2616 -0.3045 -0.9704
    5MOL     H6  814   3.928   2.253   7.405 -0.5401  0.0174  0.2161
    5MOL     H7  815   3.938   2.422   7.359 -0.3008  0.9846  0.1285
    5MOL     H8  816   3.698   2.368   7.269 -1.1427 -1.2917 -2.2709
    5MOL     H9  817   3.761   2.209   7.238  2.6599 -0.2900  1.1710
    5MOL    H10  818   3.945   2.404   7.142 -0.9577  0.1756  1.8200
    5MOL    H11  819   3.795   2.463   7.567  0.1348  2.9044 -3.7463
    5MOL    C12  820   3.826   2.331   7.001  0.2439  0.6771  0.3450
    5MOL    O13  821   3.895   2.371   6.908  0.4518  0.0864 -0.4218
    5MOL    C14  822   3.696   2.252   6.974 -0.1699 -0.3473 -0.1376
    5MOL    C15  823   3.667   2.214   6.830 -0.3275  0.5361 -0.3395
    5MOL    N16  824   3.617   2.334   6.758 -0.1448 -0.6306 -0.1862
    5MOL    H17  825   3.618   2.319   7.011 -1.2159 -1.0245 -1.0792
    5MOL    H18  826   3.708   2.161   7.033 -1.6640 -1.4141 -1.4484
    5MOL    H19  827   3.760   2.177   6.788 -0.3195  0.1067  0.0459
    5MOL    H20  828   3.591   2.135   6.834 -0.9617  1.1209 -0.8925
    5MOL    H21  829   3.655   2.426   6.770  0.2708 -1.0434  2.0471
    5MOL    C22  830   3.512   2.328   6.679  0.7902 -0.3999  0.2949
    5MOL    O23  831   3.458   2.222   6.645  0.0416 -0.7174 -0.3486
    5MOL    C24  832   3.436   2.454   6.634 -0.5837  0.0216 -0.3146
    5MOL    C25  833   3.405   2.477   6.485  0.2267 -0.1407 -0.4423
    5MOL    N26  834   3.524   2.514   6.407  0.4603 -0.2709  0.1712
    5MOL    H27  835   3.495   2.536   6.677  1.2270 -1.6918  0.5824
    5MOL    H28  836   3.340   2.454   6.684  0.1038  1.2490  1.0471
    5MOL    H29  837   3.340   2.402   6.439  0.4173  1.6076 -3.7292
    5MOL    H30  838   3.346   2.569   6.489 -0.6647 -0.7815  1.5904
    5MOL    H31  839   3.547   2.453   6.330  0.3665  0.8334 -0.7450
    5MOL    C32  840   3.577   2.639   6.416  0.3825  0.1509 -0.3502
    5MOL    O33  841   3.546   2.715   6.508 -0.0926 -0.0249 -0.2363
    5MOL    C34  842   3.676   2.683   6.307  0.2894  0.2910 -0.7130
    5MOL    C35  843   3.794   2.760   6.365  0.0798 -0.0119  0.2281
    5MOL    N36  844   3.891   2.794   6.268  0.3756  0.2969  0.2705
    5MOL    H37  845   3.616   2.742   6.237  0.4436  1.9267  0.4944
    5MOL    H38  846   3.713   2.598   6.250 -1.9834 -1.1773 -0.0699
    5MOL    H39  847   3.761   2.854   6.409 -1.2555  0.0815 -0.9117
    5MOL    H40  848   3.839   2.693   6.438 -0.4817 -0.1457  0.4500
    5MOL    H41  849   3.937   2.718   6.220  1.9606  1.3302  0.1019
    5MOL    C42  850   3.929   2.920   6.233 -0.3825  0.5813  0.0615
    5MOL    O43  851   3.875   3.021   6.273  0.0994  0.0638  0.0548
    5MOL    C44  852   4.031   2.925   6.119  0.4693  0.0219  0.5027
    5MOL    C45  853   4.125   3.049   6.110 -0.5790 -0.4127  0.0327
    5MOL    N46  854   4.066   3.178   6.142 -0.1525  0.2437  0.0950
    5MOL    H47  855   4.095   2.838   6.131 -0.9158 -1.0019  0.6255
    5MOL    H48  856   3.978   2.918   6.024 -0.0798 -3.6153  0.9979
    5MOL    H49  857   4.209   3.024   6.174 -0.9301 -1.4633  0.0865
    5MOL    H50  858   4.175   3.050   6.013  1.0813 -1.1932  0.8547
    5MOL    H51  859   4.060   3.204   6.239  0.7670  0.5434  0.0829
    5MOL    C52  860   4.008   3.257   6.048 -0.2912  0.1681  0.0324
    5MOL    O53  861   4.014   3.237   5.929 -0.1731 -0.2034  0.0453
    5MOL    C54  862   3.927   3.369   6.113 -0.4022 -0.5106 -0.7401
    5MOL    C55  863   3.774   3.354   6.091  0.9053  0.0443  0.2332
    5MOL    N56  864   3.732   3.261   6.192 -0.1997  0.0275  0.4541
    5MOL    H57  865   3.949   3.369   6.220 -0.5423  1.3363 -0.6939
    5MOL    H58  866   3.973   3.460   6.073 -0.0826 -0.9115 -1.2835
    5MOL    H59  867   3.755   3.324   5.988 -0.7278 -3.9511  1.6091
    5MOL    H60  868   3.723   3.450   6.096 -1.1383 -1.0412  0.5577
    5MOL    H61  869   3.802   3.214   6.248 -0.6699  2.0131  2.7874
    5MOL    C62  870   3.610   3.231   6.232 -0.4355 -0.1409  0.1758
    5MOL    O63  871   3.512   3.268   6.167  0.9246  0.0233 -0.0077
    5MOL    C64  872   3.595   3.151   6.364  0.1174 -0.1313 -0.1255
    5MOL    C65  873   3.540   3.012   6.348  0.1592 -0.0490  0.5875
    5MOL    N66  874   3.397   2.994   6.364  0.4328  0.1515  0.6588
    5MOL    H67  875   3.695   3.145   6.405  1.2992  1.3492 -2.6477
    5MOL    H68  876   3.533   3.202   6.437  0.9803  0.1850  0.3908
    5MOL    H69  877   3.583   2.973   6.256 -1.3789 -1.1714  0.3129
    5MOL    H70  878   3.579   2.947   6.426  1.7856 -2.2421 -1.9698
    5MOL    H71  879   3.360   3.016   6.456  0.7049 -2.0366  1.3368
    5MOL    C72  880   3.305   2.971   6.272  0.0853  0.3367 -0.3473
    5MOL    O73  881   3.180   2.976   6.299  0.2925 -0.6790 -0.3166
    5MOL    C74  882   3.348   2.949   6.124  0.0112 -0.2535 -0.1449
    5MOL    C75  883   3.262   2.847   6.039 -0.2677  0.1832  0.1063
    5MOL    N76  884   3.131   2.905   6.011  0.9895 -0.6473  0.1586
    5MOL    H77  885   3.360   3.045   6.074  0.4452  0.9040  2.1331
    5MOL    H78  886   3.447   2.903   6.132  0.6190  0.6464 -2.1004
    5MOL    H79  887   3.301   2.801   5.949 -0.3004  0.5277 -0.0859
    5MOL    H80  888   3.231   2.769   6.109  0.2061  0.4599  0.6312
    5MOL    H81  889   3.115   3.000   6.042 -0.9172 -1.1301  0.7617
    5MOL    C82  890   3.023   2.853   5.959  0.6337  0.1457  0.5439
    5MOL    O83  891   3.031   2.741   5.910 -0.1845  0.3722 -0.1598
    5MOL    C84  892   2.892   2.926   5.972  0.2954 -0.2185 -0.4252
    5MOL    C85  893   2.868   3.018   5.852 -0.3482  0.0380 -0.5584
    5MOL    N86  894   2.787   2.942   5.757 -0.1290  0.2980 -0.2861
    5MOL    H87  895   2.807   2.862   5.991  0.6548 -0.5264  0.1754
    5MOL    H88  896   2.899   2.992   6.059 -1.5860 -1.6349  0.8364
    5MOL    H89  897   2.803   3.104   5.870 -3.3760 -2.2567 -0.1026
    5MOL    H90  898   2.963   3.047   5.806  0.6846 -0.6796  1.0642
    5MOL    H91  899   2.823   2.849   5.747 -1.1355 -0.2509  1.0723
    5MOL    C92  900   2.666   2.974   5.705  0.2042  0.1404  0.1975
    5MOL    O93  901   2.607   3.082   5.706 -0.4873 -0.1856 -0.2260
    5MOL    C94  902   2.601   2.854   5.631  0.2247 -0.4555 -0.1826
    5MOL    C95  903   2.533   2.734   5.715  0.3986 -0.2160  0.5071
    5MOL    N96  904   2.388   2.746   5.701  0.0397  0.4092  0.1180
    5MOL    H97  905   2.515   2.898   5.582  0.7769  1.5386  0.5900
    5MOL    H98  906   2.681   2.820   5.565  1.9366 -0.1627  1.6612
    5MOL    H99  907   2.562   2.637   5.677 -2.0365 -0.0660 -1.8523
    5MOL   H100  908   2.558   2.737   5.821  1.5226  0.7728  0.2339
    5MOL   H101  909   2.355   2.828   5.653 -4.2957 -0.3330  1.5798
    5MOL   C102  910   2.296   2.664   5.753 -0.0936 -0.3694  0.8021
    5MOL   O103  911   2.178   2.698   5.733 -0.2260  0.5559  0.1223
    5MOL   C104  912   2.327   2.530   5.818 -0.8037  0.1146  0.5610
    5MOL   C105  913   2.215   2.456   5.886  0.6115  0.5532 -0.3059
    5MOL   N106  914   2.125   2.390   5.796  0.4696 -0.1632 -0.1139
    5MOL   H107  915   2.402   2.546   5.895 -0.9814  0.1843  0.7179
    5MOL   H108  916   2.366   2.461   5.742  0.4382  0.9917  0.3802
    5MOL   H109  917   2.266   2.376   5.940 -2.4678 -0.3717  1.3913
    5MOL   H110  918   2.169   2.506   5.971  1.0278  0.3488  0.0370
    5MOL   H111  919   2.090   2.437   5.714  0.2265  0.3975  0.3008
    5MOL   C112  920   2.061   2.282   5.834 -0.3984  0.1946  0.0131
    5MOL   O113  921   2.104   2.207   5.924  0.0683  0.0085  0.1681
    5MOL   C114  922   1.931   2.245   5.768 -0.0621 -0.1292  0.4421
    5MOL   C115  923   1.933   2.135   5.661 -0.6091 -0.4711 -0.3114
    5MOL   N116  924   1.933   2.000   5.729  0.1707 -0.4204 -0.1051
    5MOL   H117  925   1.899   2.340   5.724 -2.8016 -1.3235 -0.2571
    5MOL   H118  926   1.858   2.228   5.847 -0.4850 -1.5197 -0.2245
    5MOL   H119  927   1.853   2.157   5.590  0.3269  0.9950 -0.9360
    5MOL   H120  928   2.020   2.157   5.599 -0.0315  2.1004  1.3128
    5MOL   H121  929   1.956   1.999   5.827 -0.1156 -0.3995 -0.0370
    5MOL   C122  930   1.899   1.883   5.671 -0.4280 -0.1832 -0.1995
    5MOL   O123  931   1.907   1.779   5.734  0.0574  0.9997  0.0894
    5MOL   C124  932   1.873   1.876   5.524  0.1502 -0.1555 -0.4902
    5MOL   C125  933   1.996   1.900   5.434 -0.5261  0.0044 -0.3636
    5MOL   N126  934   1.968   1.869   5.297  0.6198  0.3099 -0.7652
    5MOL   H127  935   1.795   1.952   5.515  0.9073  0.6265 -0.4624
    5MOL   H128  936   1.819   1.784   5.502 -1.4119  1.0568 -1.8100
    5MOL   H129  937   2.031   2.002   5.448 -1.2730  0.4252 -1.5118
    5MOL   H130  938   2.078   1.842   5.476 -0.1239  0.8269  0.0051
    5MOL   H131  939   1.959   1.771   5.277 -0.3827  0.3122 -0.3897
    5MOL   C132  940   1.966   1.959   5.201 -0.0720  0.8426 -0.1017
    5MOL   O133  941   1.985   2.077   5.222 -0.1821 -0.2858 -0.7976
    5MOL   C134  942   1.953   1.903   5.055  0.3118  0.3753  0.1524
    5MOL   C135  943   1.922   2.020   4.958  0.0013  0.3895 -0.3193
    5MOL   N136  944   2.042   2.074   4.880  0.4608  0.3751 -0.3164
    5MOL   H137  945   1.865   1.840   5.066  0.7590 -0.2885 -0.0500
    5MOL   H138  946   2.036   1.837   5.028  1.8034  2.4140 -0.3326
    5MOL   H139  947   1.851   1.998   4.878 -1.4049 -1.4950  1.3811
    5MOL   H140  948   1.858   2.093   5.008 -1.6574 -1.1640 -0.0982
    5MOL   H141  949   2.133   2.033   4.896 -0.6242 -1.6570  0.7418
    5MOL   C142  950   2.037   2.165   4.780 -0.5804  0.7385 -0.1361
    5MOL   O143  951   1.930   2.216   4.749  0.3823  0.3401 -0.4066
    5MOL   C144  952   2.167   2.186   4.700 -0.6533 -0.2671 -0.5598
    5MOL   C145  953   2.189   2.326   4.639 -0.0082 -0.9170  0.5384
    5MOL   N146  954   2.245   2.428   4.733  0.5387  0.3318 -0.8663
    5MOL   H147  955   2.176   2.110   4.623  0.2554 -0.3312 -0.3953
    5MOL   H148  956   2.257   2.169   4.760  0.0089  1.8550 -0.8845
    5MOL   H149  957   2.256   2.322   4.553  0.2895  2.6830  0.5420
    5MOL   H150  958   2.098   2.352   4.584 -0.4845 -3.3877  0.0892
    5MOL   H151  959   2.186   2.507   4.754 -2.2623 -1.3853 -2.0231
    5MOL   C152  960   2.374   2.438   4.766 -0.2431  0.4299  0.0672
    5MOL   O153  961   2.459   2.350   4.738 -0.1237  0.3375  0.8126
    5MOL   C154  962   2.409   2.556   4.856 -0.0550  0.4359  0.6757
    5MOL   C155  963   2.551   2.587   4.907  0.0390 -0.2750  0.8319
    5MOL   N156  964   2.598   2.499   5.011 -0.0228  0.6065  0.1767
    5MOL   H157  965   2.341   2.571   4.939 -2.1050 -2.6098 -0.3824
    5MOL   H158  966   2.378   2.644   4.799  1.9372  0.5554 -0.2868
    5MOL   H159  967   2.618   2.571   4.822 -0.0107 -1.2424  0.9640
    5MOL   H160  968   2.548   2.688   4.946  0.2441 -0.1544  0.5387
    5MOL   H161  969   2.533   2.431   5.047 -0.5372  0.4345 -1.0688
    5MOL   C162  970   2.720   2.506   5.068  0.2844  0.0185  0.7300
    5MOL   O163  971   2.806   2.578   5.024 -0.4138 -0.3801 -0.0516
    5MOL   C164  972   2.762   2.411   5.181  0.1541  0.1993  0.3217
    5MOL   C165  973   2.758   2.477   5.319 -0.2457  0.9480  0.5905
    5MOL   N166  974   2.638   2.556   5.354 -0.5305  0.2745  0.5244
    5MOL   H167  975   2.857   2.364   5.155  0.0309  0.1041  0.0370
    5MOL   H168  976   2.683   2.336   5.177  0.8857 -0.6366  1.3465
    5MOL   H169  977   2.780   2.412   5.404  0.9663  1.6194  0.8032
    5MOL   H170  978   2.845   2.544   5.322  1.5227 -1.3547  2.6760
    5MOL   H171  979   2.630   2.647   5.310 -0.6959 -0.9161 -2.0185
    5MOL   C172  980   2.536   2.505   5.409  0.9447  1.2885 -0.1154
    5MOL   O173  981   2.543   2.394   5.464 -0.2373  0.1542 -0.0699
    5MOL   C174  982   2.402   2.575   5.378 -0.0772 -0.1898 -0.3429
    5MOL   C175  983   2.284   2.497   5.430 -0.7247  0.6562 -0.3575
    5MOL   N176  984   2.169   2.580   5.411 -0.5073  0.3909  0.7445
    5MOL   H177  985   2.399   2.584   5.270  0.5086 -2.3449 -0.5521
    5MOL   H178  986   2.404   2.677   5.418 -1.3278 -1.0507  2.0220
    5MOL   H179  987   2.261   2.402   5.383  1.5910  0.9015 -2.0701
    5MOL   H180  988   2.305   2.490   5.537 -1.2915 -0.2729 -0.3008
    5MOL   H181  989   2.188   2.670   5.369 -0.0508  0.5844  1.3668
    5MOL   C182  990   2.051   2.553   5.466  0.1253 -0.0151 -0.3216
    5MOL   O183  991   2.041   2.473   5.557  0.4243 -0.1650 -0.1020
    5MOL   C184  992   1.925   2.628   5.424  0.3682  0.1411 -0.2318
    5MOL   C185  993   1.853   2.699   5.533  0.5253 -0.2460 -0.2891
    5MOL   N186  994   1.923   2.822   5.573  0.5165  0.0104 -0.4189
    5MOL   H187  995   1.853   2.558   5.382  1.2196 -1.3055  0.6816
    5MOL   H188  996   1.946   2.688   5.336 -1.3831  1.1120 -0.0208
    5MOL   H189  997   1.750   2.725   5.509  0.3532  1.0413  1.7279
    5MOL   H190  998   1.835   2.633   5.618 -1.0156 -0.6734 -0.9389
    5MOL   H191  999   1.997   2.803   5.638  0.4821  0.3810 -0.2666
    5MOL   C192 1000   1.917   2.941   5.512 -0.2097  0.2794  0.6035
    5MOL   O193 1001   1.839   2.969   5.425 -0.6792 -0.3269  0.3981
    5MOL   C194 1002   2.013   3.053   5.558 -0.2212  0.3616  0.0054
    5MOL   C195 1003   2.137   3.071   5.470 -0.4317  0.1140 -0.7302
    5MOL   N196 1004   2.234   2.960   5.482 -0.5221  0.0202 -0.2663
    5MOL   H197 1005   1.954   3.141   5.583 -0.2454  0.1239  0.8286
    5MOL   H198 1006   2.042   3.035   5.662 -2.2313 -2.4628  0.1366
    5MOL   H199 1007   2.111   3.060   5.365 -0.3485 -1.3180 -0.6045
    5MOL   H200 1008   2.181   3.169   5.491  2.5001 -1.5098  0.9602
    5MOL   H201 1009   2.185   2.871   5.481 -1.1120  0.3497 -0.6989
    5MOL   H202 1010   2.301   2.962   5.407  0.4460 -3.0477  0.4231
    6MOL     C1 1011   2.476   2.432   0.530  0.5841  0.0358 -0.0560
    6MOL     O2 1012   2.376   2.491   0.567 -0.1368  0.2262  1.0332
    6MOL     C3 1013   2.474   2.278   0.513  0.1251 -0.3509  0.1928
    6MOL     C4 1014   2.457   2.198   0.640 -0.0930 -0.1063  0.8600
    6MOL     N5 1015   2.443   2.050   0.604 -0.2590 -0.3930  0.0934
    6MOL     H6 1016   2.570   2.247   0.473 -0.3152 -0.7108 -0.5764
    6MOL     H7 1017   2.395   2.271   0.438 -0.7879  1.3620  0.9614
    6MOL     H8 1018   2.369   2.237   0.690 -0.2365  1.3320 -0.4810
    6MOL     H9 1019   2.549   2.205   0.698 -0.1883  0.7611  0.9062
    6MOL    H10 1020   2.526   1.995   0.623  1.4698  2.3769  0.9391
    6MOL    H11 1021   2.571   2.481   0.513  0.5047  0.9014  1.8193
    6MOL    C12 1022   2.334   1.993   0.559  0.4146  0.5038 -0.3179
    6MOL    O13 1023   2.233   2.053   0.527  0.5027  0.4438  0.1172
    6MOL    C14 1024   2.350   1.838   0.538 -0.4326  1.2894  0.0191
    6MOL    C15 1025   2.234   1.776   0.456  0.0347  0.3689 -0.0873
    6MOL    N16 1026   2.262   1.640   0.428  0.2831  0.7396 -0.2162
    6MOL    H17 1027   2.345   1.789   0.635 -1.3444 -1.5933 -1.4105
    6MOL    H18 1028   2.440   1.809   0.484 -1.6925  0.4495 -1.7146
    6MOL    H19 1029   2.138   1.796   0.503  1.6884  2.1260  2.7376
    6MOL    H20 1030   2.228   1.826   0.360  0.2000  1.1845  0.3185
    6MOL    H21 1031   2.316   1.630   0.344  2.0989  2.6488  0.6656
    6MOL    C22 1032   2.208   1.532   0.487 -0.5246  0.3324  0.3675
    6MOL    O23 1033   2.111   1.546   0.559  0.0492  0.2214  0.2050
    6MOL    C24 1034   2.274   1.398   0.464 -0.8126  0.1515  0.1731
    6MOL    C25 1035   2.215   1.280   0.543 -0.3590  0.0154 -0.1360
    6MOL    N26 1036   2.087   1.233   0.487 -0.9535 -0.3375 -0.1314
    6MOL    H27 1037   2.382   1.391   0.480 -0.7061  0.4045 -0.4201
    6MOL    H28 1038   2.262   1.378   0.358  3.0364 -2.0781  0.0693
    6MOL    H29 1039   2.290   1.201   0.543 -0.6078 -0.2443  1.2627
    6MOL    H30 1040   2.193   1.308   0.647  0.5744  1.3222 -0.2887
    6MOL    H31 1041   2.057   1.282   0.405 -2.1367 -1.6261 -0.4958
    6MOL    C32 1042   2.019   1.125   0.530 -0.3272  0.5437 -0.2298
    6MOL    O33 1043   2.048   1.075   0.634 -0.4937 -0.2897 -0.4463
    6MOL    C34 1044   1.919   1.053   0.441  0.3665 -0.0542 -0.2227
    6MOL    C35 1045   1.886   0.904   0.472 -0.1663  0.9556  0.1609
    6MOL    N36 1046   1.862   0.882   0.612  0.1462 -0.3925 -0.6241
    6MOL    H37 1047   1.944   1.080   0.338 -0.9565  0.0577 -0.5214
    6MOL    H38 1048   1.827   1.108   0.456 -0.8902 -1.6848 -1.6344
    6MOL    H39 1049   1.816   0.860   0.401  0.1011  0.0006  0.4886
    6MOL    H40 1050   1.978   0.849   0.456 -0.7030 -0.1397  0.7496
    6MOL    H41 1051   1.918   0.952   0.658  0.1161 -0.6123 -0.2455
    6MOL    C42 1052   1.820   0.776   0.681 -0.2627  0.6740 -0.4707
    6MOL    O43 1053   1.782   0.676   0.628 -0.0266 -0.0104  0.1843
    6MOL    C44 1054   1.806   0.794   0.833  1.0054 -0.3710 -0.2803
    6MOL    C45 1055   1.654   0.797   0.881  0.4322 -0.4797  0.1592
    6MOL    N46 1056   1.624   0.904   0.971 -0.1792 -0.0217  0.2388
    6MOL    H47 1057   1.871   0.726   0.887  0.5928  1.1101  2.1717
    6MOL    H48 1058   1.854   0.888   0.859 -0.4673  0.9870 -2.2685
    6MOL    H49 1059   1.586   0.820   0.799  0.7668 -1.1651 -0.3217
    6MOL    H50 1060   1.622   0.704   0.929  1.9093 -1.2684 -0.3360
    6MOL    H51 1061   1.556   0.973   0.943 -1.9442 -1.4473  0.9373
    6MOL    C52 1062   1.683   0.927   1.090  0.6275  0.1335 -0.3908
    6MOL    O53 1063   1.775   0.864   1.140 -0.1078 -0.0659  0.1499
    6MOL    C54 1064   1.616   1.038   1.165  0.3693  0.5368  0.2303
    6MOL    C55 1065   1.712   1.107   1.270 -0.1474  0.0581 -0.0482
    6MOL    N56 1066   1.645   1.170   1.378  0.3498 -0.8188 -0.1447
    6MOL    H57 1067   1.571   1.104   1.091  0.5762  1.6119  1.0601
    6MOL    H58 1068   1.524   1.004   1.213 -0.9939 -0.4937 -2.9782
    6MOL    H59 1069   1.769   1.179   1.211  1.9296 -1.2271  0.3486
    6MOL    H60 1070   1.784   1.038   1.313 -1.1710 -1.1248 -0.2142
    6MOL    H61 1071   1.623   1.269   1.374 -0.7478 -1.0777 -0.7281
    6MOL    C62 1072   1.598   1.112   1.491 -1.2396  0.7805  0.0065
    6MOL    O63 1073   1.640   1.003   1.525 -0.2268 -0.0559 -0.2448
    6MOL    C64 1074   1.511   1.197   1.588  0.1851 -0.3801 -0.3934
    6MOL    C65 1075   1.459   1.121   1.711  0.0110  0.1560  0.0123
    6MOL    N66 1076   1.353   1.024   1.685 -0.2758 -0.8183  0.3166
    6MOL    H67 1077   1.574   1.275   1.630 -1.9807  0.4926  1.3315
    6MOL    H68 1078   1.428   1.249   1.541  2.5629  1.7538 -2.3349
    6MOL    H69 1079   1.537   1.068   1.766  0.5367 -1.4102 -2.1807
    6MOL    H70 1080   1.417   1.199   1.775 -0.7075  1.5089 -2.0643
    6MOL    H71 1081   1.341   0.984   1.593  1.6044 -1.5491  0.3667
    6MOL    C72 1082   1.277   0.984   1.785 -0.2931  0.3408  0.2529
    6MOL    O73 1083   1.285   1.034   1.899 -0.5543 -0.1649 -0.6926
    6MOL    C74 1084   1.179   0.877   1.753 -0.8498 -0.1940  1.1507
    6MOL    C75 1085   1.179   0.758   1.837 -0.0873 -0.6124  0.4105
    6MOL    N76 1086   1.274   0.657   1.788  0.3249 -0.6939 -0.1034
    6MOL    H77 1087   1.077   0.914   1.762 -1.0078  0.2583 -1.7833
    6MOL    H78 1088   1.187   0.860   1.646  0.1609 -0.1336  1.2159
    6MOL    H79 1089   1.198   0.776   1.943 -2.8154  1.1314  0.6562
    6MOL    H80 1090   1.081   0.710   1.846 -1.3175  1.5108 -1.4161
    6MOL    H81 1091   1.245   0.609   1.704  0.7445  0.0565 -0.6882
    6MOL    C82 1092   1.385   0.624   1.847 -0.8656  0.5539 -0.6865
    6MOL    O83 1093   1.422   0.675   1.952  0.3608  0.2420 -0.1072
    6MOL    C84 1094   1.481   0.536   1.769 -0.3333 -0.4155 -0.4791
    6MOL    C85 1095   1.547   0.421   1.848 -0.0244  0.9816  0.2614
    6MOL    N86 1096   1.468   0.297   1.869 -0.4314 -0.4860  0.0036
    6MOL    H87 1097   1.431   0.488   1.685 -3.7683  1.6646  0.3097
    6MOL    H88 1098   1.558   0.600   1.726 -0.5482 -0.3664 -0.7887
    6MOL    H89 1099   1.626   0.365   1.797 -1.4352  0.9591 -1.9722
    6MOL    H90 1100   1.602   0.459   1.934 -0.3964  1.1767  0.4147
    6MOL    H91 1101   1.421   0.255   1.790  0.1068  1.5810 -1.4381
    6MOL    C92 1102   1.469   0.216   1.976  0.1073 -0.0473  0.4748
    6MOL    O93 1103   1.521   0.250   2.080  0.2356 -0.5921 -0.0078
    6MOL    C94 1104   1.386   0.088   1.975  0.1510 -0.3732  0.4605
    6MOL    C95 1105   1.437   7.746   2.061 -0.3914 -0.0347 -0.5604
    6MOL    N96 1106   1.561   7.687   2.013 -0.1541 -0.0757  0.0242
    6MOL    H97 1107   1.282   0.103   2.000  0.1045 -0.4495  0.3164
    6MOL    H98 1108   1.372   0.055   1.872  1.4909  0.1339  0.1070
    6MOL    H99 1109   1.450   7.774   2.165 -0.0620 -0.7541 -0.4075
    6MOL   H100 1110   1.355   7.675   2.055  1.1099 -1.9920  1.5393
    6MOL   H101 1111   1.576   7.709   1.916 -0.2523 -0.2495 -0.0310
    6MOL   C102 1112   1.617   7.572   2.061  0.0381 -0.4342 -0.3052
    6MOL   O103 1113   1.583   7.521   2.171 -0.0877 -0.0174 -0.1585
    6MOL   C104 1114   1.730   7.515   1.974 -0.5270  0.5380  0.4228
    6MOL   C105 1115   1.867   7.578   2.011  0.3849  0.5856 -0.3727
    6MOL   N106 1116   1.971   7.491   1.973 -0.4880 -0.6174  0.2508
    6MOL   H107 1117   1.702   7.536   1.870 -0.6343 -1.3395  0.0555
    6MOL   H108 1118   1.736   7.406   1.977 -1.1396  0.5104  0.7474
    6MOL   H109 1119   1.885   7.666   1.950 -0.1179  0.3800 -0.8257
    6MOL   H110 1120   1.869   7.611   2.115  0.2649 -1.9457  0.4763
    6MOL   H111 1121   1.994   7.486   1.875 -0.3999 -1.4833  0.3094
    6MOL   C112 1122   2.051   7.421   2.052 -0.9181  0.9253 -1.2787
    6MOL   O113 1123   2.042   7.427   2.174  0.5798 -0.9483 -0.7053
    6MOL   C114 1124   2.171   7.343   1.993  0.5519  0.3695 -0.0765
    6MOL   C115 1125   2.304   7.346   2.066  0.3006 -0.1646  0.3579
    6MOL   N116 1126   2.366   7.472   2.044  0.2410  0.6192  0.1246
    6MOL   H117 1127   2.190   7.373   1.889  0.6699 -1.0375 -0.4677
    6MOL   H118 1128   2.125   7.245   1.983 -1.0528  1.4588 -5.4767
    6MOL   H119 1129   2.283   7.331   2.172  2.1431  0.9310  0.8994
    6MOL   H120 1130   2.370   7.268   2.028 -0.2594 -0.4271 -0.0960
    6MOL   H121 1131   2.385   7.495   1.948  0.3073  1.8963  0.4424
    6MOL   C122 1132   2.417   7.560   2.135  0.0557 -0.1864  0.0625
    6MOL   O123 1133   2.433   7.536   2.257  0.2163 -0.2063 -0.0229
    6MOL   C124 1134   2.446   7.703   2.082  0.6438 -0.0171  0.3466
    6MOL   C125 1135   2.350   0.029   2.131  0.0861  0.5953 -0.0378
    6MOL   N126 1136   2.371   0.162   2.067 -0.7605 -0.0221  0.3583
    6MOL   H127 1137   2.469   7.705   1.976  0.6346  2.8154  0.3533
    6MOL   H128 1138   2.542   7.730   2.127  0.5438 -1.8461  1.7406
    6MOL   H129 1139   2.247   0.003   2.107  0.5582  0.3120 -1.8279
    6MOL   H130 1140   2.357   0.055   2.236  1.4142 -1.9621  0.5344
    6MOL   H131 1141   2.301   0.196   2.002 -0.7745  0.1526  0.4639
    6MOL   C132 1142   2.485   0.234   2.081 -0.8471 -0.9037  0.3997
    6MOL   O133 1143   2.567   0.211   2.171  0.2314  0.1455  0.2058
    6MOL   C134 1144   2.514   0.341   1.977  0.0200  0.4439  0.0410
    6MOL   C135 1145   2.651   0.407   1.992 -0.6459  0.3821 -0.1345
    6MOL   N136 1146   2.671   0.524   1.905  0.1943  0.3578 -0.0866
    6MOL   H137 1147   2.440   0.420   1.989 -0.1429  0.1082  1.2839
    6MOL   H138 1148   2.497   0.313   1.873 -0.1828  0.0292  0.1856
    6MOL   H139 1149   2.676   0.441   2.092  1.1525 -1.1243 -0.0460
    6MOL   H140 1150   2.723   0.328   1.973  0.0198  0.5398  1.7024
    6MOL   H141 1151   2.650   0.515   1.807 -1.0466 -0.0110  0.2135
    6MOL   C142 1152   2.721   0.643   1.943 -0.4240  0.4252  0.0738
    6MOL   O143 1153   2.770   0.664   2.056  0.4055 -0.0379  0.3797
    6MOL   C144 1154   2.721   0.756   1.836 -0.2777  0.9600 -0.6538
    6MOL   C145 1155   2.670   0.893   1.877 -0.2162 -0.3531  0.0771
    6MOL   N146 1156   2.526   0.906   1.896 -0.4479  0.1226  0.3976
    6MOL   H147 1157   2.663   0.729   1.749 -0.3318  0.9808 -0.6244
    6MOL   H148 1158   2.826   0.766   1.807 -0.2389  0.0605 -0.8190
    6MOL   H149 1159   2.722   0.920   1.970  0.6978 -1.6900 -0.0238
    6MOL   H150 1160   2.697   0.972   1.807  0.4466  1.7555  2.5909
    6MOL   H151 1161   2.485   0.916   1.988  1.8112  2.4685  1.1862
    6MOL   C152 1162   2.435   0.909   1.796 -0.4245 -0.3897 -0.5299
    6MOL   O153 1163   2.468   0.909   1.677  0.2213 -0.1914  0.1087
    6MOL   C154 1164   2.289   0.938   1.839 -0.9287 -0.1030 -0.3826
    6MOL   C155 1165   2.206   0.809   1.811 -0.0052  0.2006 -0.3597
    6MOL   N156 1166   2.064   0.836   1.819  0.1759 -0.4006  0.4761
    6MOL   H157 1167   2.254   1.026   1.785  0.6681  0.1916 -0.9836
    6MOL   H158 1168   2.281   0.964   1.945 -1.1698 -0.9316 -0.1900
    6MOL   H159 1169   2.213   0.783   1.705  1.3520  0.4961 -0.3467
    6MOL   H160 1170   2.230   0.720   1.870  1.2985  0.4941 -0.4463
    6MOL   H161 1171   2.023   0.910   1.764 -2.7519 -2.1186  0.2539
    6MOL   C162 1172   1.973   0.778   1.892 -0.2294 -0.1023  0.5468
    6MOL   O163 1173   1.990   0.679   1.964 -0.1123 -0.5043  0.0791
    6MOL   C164 1174   1.834   0.843   1.883 -0.9029 -0.3347 -0.6961
    6MOL   C165 1175   1.752   0.758   1.792 -0.1620  0.2863  0.0634
    6MOL   N166 1176   1.793   0.764   1.654 -0.3623  0.3658  0.0672
    6MOL   H167 1177   1.846   0.948   1.856 -1.6792  0.4214  1.8382
    6MOL   H168 1178   1.799   0.848   1.986 -0.2857 -0.5480 -0.4774
    6MOL   H169 1179   1.735   0.655   1.824 -0.2243  0.6395  1.1800
    6MOL   H170 1180   1.652   0.799   1.779 -0.3385 -0.3584 -0.6532
    6MOL   H171 1181   1.776   0.853   1.610  0.0107 -1.1425 -3.2625
    6MOL   C172 1182   1.850   0.662   1.580 -0.0246 -0.2743 -0.1371
    6MOL   O173 1183   1.875   0.549   1.625 -0.0534  0.0650  0.6107
    6MOL   C174 1184   1.906   0.706   1.444 -0.2647 -0.0173 -0.2573
    6MOL   C175 1185   1.947   0.588   1.353 -0.3319  0.3227 -0.0264
    6MOL   N176 1186   2.045   0.630   1.253  0.4424  0.6873  0.6925
    6MOL   H177 1187   1.989   0.774   1.464 -0.3443 -0.1962  0.6840
    6MOL   H178 1188   1.837   0.776   1.398 -2.1144 -0.5501  1.6308
    6MOL   H179 1189   1.980   0.500   1.409  0.1118  0.3181 -0.2941
    6MOL   H180 1190   1.852   0.563   1.306 -0.3782  1.2549 -0.4334
    6MOL   H181 1191   2.086   0.721   1.269 -0.3566  1.4177 -1.2940
    6MOL   C182 1192   2.057   0.568   1.135 -0.7860 -0.9098  0.0956
    6MOL   O183 1193   1.997   0.468   1.112 -0.2657  0.2504 -0.6740
    6MOL   C184 1194   2.155   0.623   1.034  0.2853  0.1224  0.8263
    6MOL   C185 1195   2.217   0.520   0.933 -0.4710  0.7283 -0.3360
    6MOL   N186 1196   2.169   0.518   0.798 -0.2726  0.6516 -0.1724
    6MOL   H187 1197   2.243   0.654   1.091 -0.0792 -0.1446  1.5364
    6MOL   H188 1198   2.114   0.709   0.980 -1.1356 -1.2888 -0.3934
    6MOL   H189 1199   2.326   0.514   0.936 -0.4429  1.2147 -0.3444
    6MOL   H190 1200   2.197   0.425   0.984  1.9584  1.0369  1.2534
    6MOL   H191 1201   2.105   0.447   0.767 -0.5776  1.8928 -2.5644
    6MOL   C192 1202   2.199   0.625   0.720  0.5799  0.1501 -0.8078
    6MOL   O193 1203   2.254   0.724   0.766  0.0667  0.0204  0.1975
    6MOL   C194 1204   2.159   0.616   0.573  0.3369 -0.1668  0.5278
    6MOL   C195 1205   2.250   0.689   0.480  0.3915  0.5506 -0.3434
    6MOL   N196 1206   2.190   0.666   0.347  0.5229 -0.1290 -0.0465
    6MOL   H197 1207   2.162   0.513   0.539  0.4986 -0.7678  2.3263
    6MOL   H198 1208   2.060   0.656   0.548 -0.3046 -1.9399  0.1547
    6MOL   H199 1209   2.260   0.794   0.511  2.3162  0.4018 -0.4218
    6MOL   H200 1210   2.351   0.649   0.479  0.0870 -0.2748  1.1452
    6MOL   H201 1211   2.134   0.583   0.357 -2.0554  1.5905  0.1816
    6MOL   H202 1212   2.119   0.735   0.329 -0.4690 -1.9595 -3.6158
    7MOL     C1 1213   7.474   3.089   4.317 -0.0700  0.5897 -0.1123
    7MOL     O2 1214   7.476   3.015   4.223 -0.2772 -0.1589  0.2448
    7MOL     C3 1215   7.348   3.162   4.365  0.1445 -0.0230  0.1309
    7MOL     C4 1216   7.289   3.261   4.270 -0.2334 -0.2291  0.3008
    7MOL     N5 1217   7.348   3.397   4.267  0.1939  0.6611  0.3522
    7MOL     H6 1218   7.364   3.191   4.469  3.4098  1.1677 -0.6328
    7MOL     H7 1219   7.281   3.077   4.358  0.8672 -0.4713 -1.6311
    7MOL     H8 1220   7.186   3.286   4.299  0.2572  0.9521  1.0905
    7MOL     H9 1221   7.280   3.221   4.170  0.0937 -0.6654  0.4446
    7MOL    H10 1222   7.446   3.398   4.288  0.1778 -0.7366  0.5717
    7MOL    H11 1223   7.565   3.107   4.374 -0.9968 -0.3992  1.7123
    7MOL    C12 1224   7.285   3.507   4.226 -0.7941 -0.8413  0.0885
    7MOL    O13 1225   7.165   3.515   4.204 -0.1358  0.0140 -0.5184
    7MOL    C14 1226   7.381   3.625   4.199 -0.7327  0.0127  0.6829
    7MOL    C15 1227   7.339   3.701   4.075 -0.1610  0.0859  0.4995
    7MOL    N16 1228   7.382   3.629   3.955 -0.1623  0.5168 -0.0064
    7MOL    H17 1229   7.486   3.596   4.207 -0.3275  2.0027  2.9511
    7MOL    H18 1230   7.361   3.683   4.288  0.3122 -1.6576  2.0331
    7MOL    H19 1231   7.232   3.708   4.060  0.2385  2.0157 -1.7568
    7MOL    H20 1232   7.382   3.801   4.080  0.8688 -0.1932 -1.8296
    7MOL    H21 1233   7.306   3.585   3.904 -0.7785  2.4800 -0.8444
    7MOL    C22 1234   7.499   3.622   3.893  0.3177  0.9019  0.3447
    7MOL    O23 1235   7.598   3.679   3.933 -0.2384 -0.3290  0.1447
    7MOL    C24 1236   7.492   3.551   3.754  0.5211  0.1842  0.6186
    7MOL    C25 1237   7.578   3.625   3.649  0.1513  0.0641  0.4960
    7MOL    N26 1238   7.589   3.551   3.526 -0.1511 -0.6352  0.9088
    7MOL    H27 1239   7.389   3.549   3.720  0.6964 -0.1300  0.0909
    7MOL    H28 1240   7.527   3.449   3.772 -0.9529 -0.2435  1.0947
    7MOL    H29 1241   7.525   3.720   3.635 -0.9112 -0.3537  1.5402
    7MOL    H30 1242   7.676   3.643   3.692 -0.1684  1.0337  0.8447
    7MOL    H31 1243   7.681   3.515   3.506  0.6731  1.6989  0.3188
    7MOL    C32 1244   7.490   3.523   3.437  0.2298  0.6967  0.0069
    7MOL    O33 1245   7.378   3.556   3.466 -0.1239 -0.3859  0.4545
    7MOL    C34 1246   7.521   3.455   3.305  0.0675 -0.0758 -0.0293
    7MOL    C35 1247   7.511   3.301   3.315 -0.8292 -1.0112  0.2520
    7MOL    N36 1248   7.638   3.232   3.334 -0.0839 -0.0883 -0.3681
    7MOL    H37 1249   7.618   3.485   3.265 -0.8314  1.2457 -1.2624
    7MOL    H38 1250   7.451   3.491   3.230  0.6126  0.9686 -0.0570
    7MOL    H39 1251   7.434   3.268   3.384  0.5809 -0.0627  2.3170
    7MOL    H40 1252   7.484   3.275   3.212  0.5472  1.0371 -0.6590
    7MOL    H41 1253   7.690   3.196   3.255  1.2965 -3.7059  2.0352
    7MOL    C42 1254   7.691   3.208   3.453 -0.1969 -0.1086 -0.1676
    7MOL    O43 1255   7.636   3.248   3.555 -0.5265  0.0660 -0.3948
    7MOL    C44 1256   0.042   3.132   3.465 -0.0616  0.2062  0.3927
    7MOL    C45 1257   0.042   3.024   3.575  0.2457 -0.6352 -0.0978
    7MOL    N46 1258   0.152   2.930   3.578  0.4631 -0.6321 -0.5678
    7MOL    H47 1259   0.077   3.098   3.368 -1.6634 -3.7252  1.0693
    7MOL    H48 1260   0.112   3.207   3.500  0.3834 -0.4423  0.9198
    7MOL    H49 1261   0.037   3.084   3.666  1.4011 -1.5108  0.5601
    7MOL    H50 1262   7.724   2.982   3.555  1.1200 -1.6572 -2.4459
    7MOL    H51 1263   0.246   2.967   3.578  0.4220 -0.5185 -1.0787
    7MOL    C52 1264   0.138   2.809   3.530 -0.4897 -0.6483 -0.0850
    7MOL    O53 1265   0.031   2.763   3.490  0.3694  0.1291 -0.5231
    7MOL    C54 1266   0.275   2.732   3.517  0.7898 -0.2872  0.2476
    7MOL    C55 1267   0.281   2.631   3.392  0.6077 -0.2320 -0.1225
    7MOL    N56 1268   0.175   2.532   3.394  0.9308 -0.1568  0.1219
    7MOL    H57 1269   0.361   2.798   3.525  0.4984 -0.0671  1.6689
    7MOL    H58 1270   0.287   2.673   3.608 -1.9284  1.3270  1.7204
    7MOL    H59 1271   0.375   2.577   3.383  0.4903 -0.3933 -0.3687
    7MOL    H60 1272   0.275   2.696   3.305 -0.5681 -0.3321 -0.1212
    7MOL    H61 1273   0.166   2.480   3.480  0.2943  0.3875  0.3821
    7MOL    C62 1274   0.101   2.507   3.286 -0.7842 -0.2140  0.2063
    7MOL    O63 1275   0.099   2.580   3.182 -0.1985  0.6359  0.0290
    7MOL    C64 1276   0.011   2.384   3.288 -0.0948 -0.1745  0.1795
    7MOL    C65 1277   7.654   2.413   3.236 -0.4275 -0.2568  0.1716
    7MOL    N66 1278   7.585   2.288   3.207  0.4198  0.5319  0.2841
    7MOL    H67 1279   0.056   2.295   3.242  1.7887  0.6296  0.4192
    7MOL    H68 1280   0.015   2.347   3.390 -0.1109 -0.9431 -0.0943
    7MOL    H69 1281   7.608   2.470   3.317  0.1758  0.2179  0.1812
    7MOL    H70 1282   7.658   2.481   3.151 -1.9318  0.7939  0.9158
    7MOL    H71 1283   7.628   2.221   3.144 -0.2532 -0.6623  1.0891
    7MOL    C72 1284   7.477   2.238   3.260  0.0513 -0.0533 -0.8774
    7MOL    O73 1285   7.406   2.294   3.345 -0.5729  0.4959  0.3951
    7MOL    C74 1286   7.420   2.097   3.211  0.0369 -0.1921 -0.1096
    7MOL    C75 1287   7.280   2.068   3.274 -0.2588  0.5196  0.4066
    7MOL    N76 1288   7.206   1.944   3.232  0.5871  0.5604 -0.0483
    7MOL    H77 1289   7.409   2.105   3.103 -0.7205 -0.3455 -0.0401
    7MOL    H78 1290   7.493   2.016   3.219  0.1300 -0.0975 -0.0035
    7MOL    H79 1291   7.289   2.078   3.383  0.0260  0.1222  0.4213
    7MOL    H80 1292   7.200   2.134   3.240  1.0919  1.6452 -0.6566
    7MOL    H81 1293   7.167   1.939   3.139  2.8184  2.8247 -1.1711
    7MOL    C82 1294   7.211   1.827   3.304  0.4460 -0.9874 -0.2898
    7MOL    O83 1295   7.286   1.819   3.400  0.3544 -1.0536  0.4762
    7MOL    C84 1296   7.133   1.706   3.257 -0.1790 -0.2822  0.3890
    7MOL    C85 1297   7.147   1.586   3.348  0.0931 -0.5472  0.2490
    7MOL    N86 1298   7.279   1.525   3.339  0.0101 -0.2275  0.0207
    7MOL    H87 1299   7.031   1.742   3.265 -0.3504 -1.0563  2.0095
    7MOL    H88 1300   7.146   1.684   3.151 -0.9639 -0.2572  0.2876
    7MOL    H89 1301   7.127   1.609   3.453  0.1327 -0.7946  0.3110
    7MOL    H90 1302   7.070   1.515   3.319  0.8737 -1.1517 -0.3903
    7MOL    H91 1303   7.333   1.545   3.256  0.1403 -1.2184 -0.1400
    7MOL    C92 1304   7.324   1.443   3.434 -0.0604  0.2460  0.0168
    7MOL    O93 1305   7.275   1.425   3.546 -0.2847 -0.2865 -0.0824
    7MOL    C94 1306   7.437   1.362   3.386 -0.0180  0.1982  0.2168
    7MOL    C95 1307   7.492   1.266   3.495  0.3356 -0.1942  0.4242
    7MOL    N96 1308   7.534   1.335   3.621 -0.6535  0.2713 -0.5184
    7MOL    H97 1309   7.400   1.299   3.305  0.6355  1.4933 -1.1005
    7MOL    H98 1310   7.511   1.423   3.334  0.6804 -0.4382  0.4557
    7MOL    H99 1311   7.430   1.178   3.504 -0.0391 -0.2671 -2.4754
    7MOL   H100 1312   7.583   1.217   3.459 -0.9857 -1.0067 -1.8963
    7MOL   H101 1313   7.476   1.413   3.651  0.3755  0.8520 -0.0285
    7MOL   C102 1314   7.615   1.276   3.711 -0.2634 -0.1957  0.1635
    7MOL   O103 1315   7.655   1.161   3.699  0.1834 -0.0154 -0.7281
    7MOL   C104 1316   7.632   1.349   3.845  0.0938 -0.6033 -0.2963
    7MOL   C105 1317   0.003   1.354   3.880 -0.1769 -0.1021  0.0944
    7MOL   N106 1318   0.094   1.438   3.793 -0.2746  0.6154 -0.3649
    7MOL   H107 1319   7.576   1.295   3.922  1.5093  0.8391  1.8119
    7MOL   H108 1320   7.589   1.448   3.833  2.7221  0.7575  0.9723
    7MOL   H109 1321   0.002   1.398   3.980 -0.6235  1.9163 -0.7711
    7MOL   H110 1322   0.038   1.251   3.889  0.6430  0.0625 -1.0437
    7MOL   H111 1323   0.114   1.389   3.707  1.3434  0.3250  0.1660
    7MOL   C112 1324   0.164   1.546   3.821  0.2338 -0.0136 -0.7950
    7MOL   O113 1325   0.156   1.604   3.928  0.3199  0.1724 -0.3236
    7MOL   C114 1326   0.266   1.596   3.716  1.0879  0.2888 -0.5102
    7MOL   C115 1327   0.329   1.735   3.737 -0.2951  0.2464 -0.4079
    7MOL   N116 1328   0.243   1.843   3.698 -0.3113  0.0319 -0.3056
    7MOL   H117 1329   0.215   1.601   3.620 -1.9092 -0.3124  0.9974
    7MOL   H118 1330   0.341   1.517   3.704  2.3695  1.6575 -1.6441
    7MOL   H119 1331   0.351   1.740   3.844  1.0066  0.3566 -0.6716
    7MOL   H120 1332   0.426   1.728   3.688 -0.8344  1.4324 -1.6792
    7MOL   H121 1333   0.143   1.826   3.707  0.2332 -2.8398  0.8630
    7MOL   C122 1334   0.289   1.950   3.631  0.2748 -0.2132 -0.2576
    7MOL   O123 1335   0.411   1.970   3.632  0.3944  0.1286  0.0226
    7MOL   C124 1336   0.190   2.030   3.546 -0.2709 -0.1653 -0.2460
    7MOL   C125 1337   0.238   2.167   3.499 -0.4743 -0.4313 -0.3592
    7MOL   N126 1338   0.281   2.254   3.609  0.7195 -0.2237  0.3735
    7MOL   H127 1339   0.091   2.041   3.589  0.8578  2.2783  1.8325
    7MOL   H128 1340   0.179   1.973   3.453 -1.7896 -0.8490  0.3323
    7MOL   H129 1341   0.322   2.158   3.430  0.9849  3.1646  0.8238
    7MOL   H130 1342   0.165   2.219   3.436  0.4728  0.2306 -0.9239
    7MOL   H131 1343   0.365   2.220   3.655  0.0582 -0.8598  1.1362
    7MOL   C132 1344   0.205   2.339   3.683  0.1782  0.4946  0.0266
    7MOL   O133 1345   0.090   2.372   3.652  0.1306 -0.3396  0.6510
    7MOL   C134 1346   0.246   2.379   3.819 -0.4559 -0.5291 -1.7608
    7MOL   C135 1347   0.187   2.510   3.878  0.0571  0.6369  0.0579
    7MOL   N136 1348   0.220   2.540   4.018 -0.3958  0.5682 -0.4622
    7MOL   H137 1349   0.355   2.382   3.817 -0.4097  0.7388  0.8844
    7MOL   H138 1350   0.215   2.291   3.874  0.3163 -0.9929 -2.0626
    7MOL   H139 1351   0.224   2.590   3.813  1.5053 -0.2172 -0.2016
    7MOL   H140 1352   0.079   2.507   3.860  0.0486  0.1337  0.2027
    7MOL   H141 1353   0.222   2.635   4.052  0.4132  0.5291 -0.3949
    7MOL   C142 1354   0.223   2.453   4.119  0.2062  0.0107 -0.1608
    7MOL   O143 1355   0.223   2.330   4.103 -0.0269  0.3877  0.4572
    7MOL   C144 1356   0.241   2.514   4.251 -0.5864 -0.2989 -0.4910
    7MOL   C145 1357   0.197   2.415   4.363  0.1879  0.5320  0.7440
    7MOL   N146 1358   0.203   2.470   4.498  0.2025  0.2218  0.4433
    7MOL   H147 1359   0.192   2.608   4.275 -0.8925 -0.5084 -0.2927
    7MOL   H148 1360   0.350   2.525   4.255 -0.6493  0.2588 -0.2460
    7MOL   H149 1361   0.094   2.383   4.351  0.5326 -0.6427  0.8518
    7MOL   H150 1362   0.259   2.325   4.352  2.4475  2.1008  0.2963
    7MOL   H151 1363   0.111   2.491   4.535  0.2715  2.4482 -0.5726
    7MOL   C152 1364   0.306   2.527   4.559  1.3924 -0.5899 -0.3673
    7MOL   O153 1365   0.417   2.508   4.528 -0.0650  0.1762  0.1140
    7MOL   C154 1366   0.263   2.634   4.660 -0.6154  0.6922 -0.1793
    7MOL   C155 1367   0.254   2.575   4.807 -0.4405  0.4289  0.1205
    7MOL   N156 1368   0.374   2.512   4.873  0.1548  0.2857  0.2108
    7MOL   H157 1369   0.170   2.687   4.644  0.1845  2.1408 -0.1122
    7MOL   H158 1370   0.338   2.712   4.644 -1.2116  0.8014 -2.6134
    7MOL   H159 1371   0.208   2.649   4.874 -0.7433  1.4751 -1.2110
    7MOL   H160 1372   0.179   2.498   4.793  0.1864 -0.1600 -0.0004
    7MOL   H161 1373   0.349   2.436   4.935  0.7176  0.9295  1.2441
    7MOL   C162 1374   0.504   2.549   4.871  0.0020  1.3217 -0.3364
    7MOL   O163 1375   0.554   2.636   4.806 -0.2048  0.3923 -0.5894
    7MOL   C164 1376   0.603   2.463   4.948 -0.4895  0.6053 -0.1480
    7MOL   C165 1377   0.624   2.517   5.094 -0.6198  0.3729 -0.0348
    7MOL   N166 1378   0.518   2.467   5.182  0.1320  0.3941  0.3844
    7MOL   H167 1379   0.699   2.466   4.896 -0.8060  0.1326 -0.7668
    7MOL   H168 1380   0.573   2.358   4.946 -0.3777  0.5177  1.8029
    7MOL   H169 1381   0.719   2.488   5.140 -0.3863  2.1123  0.6469
    7MOL   H170 1382   0.648   2.624   5.098 -1.8018  0.6510 -0.1470
    7MOL   H171 1383   0.529   2.368   5.200  4.8151  0.7700  0.3125
    7MOL   C172 1384   0.408   2.537   5.224  0.4302  0.0271  0.0149
    7MOL   O173 1385   0.396   2.660   5.196 -0.1216  0.0997  0.0336
    7MOL   C174 1386   0.313   2.462   5.317  0.7201 -0.2730 -0.9104
    7MOL   C175 1387   0.182   2.403   5.252 -0.4817 -0.2463  0.1092
    7MOL   N176 1388   0.189   2.260   5.205 -0.2109  0.7198  0.1098
    7MOL   H177 1389   0.286   2.535   5.393  1.0855 -0.2271 -0.8259
    7MOL   H178 1390   0.367   2.388   5.376  0.1721 -1.3714 -1.7632
    7MOL   H179 1391   0.094   2.402   5.317 -0.3625  0.5275  0.2792
    7MOL   H180 1392   0.155   2.475   5.174  2.6018  0.1767 -0.6020
    7MOL   H181 1393   0.125   2.202   5.257  1.8599 -1.5636  0.2393
    7MOL   C182 1394   0.256   2.215   5.095 -0.3077  0.7191 -0.4085
    7MOL   O183 1395   0.324   2.282   5.028  0.1830  0.4971  0.7352
    7MOL   C184 1396   0.254   2.068   5.066  0.2299 -0.5263 -0.6257
    7MOL   C185 1397   0.390   2.007   5.029  0.0986 -0.1721 -0.9108
    7MOL   N186 1398   0.474   1.967   5.147 -0.1796  0.1275 -0.3488
    7MOL   H187 1399   0.185   2.072   4.982 -1.7227  0.2671  0.9566
    7MOL   H188 1400   0.204   2.012   5.144 -1.1032  0.4668 -0.7394
    7MOL   H189 1401   0.376   1.919   4.965 -0.5590 -0.1062 -0.8620
    7MOL   H190 1402   0.445   2.066   4.956 -0.7096  0.7288 -0.7878
    7MOL   H191 1403   0.523   2.043   5.192 -1.6155  0.4184  0.7457
    7MOL   C192 1404   0.511   1.843   5.175  0.0371 -0.4701 -0.1807
    7MOL   O193 1405   0.469   1.744   5.111  0.0511 -0.3759 -0.1970
    7MOL   C194 1406   0.617   1.837   5.289  0.1032 -0.0433 -0.0142
    7MOL   C195 1407   0.726   1.735   5.275 -0.1804  0.1800  0.0875
    7MOL   N196 1408   0.820   1.773   5.172 -0.9696 -0.0938  0.7805
    7MOL   H197 1409   0.660   1.935   5.304  1.5164 -0.6869  0.2198
    7MOL   H198 1410   0.560   1.802   5.376  0.0780 -1.5912 -0.6427
    7MOL   H199 1411   0.775   1.728   5.372  1.6704  0.3548 -0.8245
    7MOL   H200 1412   0.683   1.635   5.264  0.9672 -0.1658 -1.4741
    7MOL   H201 1413   0.881   1.693   5.159 -1.2720 -0.5468  2.1199
    7MOL   H202 1414   0.888   1.841   5.204  1.1169 -1.9416  0.4222
    8MOL     C1 1415   1.427   6.003   4.811  0.0753 -0.2500  0.1737
    8MOL     O2 1416   1.460   5.890   4.790  0.5286  0.2748 -0.4337
    8MOL     C3 1417   1.461   6.059   4.946  0.0927 -0.4012 -0.6941
    8MOL     C4 1418   1.356   6.152   5.003 -0.2226  0.2124  0.2510
    8MOL     N5 1419   1.235   6.070   5.043 -0.5715 -0.4562  0.2770
    8MOL     H6 1420   1.553   6.117   4.942  0.5269 -0.9307  1.3955
    8MOL     H7 1421   1.480   5.978   5.016  2.0018  1.5524  1.1167
    8MOL     H8 1422   1.311   6.216   4.928 -2.8405 -0.7463  0.9547
    8MOL     H9 1423   1.388   6.220   5.082  2.7993 -0.7423 -0.0650
    8MOL    H10 1424   1.167   6.068   4.968 -1.6560  0.4989  1.2316
    8MOL    H11 1425   1.376   6.057   4.731  1.0081 -1.1476 -1.0414
    8MOL    C12 1426   1.212   6.021   5.167  0.4678  0.0773  0.2693
    8MOL    O13 1427   1.290   6.027   5.261  0.0336  0.1667  0.2381
    8MOL    C14 1428   1.074   5.956   5.184 -0.1347 -0.5312 -0.1286
    8MOL    C15 1429   0.974   6.054   5.261 -0.1827  0.2477 -1.0171
    8MOL    N16 1430   1.007   6.085   5.403  0.2126 -0.3821 -0.5552
    8MOL    H17 1431   1.074   5.865   5.245  0.8111 -1.8712 -2.0657
    8MOL    H18 1432   1.038   5.932   5.084  0.3826  1.7658 -0.9076
    8MOL    H19 1433   0.961   6.150   5.211  2.1495  2.1129  1.8126
    8MOL    H20 1434   0.880   5.999   5.268 -0.7534  1.2651 -0.5321
    8MOL    H21 1435   1.021   6.181   5.430 -1.2569 -0.8348  1.9213
    8MOL    C22 1436   1.025   5.994   5.499 -0.1730  1.1097 -0.1299
    8MOL    O23 1437   0.995   5.871   5.489 -0.3891 -0.4722 -0.0607
    8MOL    C24 1438   1.105   6.035   5.624 -0.4678  0.7700  0.3531
    8MOL    C25 1439   1.028   6.057   5.753 -0.2913 -0.0669 -0.1823
    8MOL    N26 1440   1.103   6.034   5.876 -0.2689  0.6468 -0.9097
    8MOL    H27 1441   1.183   6.106   5.598 -1.3686  2.0091  0.9827
    8MOL    H28 1442   1.165   5.948   5.650 -1.0714  0.4746  0.7458
    8MOL    H29 1443   0.990   6.159   5.761 -2.2560 -0.6288 -1.8724
    8MOL    H30 1444   0.930   6.009   5.759  0.1676 -0.8038  2.0073
    8MOL    H31 1445   1.143   6.113   5.926  0.3157 -0.0350 -0.2801
    8MOL    C32 1446   1.141   5.914   5.920 -0.0642  0.0130  0.2360
    8MOL    O33 1447   1.108   5.808   5.866  0.6083 -0.3953  0.3356
    8MOL    C34 1448   1.237   5.913   6.035  0.0851 -0.3803  0.5835
    8MOL    C35 1449   1.342   5.792   6.035  0.1060  0.1954  0.6432
    8MOL    N36 1450   1.469   5.823   6.111  0.1353 -0.4060  0.1059
    8MOL    H37 1451   1.182   5.920   6.129 -0.5613  1.8221  0.0803
    8MOL    H38 1452   1.293   6.005   6.024  0.0385 -0.2157  1.6597
    8MOL    H39 1453   1.287   5.723   6.099 -1.3474  1.9370  1.3017
    8MOL    H40 1454   1.378   5.752   5.940  1.9548  0.1577  1.3194
    8MOL    H41 1455   1.471   5.766   6.194 -1.0717  1.9732  1.8406
    8MOL    C42 1456   1.573   5.907   6.078 -0.3227  0.2103 -0.0306
    8MOL    O43 1457   1.576   5.978   5.974 -0.1212  0.1822  0.9912
    8MOL    C44 1458   1.694   5.903   6.164 -0.2474 -0.1093 -0.8607
    8MOL    C45 1459   1.755   6.049   6.175 -0.2170 -0.1863 -0.0842
    8MOL    N46 1460   1.662   6.161   6.208 -0.3345  0.1233  0.0004
    8MOL    H47 1461   1.676   5.869   6.265  0.4161 -2.1364 -1.3982
    8MOL    H48 1462   1.760   5.833   6.113  1.2031 -0.3695  1.3480
    8MOL    H49 1463   1.839   6.043   6.244 -1.0916 -0.9331  0.9485
    8MOL    H50 1464   1.807   6.072   6.082 -1.4750 -0.7170 -0.9277
    8MOL    H51 1465   1.633   6.217   6.129 -1.0086 -0.9037 -0.4819
    8MOL    C52 1466   1.605   6.158   6.327  0.2786  0.0846 -0.9148
    8MOL    O53 1467   1.640   6.087   6.425 -0.1489  0.4059  0.1902
    8MOL    C54 1468   1.499   6.262   6.350 -0.5146 -0.1565 -0.5276
    8MOL    C55 1469   1.441   6.272   6.490  0.0728 -0.1300  0.7160
    8MOL    N56 1470   1.306   6.222   6.503  0.1833  0.2798 -0.1993
    8MOL    H57 1471   1.564   6.349   6.354 -0.5237 -0.2177  2.5313
    8MOL    H58 1472   1.437   6.285   6.263 -1.1133 -1.0667 -0.3507
    8MOL    H59 1473   1.438   6.380   6.507  0.8644  0.1270 -0.6588
    8MOL    H60 1474   1.498   6.222   6.569  0.0914  0.3841  1.0331
    8MOL    H61 1475   1.297   6.168   6.589 -1.9837  0.0759 -0.5167
    8MOL    C62 1476   1.199   6.282   6.454  0.1037 -0.4213 -0.2168
    8MOL    O63 1477   1.206   6.394   6.409  0.0686 -0.6124  0.7377
    8MOL    C64 1478   1.063   6.214   6.464  0.4083  0.3799  0.7952
    8MOL    C65 1479   1.023   6.152   6.329 -0.1551  0.0993 -0.3114
    8MOL    N66 1480   0.985   6.257   6.236 -0.0785 -0.1154  0.4231
    8MOL    H67 1481   1.066   6.157   6.557  1.0102  3.5243  2.7513
    8MOL    H68 1482   0.989   6.291   6.485  0.3165  0.6863 -0.5905
    8MOL    H69 1483   1.103   6.089   6.292  0.3970 -0.7856  2.2945
    8MOL    H70 1484   0.934   6.092   6.346 -1.6816  2.3075 -0.2436
    8MOL    H71 1485   0.920   6.323   6.277  0.2937  0.8252 -0.4934
    8MOL    C72 1486   1.056   6.290   6.126  0.6342  0.4267 -0.0344
    8MOL    O73 1487   1.150   6.220   6.095  0.3058 -0.0810 -0.0478
    8MOL    C74 1488   1.028   6.420   6.048 -0.0794 -0.2848 -0.6955
    8MOL    C75 1489   1.155   6.469   5.973 -0.8393  0.3315 -0.4872
    8MOL    N76 1490   1.279   6.499   6.053 -0.0359 -0.3847 -0.2366
    8MOL    H77 1491   0.953   6.404   5.971 -0.7259 -2.4841  0.3464
    8MOL    H78 1492   0.990   6.493   6.120 -1.9832 -2.0490  0.1631
    8MOL    H79 1493   1.191   6.398   5.899  1.2085  1.7837 -0.9318
    8MOL    H80 1494   1.129   6.554   5.910 -1.3469  1.1267  0.7631
    8MOL    H81 1495   1.311   6.423   6.111 -0.0524 -0.4856 -0.3590
    8MOL    C82 1496   1.319   6.622   6.077 -0.5127 -0.7825  0.1302
    8MOL    O83 1497   1.265   6.721   6.026 -1.1747  0.1229 -0.1738
    8MOL    C84 1498   1.430   6.637   6.194 -0.2039  0.3817  0.0309
    8MOL    C85 1499   1.388   6.737   6.299  0.0045 -0.0563 -0.9209
    8MOL    N86 1500   1.273   6.696   6.381  0.1812 -0.0256  0.4902
    8MOL    H87 1501   1.444   6.535   6.231 -0.0290  0.0843 -0.8508
    8MOL    H88 1502   1.515   6.668   6.134 -2.0333  1.1369 -2.2537
    8MOL    H89 1503   1.469   6.752   6.370  0.3336 -2.8253 -0.6545
    8MOL    H90 1504   1.368   6.835   6.255  1.7070  0.6247 -0.2147
    8MOL    H91 1505   1.239   6.601   6.382 -0.6156  0.1932 -2.1376
    8MOL    C92 1506   1.188   6.783   6.440  0.0553 -0.2381  0.6833
    8MOL    O93 1507   1.201   6.905   6.420  0.5576  0.1657 -0.2980
    8MOL    C94 1508   1.059   6.727   6.504  0.2632 -0.0834 -0.2713
    8MOL    C95 1509   0.962   6.832   6.561  0.7752  0.2059 -0.0976
    8MOL    N96 1510   0.827   6.787   6.574 -0.9207 -0.0560  0.2309
    8MOL    H97 1511   1.014   6.656   6.435  0.0969  0.0078 -0.2571
    8MOL    H98 1512   1.085   6.663   6.588 -0.6790 -0.4611 -0.2654
    8MOL    H99 1513   1.006   6.886   6.645  1.8948 -0.5286 -0.2049
    8MOL   H100 1514   0.967   6.911   6.486  0.5486  0.6359  0.3325
    8MOL   H101 1515   0.775   6.792   6.488 -1.6760 -0.2155  0.6757
    8MOL   C102 1516   0.788   6.691   6.655  0.0367 -0.3204 -0.8207
    8MOL   O103 1517   0.696   6.614   6.631  0.3393  0.3827  0.1853
    8MOL   C104 1518   0.851   6.679   6.790  0.0237 -0.4995  0.1632
    8MOL   C105 1519   0.763   6.640   6.917  0.3469  0.2089 -0.0293
    8MOL   N106 1520   0.695   6.517   6.900  0.4033 -0.7696  0.2399
    8MOL   H107 1521   0.893   6.778   6.812 -0.4987  0.4343 -2.8043
    8MOL   H108 1522   0.927   6.602   6.772  0.3544 -0.6304  2.0607
    8MOL   H109 1523   0.829   6.634   7.004 -0.7810 -1.8597  0.7061
    8MOL   H110 1524   0.694   6.723   6.928 -0.0607  0.1109 -1.7193
    8MOL   H111 1525   0.649   6.519   6.811  0.4392 -2.9846  0.1345
    8MOL   C112 1526   0.731   6.393   6.939  0.5462  0.4684 -0.9826
    8MOL   O113 1527   0.789   6.369   7.047 -0.4079 -0.0268  0.2088
    8MOL   C114 1528   0.713   6.275   6.836  0.6449  0.2321  0.1107
    8MOL   C115 1529   0.844   6.210   6.790 -0.2954 -0.3114  0.4490
    8MOL   N116 1530   0.935   6.183   6.901  0.2464  0.5189  0.4212
    8MOL   H117 1531   0.641   6.284   6.754 -0.8429 -0.7581  1.2772
    8MOL   H118 1532   0.657   6.195   6.885 -0.4084  0.8846  0.0073
    8MOL   H119 1533   0.817   6.117   6.741 -0.3341  0.9505 -2.0225
    8MOL   H120 1534   0.891   6.290   6.733 -0.7995  0.6756  1.4095
    8MOL   H121 1535   0.922   6.249   6.977 -0.2494  0.4159  0.4246
    8MOL   C122 1536   1.019   6.076   6.904 -0.0535  0.4042  1.0552
    8MOL   O123 1537   1.022   5.998   6.809 -0.0845  0.4303 -0.0274
    8MOL   C124 1538   1.084   6.045   7.035  0.4298  0.4096  0.1428
    8MOL   C125 1539   1.183   5.924   7.026 -0.1071  0.2142  1.0471
    8MOL   N126 1540   1.244   5.915   7.158  0.8470  0.4257 -0.1983
    8MOL   H127 1541   1.014   6.028   7.117  1.4324 -0.9485  0.7399
    8MOL   H128 1542   1.138   6.130   7.075  0.2088  0.1586  0.9918
    8MOL   H129 1543   1.127   5.836   6.996 -2.6208  1.7456  1.0470
    8MOL   H130 1544   1.261   5.934   6.951  1.8579  0.4949  3.1032
    8MOL   H131 1545   1.194   5.959   7.234 -2.2086 -1.7550 -0.8492
    8MOL   C132 1546   1.355   5.844   7.191  0.0137  0.1024 -0.6091
    8MOL   O133 1547   1.421   5.783   7.108 -0.5346 -0.1372 -0.5309
    8MOL   C134 1548   1.395   5.842   7.341  0.4063  0.2864 -1.1272
    8MOL   C135 1549   1.472   5.970   7.378 -0.1982 -0.0519  0.0734
    8MOL   N136 1550   1.548   5.963   7.502 -0.3933 -0.4416 -0.1498
    8MOL   H137 1551   1.460   5.757   7.361 -1.6939 -1.2823 -0.7678
    8MOL   H138 1552   1.304   5.818   7.397  0.8140  1.4618  0.0771
    8MOL   H139 1553   1.530   6.013   7.296  1.2508  0.3741  1.2948
    8MOL   H140 1554   1.394   6.044   7.397  0.7490  0.7861  0.7740
    8MOL   H141 1555   1.647   5.947   7.491 -0.0638  0.9106  0.6201
    8MOL   C142 1556   1.512   5.984   7.628 -0.3234 -0.3254 -0.2976
    8MOL   O143 1557   1.392   5.993   7.659 -0.5200 -0.7966  0.0814
    8MOL   C144 1558   1.621   6.010   7.726  0.5154  0.0147  0.6443
    8MOL   C145 1559   1.644   6.156   7.747 -0.1573 -0.5931  0.5759
    8MOL   N146 1560   1.671   6.184   0.112  0.2488 -0.2690  0.1953
    8MOL   H147 1561   1.709   5.954   7.693  0.5157  0.2603  0.2236
    8MOL   H148 1562   1.586   5.959   0.035 -2.3578  1.0544  0.1637
    8MOL   H149 1563   1.731   6.201   7.700 -1.1094 -0.3285 -0.9427
    8MOL   H150 1564   1.562   6.217   7.710  0.4062  0.0521  0.4017
    8MOL   H151 1565   1.589   6.224   0.156  0.0862  0.4848 -0.7708
    8MOL   C152 1566   1.785   6.200   0.175 -0.0659 -0.1668  0.4394
    8MOL   O153 1567   1.888   6.173   0.118 -0.5549  0.5722  0.0212
    8MOL   C154 1568   1.789   6.232   0.321 -0.7623  0.5855  0.7285
    8MOL   C155 1569   1.921   6.295   0.366  0.5149 -0.0580  0.0682
    8MOL   N156 1570   1.906   6.440   0.339  0.3612  0.4527  0.0085
    8MOL   H157 1571   1.764   6.147   0.385  0.3169 -0.5557 -0.3399
    8MOL   H158 1572   1.705   6.300   0.334 -1.1504  0.2064  0.2040
    8MOL   H159 1573   1.921   6.292   0.475  2.4809  0.4215  0.0976
    8MOL   H160 1574   2.009   6.250   0.320  1.0216 -1.6438  2.5047
    8MOL   H161 1575   1.814   6.478   0.356  0.0690 -0.6673  0.9760
    8MOL   C162 1576   2.000   6.531   0.341  0.1695 -0.0880 -0.8633
    8MOL   O163 1577   2.116   6.501   0.329  0.4095 -0.0858 -0.0738
    8MOL   C164 1578   1.963   6.678   0.341 -0.1282  0.2613 -0.6732
    8MOL   C165 1579   1.991   6.755   0.475 -0.0412 -0.1047  0.0672
    8MOL   N166 1580   2.125   6.754   0.517 -0.3453 -0.2809  0.9468
    8MOL   H167 1581   1.859   6.691   0.309 -0.6272 -1.9098 -0.0008
    8MOL   H168 1582   2.028   6.727   0.269  0.0682  1.6735  0.4179
    8MOL   H169 1583   1.940   6.851   0.479 -0.4223 -0.3193  0.4953
    8MOL   H170 1584   1.932   6.706   0.553 -0.4411 -0.0821 -0.2196
    8MOL   H171 1585   2.167   6.665   0.541 -0.5542  0.4953  4.5219
    8MOL   C172 1586   2.211   6.859   0.521 -0.3531  0.2591 -0.3414
    8MOL   O173 1587   2.171   6.975   0.483  0.5800 -0.2570 -0.4198
    8MOL   C174 1588   2.351   6.843   0.584  0.6044 -0.6226 -1.2625
    8MOL   C175 1589   2.355   6.878   0.738 -0.3013 -0.2050 -0.5342
    8MOL   N176 1590   2.487   6.864   0.797 -0.0991 -0.7474  0.0661
    8MOL   H177 1591   2.416   6.915   0.534 -0.3519 -0.5467 -2.4057
    8MOL   H178 1592   2.398   6.751   0.549  1.3955 -1.0809  0.9390
    8MOL   H179 1593   2.338   6.984   0.755 -0.0258 -0.5376  1.8627
    8MOL   H180 1594   2.293   6.807   0.793 -1.1144  0.8716 -0.0448
    8MOL   H181 1595   2.573   6.868   0.745 -2.0655 -1.2745 -3.4339
    8MOL   C182 1596   2.499   6.861   0.933  0.1237 -0.5296 -0.0205
    8MOL   O183 1597   2.401   6.860   1.006 -0.1857 -0.2978  0.0683
    8MOL   C184 1598   2.641   6.881   0.982 -0.1982  0.1422 -0.2152
    8MOL   C185 1599   2.686   6.759   1.067  0.0903  0.6352 -0.5247
    8MOL   N186 1600   2.638   6.755   1.208 -0.4126  0.1470 -0.0404
    8MOL   H187 1601   2.645   6.973   1.041  0.8920 -0.0137 -0.0384
    8MOL   H188 1602   2.720   6.905   0.911 -1.0139  1.6731 -0.6198
    8MOL   H189 1603   2.656   6.668   1.015  0.3378 -1.0826  2.2446
    8MOL   H190 1604   2.794   6.767   1.079 -0.0913 -1.7323  3.3917
    8MOL   H191 1605   2.551   6.800   1.232  0.4676  1.4712  0.7407
    8MOL   C192 1606   2.686   6.680   1.307 -0.2800  0.8332  0.1316
    8MOL   O193 1607   2.777   6.604   1.284  0.0668  0.3786  0.6730
    8MOL   C194 1608   2.627   6.683   1.447 -0.1656  0.4129  0.5123
    8MOL   C195 1609   2.532   6.800   1.475  0.1835  0.1596 -0.3678
    8MOL   N196 1610   2.399   6.785   1.415 -0.5767  0.2733 -0.0536
    8MOL   H197 1611   2.574   6.591   1.472 -0.0021  0.1971  0.0633
    8MOL   H198 1612   2.712   6.691   1.515 -0.7384 -0.9008  1.4027
    8MOL   H199 1613   2.506   6.812   1.580  3.2860  1.6855  0.3016
    8MOL   H200 1614   2.574   6.891   1.432 -1.5375  0.4650 -1.4427
    8MOL   H201 1615   2.334   6.817   1.485  0.6417  0.0917  1.1857
    8MOL   H202 1616   2.371   6.688   1.408  1.0682 -0.2870  0.8843
    9MOL     C1 1617   4.079   4.343   5.237 -0.0848  0.5401  0.7511
    9MOL     O2 1618   4.153   4.407   5.315  0.6947  0.3694 -0.2933
    9MOL     C3 1619   3.959   4.414   5.169 -0.1490  0.0398 -0.3885
    9MOL     C4 1620   3.988   4.566   5.140  0.0134 -0.1943 -0.5984
    9MOL     N5 1621   3.865   4.621   5.079 -0.3956 -0.1260  0.3707
    9MOL     H6 1622   3.872   4.407   5.234 -0.1009 -0.6976 -0.4064
    9MOL     H7 1623   3.945   4.360   5.075 -2.5828 -0.6488  0.3415
    9MOL     H8 1624   4.074   4.576   5.074  0.9580  2.5384  0.9226
    9MOL     H9 1625   4.018   4.620   5.230 -3.4690 -0.5416  0.8678
    9MOL    H10 1626   3.841   4.560   5.002 -0.1628 -0.6571  0.7157
    9MOL    H11 1627   4.090   4.237   5.214 -0.4277  0.7732 -0.5076
    9MOL    C12 1628   3.794   4.734   5.105 -0.7222  0.0465 -0.1134
    9MOL    O13 1629   3.825   4.816   5.189 -0.1509  0.1861  0.1088
    9MOL    C14 1630   3.658   4.739   5.028  0.0335  0.0255 -0.4984
    9MOL    C15 1631   3.568   4.618   5.067 -0.6786  0.8952 -0.5256
    9MOL    N16 1632   3.430   4.651   5.028 -0.2332 -0.1882  0.2615
    9MOL    H17 1633   3.674   4.748   4.921  1.0410  1.4081 -0.2393
    9MOL    H18 1634   3.606   4.834   5.035  1.3100  0.5044  4.8272
    9MOL    H19 1635   3.599   4.527   5.015 -0.0203  1.0879 -0.4772
    9MOL    H20 1636   3.560   4.599   5.174  0.5791  0.6525 -0.4720
    9MOL    H21 1637   3.402   4.748   5.033  0.1802 -0.1510  2.8127
    9MOL    C22 1638   3.326   4.566   5.008  0.7854 -0.5159 -0.2358
    9MOL    O23 1639   3.349   4.448   4.990 -0.1377 -0.0071 -0.4531
    9MOL    C24 1640   3.184   4.609   5.018 -0.2340  0.2868  0.2502
    9MOL    C25 1641   3.095   4.536   4.915  0.3142 -0.1077 -0.6100
    9MOL    N26 1642   3.082   4.400   4.950  0.7007  0.1069  0.2670
    9MOL    H27 1643   3.174   4.714   4.990  0.6140  0.2720 -0.0929
    9MOL    H28 1644   3.145   4.618   5.120 -4.5674  3.3288 -1.5202
    9MOL    H29 1645   2.995   4.577   4.902  0.5602  1.3718  1.7312
    9MOL    H30 1646   3.152   4.517   4.825  0.2330 -2.1935 -0.2383
    9MOL    H31 1647   3.163   4.377   5.005  1.8398 -0.0220 -1.4428
    9MOL    C32 1648   2.978   4.312   4.937  0.1878  0.3277  0.6331
    9MOL    O33 1649   2.876   4.345   4.874 -0.6768 -0.2435  0.3303
    9MOL    C34 1650   2.993   4.182   5.010 -0.2265 -0.2764 -0.1487
    9MOL    C35 1651   2.868   4.085   5.001  0.1143  0.3244  0.3023
    9MOL    N36 1652   2.865   4.013   4.871  0.0998  0.0225  0.4644
    9MOL    H37 1653   3.023   4.205   5.113  0.5331 -1.4984 -0.0751
    9MOL    H38 1654   3.082   4.132   4.973 -0.7291 -0.4838 -1.0769
    9MOL    H39 1655   2.880   4.005   5.074  0.6320 -0.6490 -0.8293
    9MOL    H40 1656   2.772   4.134   5.021  1.0451  1.8755  1.0829
    9MOL    H41 1657   2.942   4.028   4.808 -0.5552 -0.7324 -0.5258
    9MOL    C42 1658   2.771   3.928   4.831  0.6857  0.1125 -0.0850
    9MOL    O43 1659   2.679   3.905   4.912  0.1761  0.0526  0.4441
    9MOL    C44 1660   2.770   3.877   4.682 -0.5872 -0.1360  0.2530
    9MOL    C45 1661   2.737   3.725   4.676  0.6130  0.0312  0.2053
    9MOL    N46 1662   2.795   3.661   4.556 -0.2606  0.5312 -0.1988
    9MOL    H47 1663   2.701   3.932   4.617  2.3367  1.1918 -1.8210
    9MOL    H48 1664   2.870   3.876   4.639 -0.6779 -0.1233  0.0405
    9MOL    H49 1665   2.764   3.678   4.770  4.3139 -0.1388 -0.8662
    9MOL    H50 1666   2.628   3.716   4.667  0.9225 -0.9773 -2.9935
    9MOL    H51 1667   2.838   3.704   4.476 -1.0852 -1.9870 -2.0627
    9MOL    C52 1668   2.807   3.529   4.553 -0.5484  0.3467 -0.3083
    9MOL    O53 1669   2.757   3.451   4.633 -0.1638  0.2187 -0.3104
    9MOL    C54 1670   2.893   3.473   4.432 -0.1833 -0.3083  0.1447
    9MOL    C55 1671   2.895   3.324   4.429  0.9876  1.0666 -0.8263
    9MOL    N56 1672   2.795   3.251   4.351  0.1532 -0.7409  0.1206
    9MOL    H57 1673   2.872   3.524   4.338  0.5067 -1.3535 -0.5819
    9MOL    H58 1674   2.992   3.511   4.458  0.3681 -0.7168 -1.3273
    9MOL    H59 1675   2.894   3.276   4.527  5.1376  2.0362 -0.2052
    9MOL    H60 1676   2.985   3.280   4.385  1.1174  1.0199 -0.5180
    9MOL    H61 1677   2.770   3.171   4.407  1.4910 -0.7112  0.7934
    9MOL    C62 1678   2.763   3.259   4.219  0.0597  0.1836 -0.4253
    9MOL    O63 1679   2.830   3.331   4.143  0.2133 -0.1806  0.5544
    9MOL    C64 1680   2.653   3.167   4.159  0.0649  0.0596  0.1298
    9MOL    C65 1681   2.547   3.237   4.074 -0.2833  0.6867 -0.2761
    9MOL    N66 1682   2.415   3.189   4.102  0.0107 -0.7178  0.1478
    9MOL    H67 1683   2.709   3.088   4.108 -0.0823 -0.9509  1.5120
    9MOL    H68 1684   2.599   3.134   4.247  0.2073  0.8406  0.5153
    9MOL    H69 1685   2.544   3.343   4.096  1.5847  0.6235  0.3993
    9MOL    H70 1686   2.563   3.219   3.967 -0.1354 -1.6053  0.1107
    9MOL    H71 1687   2.365   3.255   4.160  1.8426  1.0462 -0.2348
    9MOL    C72 1688   2.362   3.074   4.069 -0.3561  0.0495 -0.0977
    9MOL    O73 1689   2.427   2.989   4.005  0.4328 -0.4347  0.0682
    9MOL    C74 1690   2.230   3.040   4.119 -0.2904  0.3987 -0.4502
    9MOL    C75 1691   2.209   2.891   4.144 -0.0951  0.1923  0.6974
    9MOL    N76 1692   2.272   2.840   4.270  0.4705  0.0258 -0.1050
    9MOL    H77 1693   2.203   3.099   4.207 -1.4247  0.7602 -1.0172
    9MOL    H78 1694   2.163   3.073   4.039  1.6884  0.0859 -2.2704
    9MOL    H79 1695   2.103   2.871   4.136 -0.9135  2.3678  4.8508
    9MOL    H80 1696   2.241   2.845   4.050  0.1646  0.2011  0.7803
    9MOL    H81 1697   2.348   2.773   4.265 -0.2826 -0.9038  0.6581
    9MOL    C82 1698   2.219   2.863   4.391 -0.3626 -0.2055 -0.3028
    9MOL    O83 1699   2.118   2.936   4.402  0.3701  0.4983 -0.3436
    9MOL    C84 1700   2.287   2.804   4.517  0.4909  0.6358  0.1818
    9MOL    C85 1701   2.232   2.868   4.649  0.0553  0.4319  0.5647
    9MOL    N86 1702   2.085   2.862   4.663  0.3586  0.0837 -0.3342
    9MOL    H87 1703   2.270   2.697   4.514 -0.5523  0.8039 -0.3660
    9MOL    H88 1704   2.395   2.819   4.515  0.5018  0.8610  1.9886
    9MOL    H89 1705   2.283   2.835   4.740  1.8290 -0.0596 -0.5703
    9MOL    H90 1706   2.263   2.972   4.641 -0.7312  0.5832 -0.6070
    9MOL    H91 1707   2.040   2.952   4.655  1.3799  0.5829 -0.5763
    9MOL    C92 1708   2.010   2.752   4.690 -0.7171  1.0219  0.4466
    9MOL    O93 1709   2.073   2.646   4.726 -0.0722  0.2011 -0.3592
    9MOL    C94 1710   1.863   2.765   4.659 -0.2808 -0.3080 -0.3157
    9MOL    C95 1711   1.776   2.643   4.693  0.6210  0.1297 -0.1176
    9MOL    N96 1712   1.653   2.675   4.765  0.2015 -0.5399  0.0503
    9MOL    H97 1713   1.828   2.843   4.726 -0.3663 -1.2873  0.8050
    9MOL    H98 1714   1.859   2.790   4.553  0.9517  0.3897 -0.2158
    9MOL    H99 1715   1.753   2.604   4.593  2.0280  0.1368 -0.4549
    9MOL   H100 1716   1.828   2.559   4.739  2.7123  1.6053  0.2835
    9MOL   H101 1717   1.668   2.720   4.855  0.4392  1.0815 -0.7708
    9MOL   C102 1718   1.527   2.655   4.718  0.3236  0.5281 -0.4122
    9MOL   O103 1719   1.505   2.620   4.605  0.0980 -0.1346 -0.1545
    9MOL   C104 1720   1.405   2.692   4.810 -0.0392  0.1484  0.2392
    9MOL   C105 1721   1.320   2.805   4.757 -0.6961  0.6058 -0.1489
    9MOL   N106 1722   1.241   2.747   4.646  0.1343 -0.2099 -0.0387
    9MOL   H107 1723   1.439   2.713   4.912 -1.8885  3.2529  0.2677
    9MOL   H108 1724   1.345   2.602   4.826 -2.1754  1.2981 -1.1789
    9MOL   H109 1725   1.258   2.857   4.830 -1.3664  2.1964 -1.8172
    9MOL   H110 1726   1.377   2.890   4.719 -0.7811 -0.5071 -2.8887
    9MOL   H111 1727   1.300   2.719   4.569  0.5239  1.9193 -0.5264
    9MOL   C112 1728   1.108   2.756   4.625 -0.1060 -0.8232  0.3098
    9MOL   O113 1729   1.061   2.718   4.518 -0.3798 -0.3152  0.0800
    9MOL   C114 1730   1.018   2.809   4.732  1.0139 -1.0613 -0.5808
    9MOL   C115 1731   0.933   2.702   4.820 -0.5802  0.5272  0.0037
    9MOL   N116 1732   1.025   2.648   4.924  0.7441  0.6081  0.2708
    9MOL   H117 1733   0.947   2.872   4.678  0.9080  0.4583  1.2560
    9MOL   H118 1734   1.069   2.883   4.794  0.6638 -0.4040 -1.0686
    9MOL   H119 1735   0.853   2.756   4.870  0.5919  1.6531  0.7132
    9MOL   H120 1736   0.885   2.623   4.762  0.5227 -0.7567  0.8168
    9MOL   H121 1737   1.073   2.711   4.987 -0.2198  0.6714  0.9520
    9MOL   C122 1738   1.054   2.518   4.936 -0.0552 -0.3986 -0.0847
    9MOL   O123 1739   0.996   2.435   4.867  0.5966  0.0107  0.3193
    9MOL   C124 1740   1.158   2.476   5.039  0.2746  0.4605 -0.4760
    9MOL   C125 1741   1.214   2.336   5.015 -0.1700 -0.1070  0.4075
    9MOL   N126 1742   1.359   2.330   5.001  0.2757  0.0093 -0.4632
    9MOL   H127 1743   1.113   2.491   5.137  0.3697  0.5759 -0.4503
    9MOL   H128 1744   1.236   2.552   5.035  1.4087 -0.5565  1.7776
    9MOL   H129 1745   1.170   2.263   5.084 -1.7755  0.2126 -0.2556
    9MOL   H130 1746   1.173   2.288   4.926 -0.2506 -3.0445  1.9478
    9MOL   H131 1747   1.392   2.304   4.910 -0.2444  1.2525 -1.0104
    9MOL   C132 1748   1.446   2.320   5.100 -0.5078 -0.2303 -0.0124
    9MOL   O133 1749   1.414   2.355   5.211 -0.3260  0.3930  0.7041
    9MOL   C134 1750   1.594   2.281   5.066  0.3756 -0.6659 -0.7570
    9MOL   C135 1751   1.649   2.365   4.952 -0.9548 -0.3678  0.4088
    9MOL   N136 1752   1.798   2.368   4.950  0.5148 -0.2790  0.4567
    9MOL   H137 1753   1.606   2.176   5.040  0.5343 -0.1456 -2.8235
    9MOL   H138 1754   1.652   2.308   5.155  1.5693 -0.3779 -1.6105
    9MOL   H139 1755   1.607   2.329   4.858  0.4561  1.1905 -0.8430
    9MOL   H140 1756   1.612   2.467   4.961  0.4354  0.0411  1.9522
    9MOL   H141 1757   1.845   2.299   4.893  3.3430  0.8603  1.3209
    9MOL   C142 1758   1.874   2.460   5.013 -0.0420  0.2638 -0.4349
    9MOL   O143 1759   1.818   2.550   5.074  0.0956 -0.2187  0.0877
    9MOL   C144 1760   2.030   2.457   4.994  0.0020  0.5811  0.0538
    9MOL   C145 1761   2.114   2.427   5.120 -0.0789 -0.4053 -0.3292
    9MOL   N146 1762   2.159   2.283   5.142  0.1469 -0.4277 -0.4456
    9MOL   H147 1763   2.060   2.549   4.945  0.7408  0.0442 -0.5206
    9MOL   H148 1764   2.052   2.378   4.922 -0.4954  0.7552 -0.2876
    9MOL   H149 1765   2.194   2.500   5.110 -0.7579  0.4226  0.2057
    9MOL   H150 1766   2.064   2.452   5.214  0.6669  0.9913 -0.2938
    9MOL   H151 1767   2.093   2.212   5.173  0.9858 -0.7217  0.6678
    9MOL   C152 1768   2.291   2.246   5.122  0.4894 -0.0703  0.2789
    9MOL   O153 1769   2.374   2.334   5.089 -0.3083  0.6301  0.2399
    9MOL   C154 1770   2.333   2.101   5.159 -0.1986 -0.1653 -0.6402
    9MOL   C155 1771   2.453   2.074   5.251 -0.1327 -0.9024 -0.0159
    9MOL   N156 1772   2.432   2.121   5.390 -0.0895  0.4348 -0.4756
    9MOL   H157 1773   2.335   2.044   5.066  2.1993  0.2099 -0.8628
    9MOL   H158 1774   2.249   2.057   5.212 -0.9248  3.4797  1.3567
    9MOL   H159 1775   2.483   1.970   5.244  1.8462 -0.2795 -1.3937
    9MOL   H160 1776   2.536   2.127   5.204  0.8329 -3.4726 -1.2423
    9MOL   H161 1777   2.477   2.207   5.417 -0.7290  0.1293  1.6449
    9MOL   C162 1778   2.356   2.064   5.484 -0.2937  0.3769  0.3602
    9MOL   O163 1779   2.307   1.955   5.478 -0.2726 -0.0463  0.4654
    9MOL   C164 1780   2.332   2.154   5.603 -0.1766  0.7546 -0.0593
    9MOL   C165 1781   2.321   2.060   5.734 -0.3747 -0.3491  0.0337
    9MOL   N166 1782   2.441   1.978   5.759  0.0891  0.4280  0.4044
    9MOL   H167 1783   2.243   2.215   5.591  0.5711  1.6165 -1.2895
    9MOL   H168 1784   2.416   2.222   5.618  0.3286  0.2411 -0.5320
    9MOL   H169 1785   2.314   2.119   5.825 -1.0143 -0.8132  0.2898
    9MOL   H170 1786   2.235   1.992   5.733 -1.0573  0.4897  0.5048
    9MOL   H171 1787   2.431   1.878   5.756 -2.1980  0.6122  1.0195
    9MOL   C172 1788   2.558   2.022   5.799  0.6606 -0.8905  0.2280
    9MOL   O173 1789   2.583   2.143   5.826  0.1029  0.5377  0.0580
    9MOL   C174 1790   2.664   1.913   5.820  0.0949 -0.5196  0.4536
    9MOL   C175 1791   2.798   1.934   5.759 -0.1681 -0.2797 -0.4711
    9MOL   N176 1792   2.790   1.912   5.613  0.3681  0.2811  0.5586
    9MOL   H177 1793   2.630   1.812   5.797 -1.0558 -0.6411  2.5130
    9MOL   H178 1794   2.678   1.904   5.928  2.0822  0.6794  0.3171
    9MOL   H179 1795   2.836   2.031   5.788 -2.4436  0.9839 -1.5394
    9MOL   H180 1796   2.863   1.859   5.805 -1.1348 -0.3122  0.8893
    9MOL   H181 1797   2.747   1.829   5.574  1.9495 -1.0817  1.6434
    9MOL   C182 1798   2.832   2.003   5.519 -0.3734 -0.2200  0.2057
    9MOL   O183 1799   2.893   2.103   5.555 -0.0896  0.0714  0.3629
    9MOL   C184 1800   2.808   1.971   5.369  0.2279  0.3974 -0.3778
    9MOL   C185 1801   2.893   2.051   5.277 -0.2488 -0.1423 -0.1589
    9MOL   N186 1802   2.853   2.033   5.143  0.4980 -0.0018  0.0648
    9MOL   H187 1803   2.703   1.997   5.353 -0.0445  0.7043  1.7647
    9MOL   H188 1804   2.831   1.869   5.338 -0.0433  0.8862 -2.2483
    9MOL   H189 1805   2.892   2.158   5.300 -0.2114 -0.3384  0.7811
    9MOL   H190 1806   2.997   2.021   5.291 -0.4749 -0.7264  0.2788
    9MOL   H191 1807   2.793   1.955   5.122  0.4358  0.3235 -0.9973
    9MOL   C192 1808   2.898   2.100   5.043 -0.2844 -0.3985  0.2165
    9MOL   O193 1809   2.987   2.186   5.053 -0.3054 -0.1708 -0.0102
    9MOL   C194 1810   2.831   2.072   4.911 -0.2940  0.2163 -0.5667
    9MOL   C195 1811   2.676   2.081   4.898 -0.0562  0.3161 -0.0192
    9MOL   N196 1812   2.622   2.209   4.923 -0.3032 -0.3645 -0.4617
    9MOL   H197 1813   2.871   2.126   4.825 -2.2491  0.8745 -1.0874
    9MOL   H198 1814   2.866   1.972   4.884  0.2098  0.1263  0.4271
    9MOL   H199 1815   2.653   2.039   4.800  0.1419  2.5169 -1.0200
    9MOL   H200 1816   2.620   2.020   4.969  2.5244  1.5546  3.2167
    9MOL   H201 1817   2.523   2.211   4.940 -0.2428 -1.0265 -0.0151
    9MOL   H202 1818   2.629   2.260   4.836  2.4251  1.0239  0.5308
   10MOL     C1 1819   3.551   3.882   0.782 -0.2318 -0.1041 -0.2344
   10MOL     O2 1820   3.443   3.935   0.809  0.0555  0.3797  0.2675
   10MOL     C3 1821   3.679   3.938   0.851  0.5220  0.3018 -0.0320
   10MOL     C4 1822   3.689   4.093   0.868  0.4182 -0.5058  0.4925
   10MOL     N5 1823   3.757   4.169   0.760 -0.4369 -0.3951  0.5080
   10MOL     H6 1824   3.767   3.900   0.799  0.7805  0.7837  0.0448
   10MOL     H7 1825   3.674   3.894   0.951  0.4293  1.9676  0.7140
   10MOL     H8 1826   3.728   4.114   0.967  1.3783  0.1635 -0.0164
   10MOL     H9 1827   3.592   4.142   0.879  1.2273  1.5036 -1.0483
   10MOL    H10 1828   3.704   4.181   0.675  2.6711  0.2903 -1.3949
   10MOL    H11 1829   3.564   3.790   0.725 -2.1350 -0.3022 -0.3634
   10MOL    C12 1830   3.889   4.203   0.772 -0.4105 -0.5197 -0.1895
   10MOL    O13 1831   3.962   4.188   0.874 -0.3269 -0.2834  0.0348
   10MOL    C14 1832   3.951   4.269   0.650  0.1629 -0.0004  0.9846
   10MOL    C15 1833   4.104   4.278   0.650  0.6476  0.0611 -0.0687
   10MOL    N16 1834   4.150   4.333   0.521 -0.2819  0.0614  0.5216
   10MOL    H17 1835   3.913   4.369   0.633  1.0621  0.0080 -1.0652
   10MOL    H18 1836   3.928   4.203   0.567  0.2808 -0.0138  0.9621
   10MOL    H19 1837   4.142   4.335   0.736 -0.0080  1.1312 -0.4776
   10MOL    H20 1838   4.141   4.177   0.664  1.9900  0.6660  0.9537
   10MOL    H21 1839   4.140   4.432   0.502 -0.3491  0.0643  0.5729
   10MOL    C22 1840   4.179   4.257   0.411 -0.1444 -0.6629  0.0320
   10MOL    O23 1841   4.173   4.132   0.410 -0.0069  0.4520 -0.2104
   10MOL    C24 1842   4.210   4.345   0.291  0.6628 -0.1487  0.0170
   10MOL    C25 1843   4.218   4.266   0.159 -0.7951  0.6954 -0.4533
   10MOL    N26 1844   4.236   4.359   0.047 -0.9192  0.3809  0.2211
   10MOL    H27 1845   4.296   4.409   0.310  0.5094 -0.2256  1.0204
   10MOL    H28 1846   4.131   4.417   0.269  2.0004  0.6547 -2.2955
   10MOL    H29 1847   4.295   4.190   0.170 -1.0582  0.5290  0.2536
   10MOL    H30 1848   4.122   4.216   0.145  0.5912 -2.9645  2.4125
   10MOL    H31 1849   4.279   4.451   0.054 -0.3280  0.0611  0.8321
   10MOL    C32 1850   4.231   4.318   7.703 -0.1671  0.4079  0.9340
   10MOL    O33 1851   4.202   4.200   7.661  0.8157 -0.4301  0.7004
   10MOL    C34 1852   4.281   4.415   7.600  0.3970 -0.1786  0.4569
   10MOL    C35 1853   4.264   4.366   7.451 -0.2335 -0.2085  0.3181
   10MOL    N36 1854   4.125   4.388   7.403  0.1855  0.0170 -0.0430
   10MOL    H37 1855   4.386   4.428   7.624 -0.1772 -2.1990  4.3527
   10MOL    H38 1856   4.231   4.512   7.607 -0.2334 -0.2733 -2.1990
   10MOL    H39 1857   4.319   4.429   7.382  0.1400 -1.4591 -0.5344
   10MOL    H40 1858   4.301   4.264   7.445  0.2382 -0.1018  1.3120
   10MOL    H41 1859   4.088   4.478   7.430 -1.0525 -0.6782  0.6624
   10MOL    C42 1860   4.082   4.322   7.294  0.1353 -0.4835 -0.8879
   10MOL    O43 1861   4.122   4.214   7.252 -0.0019  0.0122  0.4418
   10MOL    C44 1862   3.952   4.375   7.231  0.5975 -0.3141  0.7687
   10MOL    C45 1863   3.972   4.398   7.081 -0.1849 -0.0478  0.1524
   10MOL    N46 1864   4.086   4.488   7.052 -0.1541 -0.3628 -0.4560
   10MOL    H47 1865   3.868   4.312   7.259 -2.4615  2.2508 -2.2055
   10MOL    H48 1866   3.916   4.463   7.285 -3.2198 -0.7450 -0.9149
   10MOL    H49 1867   3.989   4.302   7.033 -3.1638 -2.3563  3.4741
   10MOL    H50 1868   3.880   4.440   7.041 -1.0185 -0.3919  1.7188
   10MOL    H51 1869   4.178   4.449   7.039  0.2597  0.7108 -0.8409
   10MOL    C52 1870   4.073   4.620   7.024  0.0337  0.2926  0.1534
   10MOL    O53 1871   3.959   4.675   7.010  0.9781 -0.0430  0.3365
   10MOL    C54 1872   4.206   4.697   6.994  0.9195  0.3489 -0.0279
   10MOL    C55 1873   4.275   4.751   7.117  0.4547  0.1007  0.1579
   10MOL    N56 1874   4.398   4.822   7.085 -0.1656 -0.4624  0.1535
   10MOL    H57 1875   4.270   4.624   6.945  2.2329  1.7125 -0.3945
   10MOL    H58 1876   4.183   4.779   6.926 -0.5217 -0.4693 -0.5620
   10MOL    H59 1877   4.297   4.664   7.179  0.8666 -0.6056 -0.9642
   10MOL    H60 1878   4.203   4.812   7.171  0.2626  0.9703 -1.0442
   10MOL    H61 1879   4.410   4.837   6.985 -1.2279 -0.6059  0.0005
   10MOL    C62 1880   4.495   4.865   7.168  0.8004  0.0274 -0.2561
   10MOL    O63 1881   4.587   4.931   7.122 -0.2220  0.2693  0.2498
   10MOL    C64 1882   4.491   4.842   7.321  0.2158 -0.8614  0.6160
   10MOL    C65 1883   4.468   4.696   7.354  0.6154 -0.6268 -1.3357
   10MOL    N66 1884   4.535   4.668   7.477 -0.3868 -0.0212  0.2854
   10MOL    H67 1885   4.587   4.883   7.352 -0.1826  2.0150 -1.6611
   10MOL    H68 1886   4.405   4.892   7.365  0.5866  0.9267 -0.6135
   10MOL    H69 1887   4.364   4.668   7.365  0.2320  1.3528  0.2952
   10MOL    H70 1888   4.511   4.627   7.281  1.6588 -1.3074 -0.1180
   10MOL    H71 1889   4.535   4.756   7.526 -1.9043  0.0337  0.2180
   10MOL    C72 1890   4.611   4.564   7.501  0.1853  0.1692 -0.2100
   10MOL    O73 1891   4.608   4.461   7.432  0.2598 -0.1097 -0.8805
   10MOL    C74 1892   4.708   4.575   7.614  0.1415 -0.0751 -0.9243
   10MOL    C75 1893   4.649   4.563   7.760 -0.3427  0.0157  0.2940
   10MOL    N76 1894   4.563   4.685   0.014 -0.7336 -1.1368 -0.4191
   10MOL    H77 1895   4.790   4.504   7.603  0.3345 -0.2048  1.1245
   10MOL    H78 1896   4.764   4.667   7.596  0.5262  0.1799  1.3923
   10MOL    H79 1897   4.598   4.467   7.763  0.2353 -0.3192 -0.5684
   10MOL    H80 1898   4.726   4.548   0.056  0.6051 -1.4983 -0.9474
   10MOL    H81 1899   4.594   4.776   7.763  0.0597 -0.6189  1.8292
   10MOL    C82 1900   4.450   4.681   0.076 -0.0479 -1.0190 -0.2593
   10MOL    O83 1901   4.399   4.570   0.107 -0.0315  0.8071  0.4052
   10MOL    C84 1902   4.384   4.817   0.092 -0.3625 -0.3735 -0.9999
   10MOL    C85 1903   4.274   4.820   0.203 -0.0777 -0.0398  0.9566
   10MOL    N86 1904   4.220   4.949   0.248 -0.7229 -0.0327 -0.6218
   10MOL    H87 1905   4.458   4.894   0.116 -0.2452 -0.5663 -0.7336
   10MOL    H88 1906   4.334   4.848   0.000  0.6139 -2.9702 -2.4434
   10MOL    H89 1907   4.201   4.755   0.155  0.7720  0.4104 -0.9703
   10MOL    H90 1908   4.310   4.765   0.290 -1.7926 -1.9842  0.4710
   10MOL    H91 1909   4.258   5.007   0.322 -0.8813  1.2230 -1.5152
   10MOL    C92 1910   4.103   4.996   0.226  0.3667  0.0143 -0.0520
   10MOL    O93 1911   4.027   4.949   0.144 -0.4776  0.3651  0.5848
   10MOL    C94 1912   4.061   5.127   0.297 -0.0576  0.7157  0.2058
   10MOL    C95 1913   4.028   5.235   0.199  0.0274 -0.2457 -0.2893
   10MOL    N96 1914   4.154   5.311   0.173  0.5072 -0.1024 -0.4659
   10MOL    H97 1915   3.982   5.110   0.371 -1.6115  1.9145 -1.1392
   10MOL    H98 1916   4.135   5.163   0.369 -1.0203  3.2360  0.0082
   10MOL    H99 1917   3.979   5.195   0.111 -2.3044  2.2597 -0.2153
   10MOL   H100 1918   3.949   5.297   0.242 -0.1899 -0.9672  0.3748
   10MOL   H101 1919   4.223   5.310   0.246  0.2719 -1.0848 -0.2487
   10MOL   C102 1920   4.165   5.390   0.062 -0.3270 -0.0188  0.7005
   10MOL   O103 1921   4.072   5.408   7.767  0.7092 -0.1861  0.2029
   10MOL   C104 1922   4.291   5.466   0.016  0.1903 -0.0965  0.7077
   10MOL   C105 1923   4.300   5.622   0.048 -0.1372  0.0741  0.6458
   10MOL   N106 1924   4.198   5.702   7.766  0.5156  0.0505  0.3491
   10MOL   H107 1925   4.299   5.456   7.688 -1.1866 -0.8077  0.6640
   10MOL   H108 1926   4.372   5.416   0.070  1.3822  1.0073 -0.0380
   10MOL   H109 1927   4.308   5.644   0.155  1.3473 -0.8819  0.7403
   10MOL   H110 1928   4.394   5.664   0.014 -0.9451  1.2529 -0.1623
   10MOL   H111 1929   4.143   5.761   0.046 -0.6639  0.0850 -0.7514
   10MOL   C112 1930   4.164   5.708   7.636 -0.1230  0.2165  0.6665
   10MOL   O113 1931   4.223   5.641   7.553 -0.1128  1.0566  0.1676
   10MOL   C114 1932   4.045   5.796   7.595  0.7275 -0.7616 -0.0150
   10MOL   C115 1933   3.941   5.725   7.514 -0.1323  0.0806  0.1666
   10MOL   N116 1934   3.880   5.611   7.590  0.2116  0.1890 -0.6073
   10MOL   H117 1935   4.099   5.859   7.524 -1.1954 -0.1879 -1.0130
   10MOL   H118 1936   4.018   5.868   7.672  3.1534 -1.5689  1.6417
   10MOL   H119 1937   3.872   5.801   7.476  0.6559 -0.3017 -2.0933
   10MOL   H120 1938   3.987   5.682   7.426  0.2911 -0.5786  0.7053
   10MOL   H121 1939   3.946   5.536   7.609  0.5679  0.5276 -0.5144
   10MOL   C122 1940   3.759   5.599   7.647 -0.1327  0.4564  0.2763
   10MOL   O123 1941   3.673   5.676   7.635 -0.0385  0.4092  0.3523
   10MOL   C124 1942   3.734   5.484   7.750 -0.7839 -0.4197  0.4243
   10MOL   C125 1943   3.750   5.519   0.114  0.0624  0.4908 -0.2330
   10MOL   N126 1944   3.663   5.443   0.203 -0.0177  0.0795  0.8372
   10MOL   H127 1945   3.796   5.396   7.735 -1.5627 -1.0850  1.0021
   10MOL   H128 1946   3.632   5.448   7.733 -1.4222  1.8996 -0.9514
   10MOL   H129 1947   3.854   5.499   0.140 -0.2384 -0.8822 -0.0754
   10MOL   H130 1948   3.742   5.626   0.135  0.1296  0.4991 -0.2500
   10MOL   H131 1949   3.620   5.363   0.159 -2.0930  2.3069 -1.3504
   10MOL   C132 1950   3.618   5.473   0.321 -0.3376  0.3856 -0.0943
   10MOL   O133 1951   3.659   5.564   0.393  0.2819  0.7424  0.4681
   10MOL   C134 1952   3.502   5.387   0.361  0.0675  0.5752 -0.3090
   10MOL   C135 1953   3.499   5.331   0.509  0.2728  0.0890  0.4387
   10MOL   N136 1954   3.481   5.438   0.611  0.5930 -0.0597 -0.3060
   10MOL   H137 1955   3.496   5.300   0.296 -0.7762  0.3734  0.0315
   10MOL   H138 1956   3.409   5.437   0.333 -0.2135 -0.2653 -0.8839
   10MOL   H139 1957   3.431   5.246   0.515  0.1160  0.0181 -1.9529
   10MOL   H140 1958   3.602   5.303   0.530  1.0138 -0.2031 -3.2687
   10MOL   H141 1959   3.467   5.533   0.579  0.5394 -0.6346 -2.0376
   10MOL   C142 1960   3.451   5.410   0.740 -0.8643  0.1985 -1.0303
   10MOL   O143 1961   3.460   5.296   0.788 -0.7197 -0.9529 -0.7964
   10MOL   C144 1962   3.416   5.537   0.818  0.2409 -0.5555  0.0446
   10MOL   C145 1963   3.538   5.618   0.849  0.5312  0.2316 -0.2491
   10MOL   N146 1964   3.596   5.701   0.742  0.6567  0.0172  0.0439
   10MOL   H147 1965   3.372   5.514   0.915  1.3596  1.4943  1.0763
   10MOL   H148 1966   3.338   5.594   0.768  0.6222  0.2702  0.3784
   10MOL   H149 1967   3.504   5.688   0.926 -2.1730 -1.7490  0.4021
   10MOL   H150 1968   3.619   5.558   0.891 -0.7902  0.4236  2.7507
   10MOL   H151 1969   3.535   5.724   0.664 -0.8951 -0.3970  1.1283
   10MOL   C152 1970   3.694   5.788   0.774 -0.6403 -0.1611 -0.0745
   10MOL   O153 1971   3.777   5.764   0.858  0.1713  0.4135 -0.3321
   10MOL   C154 1972   3.713   5.908   0.683  0.2538 -0.1431 -0.1349
   10MOL   C155 1973   3.720   6.033   0.772  0.3158 -0.2820 -0.0543
   10MOL   N156 1974   3.662   6.150   0.702  0.2862 -0.1427 -0.0482
   10MOL   H157 1975   3.622   5.911   0.624  1.3488  0.5292 -1.8271
   10MOL   H158 1976   3.802   5.891   0.622  1.6380  0.2021  1.7657
   10MOL   H159 1977   3.663   6.015   0.863  0.4918 -0.4743  0.0178
   10MOL   H160 1978   3.817   6.057   0.814  0.1509  1.8093 -0.8472
   10MOL   H161 1979   3.652   6.143   0.601  2.0388  0.1879 -0.2632
   10MOL   C162 1980   3.591   6.242   0.768  0.1902  0.0968 -0.4049
   10MOL   O163 1981   3.606   6.262   0.888  0.7329  0.3834  0.0797
   10MOL   C164 1982   3.499   6.325   0.684 -0.4947 -0.2978 -0.6936
   10MOL   C165 1983   3.424   6.429   0.772 -0.1450  0.1333  0.2982
   10MOL   N166 1984   3.332   6.500   0.685 -0.2493  0.2230 -0.5575
   10MOL   H167 1985   3.437   6.250   0.636  0.2613 -1.0454 -0.5043
   10MOL   H168 1986   3.548   6.389   0.611 -0.3187  1.8741  1.2435
   10MOL   H169 1987   3.363   6.378   0.846 -0.2895 -0.9511 -0.5537
   10MOL   H170 1988   3.496   6.497   0.817  2.6143 -1.3601 -1.6885
   10MOL   H171 1989   3.367   6.583   0.639 -0.8871  1.0722  0.4793
   10MOL   C172 1990   3.215   6.453   0.644  0.2985  0.5964  0.2496
   10MOL   O173 1991   3.167   6.339   0.661 -0.4662 -0.7025 -0.4943
   10MOL   C174 1992   3.137   6.547   0.552  0.6433 -0.5893  0.2200
   10MOL   C175 1993   2.994   6.582   0.599  0.4335 -0.8013 -0.1413
   10MOL   N176 1994   2.939   6.674   0.497 -0.2192 -0.0994 -0.1176
   10MOL   H177 1995   3.123   6.486   0.462  1.7583  0.9141 -1.0110
   10MOL   H178 1996   3.186   6.637   0.516  0.8022  0.1403  2.2127
   10MOL   H179 1997   2.926   6.497   0.607 -0.7286  0.0327 -0.8551
   10MOL   H180 1998   2.976   6.621   0.699 -4.0091  0.8269 -1.4212
   10MOL   H181 1999   2.981   6.680   0.405 -0.2614  1.8655 -0.0436
   10MOL   C182 2000   2.828   6.750   0.500 -0.1539 -0.1294  0.4230
   10MOL   O183 2001   2.757   6.766   0.598 -0.0403 -0.0841 -0.6754
   10MOL   C184 2002   2.773   6.805   0.365  0.4311  0.4124  0.1372
   10MOL   C185 2003   2.871   6.906   0.293 -0.4346  1.1394  0.3907
   10MOL   N186 2004   2.916   6.845   0.173 -0.7717 -0.3968  0.1161
   10MOL   H187 2005   2.678   6.856   0.384  0.1265 -0.6999  1.7390
   10MOL   H188 2006   2.758   6.720   0.300 -0.7988  0.6217  0.1265
   10MOL   H189 2007   2.816   6.996   0.263 -0.5160  0.6500 -0.9938
   10MOL   H190 2008   2.960   6.941   0.344  0.6287 -0.2810 -0.4577
   10MOL   H191 2009   2.899   6.892   0.085 -1.6030  0.0137  0.4849
   10MOL   C192 2010   3.002   6.745   0.153  0.0580 -0.1513  0.7150
   10MOL   O193 2011   3.053   6.674   0.246  0.0589  0.2300  0.1177
   10MOL   C194 2012   3.045   6.715   0.013 -0.5621  0.1273  0.5424
   10MOL   C195 2013   3.129   6.830   7.742 -0.0950  1.0575 -0.1781
   10MOL   N196 2014   3.258   6.839   0.019 -0.2051  0.3040  1.2010
   10MOL   H197 2015   3.100   6.622   0.001 -0.0288  0.6202 -1.0998
   10MOL   H198 2016   2.949   6.699   7.743 -0.3968 -1.2011  0.6390
   10MOL   H199 2017   3.146   6.815   7.635 -1.7746 -3.8068  0.1502
   10MOL   H200 2018   3.076   6.925   7.750 -1.4247  0.4031 -0.8976
   10MOL   H201 2019   3.274   6.922   0.073 -1.2790  0.3822  1.4205
   10MOL   H202 2020   3.300   6.766   0.074 -0.7745 -1.0819 -0.1545
   11MOL     C1 2021   1.096   2.026   5.862  0.6634  0.8417 -0.2492
   11MOL     O2 2022   1.114   2.122   5.933 -0.0006  0.6691 -0.3507
   11MOL     C3 2023   1.179   1.897   5.874  0.5987  0.2568  0.4949
   11MOL     C4 2024   1.111   1.774   5.821  0.2348  0.0675  0.7676
   11MOL     N5 2025   1.128   1.769   5.675  0.0514  0.1616  0.1184
   11MOL     H6 2026   1.212   1.876   5.976  3.1307 -1.7657 -0.6850
   11MOL     H7 2027   1.276   1.913   5.827  1.6979 -1.6504  2.0364
   11MOL     H8 2028   1.006   1.786   5.848  0.3792 -1.3943  2.0858
   11MOL     H9 2029   1.150   1.678   5.855  1.0772 -0.2801 -1.1433
   11MOL    H10 2030   1.133   1.856   5.625  1.8313 -0.0274 -0.0674
   11MOL    H11 2031   1.022   2.015   5.782  0.3989 -2.4942  0.3561
   11MOL    C12 2032   1.093   1.663   5.597  0.1859 -0.2310  0.2364
   11MOL    O13 2033   1.085   1.551   5.653 -0.4081 -0.0014 -0.4332
   11MOL    C14 2034   1.098   1.684   5.449  0.5266  0.2078  0.5985
   11MOL    C15 2035   1.089   1.557   5.362 -0.4200  0.5078 -0.0481
   11MOL    N16 2036   1.177   1.550   5.249 -0.2259  0.0004 -0.3830
   11MOL    H17 2037   1.188   1.743   5.431  0.1161 -0.2251 -3.5325
   11MOL    H18 2038   1.005   1.737   5.431 -0.7627 -1.7458  1.4061
   11MOL    H19 2039   1.129   1.480   5.428  1.0703 -0.2412 -1.7962
   11MOL    H20 2040   0.990   1.526   5.329 -1.0067 -0.0997  2.1693
   11MOL    H21 2041   1.261   1.498   5.266  0.6229  1.4676  0.0008
   11MOL    C22 2042   1.161   1.597   5.127 -0.3688 -0.3210  0.7463
   11MOL    O23 2043   1.063   1.660   5.085 -0.0997  0.2026 -0.1020
   11MOL    C24 2044   1.264   1.550   5.023  0.4431  0.0149  0.3876
   11MOL    C25 2045   1.226   1.553   4.876 -0.1762 -0.0422 -0.0869
   11MOL    N26 2046   1.161   1.677   4.840 -0.2109  0.1207 -0.0742
   11MOL    H27 2047   1.291   1.447   5.047  0.1754 -0.0553  0.3961
   11MOL    H28 2048   1.351   1.615   5.027 -0.3584  1.0602  1.4216
   11MOL    H29 2049   1.318   1.545   4.818 -1.6772 -0.5743 -2.5100
   11MOL    H30 2050   1.154   1.472   4.864  1.2672 -1.9597  3.4917
   11MOL    H31 2051   1.092   1.714   4.904  0.3028  0.8364  0.0748
   11MOL    C32 2052   1.192   1.754   4.733 -0.2742 -0.2869 -0.1095
   11MOL    O33 2053   1.288   1.731   4.662 -0.0375 -0.1287 -0.1321
   11MOL    C34 2054   1.117   1.881   4.717 -0.9037 -0.5491  0.0462
   11MOL    C35 2055   1.176   1.992   4.810 -0.4051  0.1749  0.5879
   11MOL    N36 2056   1.131   1.978   4.941  0.4164  0.7517  0.3431
   11MOL    H37 2057   1.010   1.859   4.721 -1.1169 -0.2101 -2.4694
   11MOL    H38 2058   1.126   1.915   4.613 -0.2279 -0.6530  0.0737
   11MOL    H39 2059   1.283   1.990   4.792 -0.5094  0.8506 -0.1692
   11MOL    H40 2060   1.151   2.088   4.764  1.9126  1.1579  1.3510
   11MOL    H41 2061   1.204   1.940   4.999  0.4272 -1.2012 -0.9037
   11MOL    C42 2062   1.012   2.005   4.995  0.2534  0.0260  0.4219
   11MOL    O43 2063   0.985   1.984   5.112  0.3526 -0.5110  0.6637
   11MOL    C44 2064   0.891   2.069   4.905 -0.7370  0.0700  0.1432
   11MOL    C45 2065   0.745   2.011   4.930 -0.2484 -0.4464 -0.0898
   11MOL    N46 2066   0.744   1.867   4.905  0.3723  0.1724 -0.0534
   11MOL    H47 2067   0.901   2.171   4.942 -1.4651  0.4207 -0.6234
   11MOL    H48 2068   0.909   2.065   4.798  0.7269 -0.0501  0.3735
   11MOL    H49 2069   0.707   2.024   5.031 -1.5105 -1.3198 -0.4379
   11MOL    H50 2070   0.682   2.068   4.861 -0.3411  1.5529  1.6148
   11MOL    H51 2071   0.786   1.812   4.979 -1.0127 -0.2637  0.4289
   11MOL    C52 2072   0.654   1.801   4.835 -0.2026 -0.2001  1.0428
   11MOL    O53 2073   0.568   1.853   4.762  0.4330 -0.0248  0.0158
   11MOL    C54 2074   0.673   1.656   4.843 -0.2544 -0.1875 -0.5450
   11MOL    C55 2075   0.762   1.592   4.725 -0.1509  0.2754  0.0704
   11MOL    N56 2076   0.752   1.443   4.721  0.6235 -0.6600 -0.4979
   11MOL    H57 2077   0.717   1.636   4.941  0.1438 -1.5086 -0.9855
   11MOL    H58 2078   0.579   1.602   4.853  0.8588 -1.9393  0.9695
   11MOL    H59 2079   0.860   1.640   4.717 -0.5763  0.5812 -3.9465
   11MOL    H60 2080   0.717   1.615   4.629  1.9742  0.1578 -0.9763
   11MOL    H61 2081   0.672   1.416   4.666  0.1092  1.1399 -0.6902
   11MOL    C62 2082   0.823   1.357   4.790 -0.1517  0.2380  0.0456
   11MOL    O63 2083   0.913   1.396   4.860 -0.0388 -0.7395 -0.6552
   11MOL    C64 2084   0.788   1.209   4.770  0.6260  0.1495  0.5414
   11MOL    C65 2085   0.907   1.115   4.752  0.5723 -0.3595  0.3136
   11MOL    N66 2086   0.874   1.004   4.662 -0.7048 -0.0278 -0.0003
   11MOL    H67 2087   0.722   1.179   4.852  0.6837  1.7236  1.1921
   11MOL    H68 2088   0.724   1.200   4.682 -0.5502  0.7537  1.3194
   11MOL    H69 2089   0.996   1.168   4.716 -0.2965 -0.2980 -1.8016
   11MOL    H70 2090   0.937   1.071   4.847  1.2187 -1.4641 -0.3886
   11MOL    H71 2091   0.918   0.998   4.571  0.5385 -2.0305  0.7040
   11MOL    C72 2092   0.806   0.899   4.704 -0.6067 -0.5104 -0.4903
   11MOL    O73 2093   0.725   0.898   4.798  0.0972 -0.6542 -0.2052
   11MOL    C74 2094   0.829   0.774   4.624  0.5183 -0.0295 -0.1598
   11MOL    C75 2095   0.849   0.644   4.704 -0.9160 -0.0975  0.2090
   11MOL    N76 2096   0.738   0.554   4.695  0.2433 -0.2643  0.0723
   11MOL    H77 2097   0.736   0.768   4.568 -0.3099 -0.3365  1.2038
   11MOL    H78 2098   0.910   0.798   4.556  0.9567 -1.5707 -0.2136
   11MOL    H79 2099   0.930   0.586   4.659 -1.9059 -1.0677 -0.3358
   11MOL    H80 2100   0.865   0.666   4.810 -1.6794  0.5198  0.1935
   11MOL    H81 2101   0.671   0.562   4.770  2.5082 -1.4680  2.3090
   11MOL    C82 2102   0.689   0.490   4.587  0.0704 -0.2554 -0.0391
   11MOL    O83 2103   0.747   0.497   4.473  0.0816 -0.5575 -0.2250
   11MOL    C84 2104   0.548   0.428   4.599 -0.1604  0.3447  0.0043
   11MOL    C85 2105   0.443   0.516   4.532 -0.4206  1.1088  0.6941
   11MOL    N86 2106   0.425   0.640   4.608 -0.0249 -0.1556  0.9571
   11MOL    H87 2107   0.535   0.334   4.545 -1.5584 -0.2393  1.3238
   11MOL    H88 2108   0.531   0.418   4.706 -0.2688 -0.7393 -0.1117
   11MOL    H89 2109   0.475   0.531   4.429  0.4610 -3.5043  0.1999
   11MOL    H90 2110   0.347   0.463   4.535 -0.1740  0.6970  1.3373
   11MOL    H91 2111   0.445   0.631   4.707  0.6659  1.1323  0.9495
   11MOL    C92 2112   0.368   0.751   4.557  0.3116 -0.1117 -0.9683
   11MOL    O93 2113   0.328   0.751   4.440 -0.2600  0.1078 -0.1679
   11MOL    C94 2114   0.357   0.878   4.644  0.3196 -0.1863  0.6787
   11MOL    C95 2115   0.441   0.989   4.579  0.0881 -0.6009  0.1126
   11MOL    N96 2116   0.452   1.100   4.659  0.2892 -0.5739 -0.4847
   11MOL    H97 2117   0.254   0.913   4.642 -0.2961 -2.0097 -0.2937
   11MOL    H98 2118   0.384   0.853   4.747 -1.2356 -1.8627  0.6979
   11MOL    H99 2119   0.540   0.948   4.563  0.8341  0.7837  1.0941
   11MOL   H100 2120   0.394   1.011   4.483  1.5810 -0.5908 -0.6354
   11MOL   H101 2121   0.531   1.090   4.721 -0.2080 -2.1172 -0.0737
   11MOL   C102 2122   0.402   1.225   4.634 -0.0782 -0.2343  0.0640
   11MOL   O103 2123   0.457   1.322   4.685 -0.2263  0.3400  0.0532
   11MOL   C104 2124   0.276   1.238   4.544 -0.8813 -0.1781  0.1481
   11MOL   C105 2125   0.292   1.323   4.417  0.2972 -0.0432 -0.2131
   11MOL   N106 2126   0.313   1.465   4.443 -0.8103  0.4885 -0.2492
   11MOL   H107 2127   0.191   1.267   4.606 -0.5515  0.1463  0.4503
   11MOL   H108 2128   0.240   1.141   4.511 -0.6981  0.0234 -0.6469
   11MOL   H109 2129   0.377   1.275   4.369 -0.5910 -1.9262  0.0413
   11MOL   H110 2130   0.205   1.320   4.351  0.1289 -1.1676  0.0461
   11MOL   H111 2131   0.392   1.504   4.393  0.6946  0.4599  2.0315
   11MOL   C112 2132   0.262   1.548   4.535 -0.7676  0.0373  1.0861
   11MOL   O113 2133   0.176   1.514   4.608 -0.4881 -0.7162 -0.3851
   11MOL   C114 2134   0.316   1.685   4.557  0.4770  0.0556 -0.3124
   11MOL   C115 2135   0.238   1.798   4.480  0.6421  0.1643  0.0998
   11MOL   N116 2136   0.260   1.809   4.333 -0.4246  1.0763  0.3231
   11MOL   H117 2137   0.420   1.691   4.524  0.3015  1.3406 -0.6784
   11MOL   H118 2138   0.302   1.712   4.662  0.2879 -0.2967 -0.2502
   11MOL   H119 2139   0.130   1.784   4.482  0.8237 -1.2179  1.5497
   11MOL   H120 2140   0.257   1.890   4.534 -3.3837  1.0441  0.1643
   11MOL   H121 2141   0.334   1.758   4.287 -0.1078  2.2832 -0.5238
   11MOL   C122 2142   0.217   1.915   4.268  0.7788  0.0253  0.6466
   11MOL   O123 2143   0.128   1.988   4.306  0.5622  0.1497  0.1588
   11MOL   C124 2144   0.257   1.926   4.118 -0.1825 -0.0398  0.6125
   11MOL   C125 2145   0.158   1.964   4.006 -0.5456 -0.3269 -0.4622
   11MOL   N126 2146   0.062   1.862   3.975  0.2677  0.2370 -0.5489
   11MOL   H127 2147   0.311   1.837   4.086 -0.3517 -0.2528  0.9155
   11MOL   H128 2148   0.333   2.004   4.109 -0.3199 -0.0879 -1.2222
   11MOL   H129 2149   0.105   2.053   4.039  0.0041 -0.5854  1.1384
   11MOL   H130 2150   0.216   2.001   3.921  0.6202 -1.3968 -0.1614
   11MOL   H131 2151   0.099   1.772   3.947  0.7808 -0.0111  0.9035
   11MOL   C132 2152   7.714   1.859   3.997  0.4500 -0.1829  0.0312
   11MOL   O133 2153   7.653   1.956   4.031  0.1020 -0.5101 -0.4344
   11MOL   C134 2154   7.647   1.723   3.960  0.2342 -0.5399  0.2290
   11MOL   C135 2155   7.502   1.707   3.997 -0.6456  0.6624 -1.2297
   11MOL   N136 2156   7.407   1.752   3.890 -0.0230 -0.3794  0.3961
   11MOL   H137 2157   7.699   1.646   4.016 -3.4598 -2.6507  0.9221
   11MOL   H138 2158   7.655   1.707   3.852 -0.3754 -1.2954  0.2857
   11MOL   H139 2159   7.476   1.602   4.013 -0.5416  0.8510  0.1848
   11MOL   H140 2160   7.471   1.743   4.095  0.0628 -2.5241  0.2484
   11MOL   H141 2161   7.365   1.843   3.900 -2.1910 -1.2161 -0.7286
   11MOL   C142 2162   7.349   1.674   3.803 -0.0675 -0.0045 -0.0603
   11MOL   O143 2163   7.369   1.555   3.790  0.0317  0.3402 -0.1456
   11MOL   C144 2164   7.246   1.742   3.715  0.0875  0.2060  0.2525
   11MOL   C145 2165   7.112   1.793   3.778  0.6451 -0.1060 -0.1139
   11MOL   N146 2166   7.019   1.686   3.818 -0.4637  0.0294  0.0817
   11MOL   H147 2167   7.216   1.675   3.635 -0.1555 -1.4631  1.7114
   11MOL   H148 2168   7.295   1.820   3.657  0.1473 -0.9782 -1.3279
   11MOL   H149 2169   7.133   1.843   3.873 -3.2302 -1.2762  1.4758
   11MOL   H150 2170   7.067   1.872   3.718 -0.2496 -0.5776 -0.0740
   11MOL   H151 2171   7.037   1.638   3.906 -0.8870 -0.2453  0.0190
   11MOL   C152 2172   6.935   1.622   3.733 -1.1057  0.4044  0.0269
   11MOL   O153 2173   6.901   1.677   3.630  0.9410  0.0243  0.2682
   11MOL   C154 2174   6.880   1.487   3.768  0.0349  0.4784 -0.2075
   11MOL   C155 2175   6.928   1.379   3.672  1.0837  0.0331  0.0748
   11MOL   N156 2176   7.066   1.319   3.687 -0.1002 -0.5858  0.2819
   11MOL   H157 2177   6.771   1.486   3.758  0.1400 -1.5015 -1.5327
   11MOL   H158 2178   6.907   1.453   3.868  0.4506 -0.4395 -0.6248
   11MOL   H159 2179   6.858   1.296   3.669 -1.6081  2.1731  1.3837
   11MOL   H160 2180   6.914   1.422   3.572 -2.4695  2.2532  1.4248
   11MOL   H161 2181   7.140   1.364   3.635  0.9578 -2.5858  0.0389
   11MOL   C162 2182   7.106   1.231   3.769 -0.0210 -0.1643  0.2082
   11MOL   O163 2183   7.034   1.169   3.843 -0.1709 -0.0780 -0.7256
   11MOL   C164 2184   7.254   1.208   3.771  0.4147  0.4799 -0.6024
   11MOL   C165 2185   7.286   1.059   3.796 -0.0611  0.2698  0.2963
   11MOL   N166 2186   7.398   1.016   3.707 -0.3314  0.6034 -0.0960
   11MOL   H167 2187   7.298   1.271   3.848 -1.3598 -0.6662  1.3813
   11MOL   H168 2188   7.290   1.231   3.670 -2.9076 -0.2190 -2.0242
   11MOL   H169 2189   7.324   1.042   3.897 -0.7144  0.0456  0.5023
   11MOL   H170 2190   7.204   0.995   3.766 -0.9077  1.1738  0.6761
   11MOL   H171 2191   7.477   1.078   3.706 -0.2910  0.5845  0.9365
   11MOL   C172 2192   7.407   0.901   3.638  0.6674  0.6585 -0.3004
   11MOL   O173 2193   7.325   0.813   3.648 -0.2465  0.2224 -0.4297
   11MOL   C174 2194   7.533   0.883   3.552  1.0908  0.5710 -0.9083
   11MOL   C175 2195   7.552   0.738   3.503 -0.5413  0.4261  0.2116
   11MOL   N176 2196   7.458   0.707   3.392 -0.2790 -0.5741 -0.1133
   11MOL   H177 2197   7.618   0.925   3.605  0.8783  0.7669 -0.7251
   11MOL   H178 2198   7.527   0.944   3.462  1.3846 -0.6946 -1.8017
   11MOL   H179 2199   7.656   0.721   3.476 -0.3076  1.4763  0.4298
   11MOL   H180 2200   7.535   0.661   3.579 -0.5511  0.9936  0.7840
   11MOL   H181 2201   7.389   0.637   3.417  1.3753 -1.8195  1.1347
   11MOL   C182 2202   7.482   0.746   3.260 -0.6546 -0.8137  0.3086
   11MOL   O183 2203   7.575   0.823   3.220  0.1408  0.8207 -0.0514
   11MOL   C184 2204   7.382   0.690   3.159 -0.5766 -0.1267 -0.0318
   11MOL   C185 2205   7.404   0.733   3.019  0.1956 -0.3858  0.1371
   11MOL   N186 2206   7.310   0.675   2.925  0.4342  0.9611 -0.1912
   11MOL   H187 2207   7.280   0.696   3.197 -0.2762  0.1642  0.7416
   11MOL   H188 2208   7.400   0.583   3.165  1.6250  0.3325  2.7662
   11MOL   H189 2209   7.395   0.842   3.018  0.7134 -0.3513 -1.4429
   11MOL   H190 2210   7.504   0.708   2.985  0.6993  0.5216  0.9213
   11MOL   H191 2211   7.247   0.602   2.955  0.1964  1.4913  0.6289
   11MOL   C192 2212   7.319   0.705   2.793  0.5094 -0.1410 -0.2778
   11MOL   O193 2213   7.402   0.783   2.753 -0.1321  0.4421 -0.1291
   11MOL   C194 2214   7.234   0.629   2.694  0.1455 -0.2468  0.1080
   11MOL   C195 2215   7.324   0.588   2.574 -0.6777 -0.0324  0.6445
   11MOL   N196 2216   7.253   0.511   2.476  0.2191  0.5193  0.1496
   11MOL   H197 2217   7.182   0.546   2.742 -1.1751  0.5478  0.0749
   11MOL   H198 2218   7.152   0.686   2.650  0.1621 -1.4469 -1.5079
   11MOL   H199 2219   7.344   0.680   2.520 -2.4706 -0.1842 -0.3113
   11MOL   H200 2220   7.417   0.548   2.615 -0.1158  0.7529  0.1604
   11MOL   H201 2221   7.319   0.473   2.410 -1.6645  1.4358 -2.3443
   11MOL   H202 2222   7.181   0.570   2.437 -0.5319 -0.1017  0.5775
   12MOL     C1 2223   7.713   4.199   3.719 -0.8405  0.1152  0.2525
   12MOL     O2 2224   7.653   4.232   3.820 -0.8932 -0.0621  0.1319
   12MOL     C3 2225   7.723   4.051   3.676 -0.5589  0.2288  0.5689
   12MOL     C4 2226   7.728   3.941   3.783 -0.5775  0.4586  0.0982
   12MOL     N5 2227   0.082   3.940   3.850  0.4847 -0.6702 -0.2938
   12MOL     H6 2228   0.028   4.051   3.608 -0.7067 -0.9165  0.3806
   12MOL     H7 2229   7.637   4.037   3.610 -0.6387  1.6988  0.3355
   12MOL     H8 2230   7.703   3.856   3.720 -0.9064  1.1072 -0.6654
   12MOL     H9 2231   7.646   3.968   3.851  0.0821  0.6681  0.8242
   12MOL    H10 2232   0.091   4.027   3.901 -0.6137 -0.5064 -0.3765
   12MOL    H11 2233   7.771   4.272   3.664  0.0776 -1.8034 -1.4053
   12MOL    C12 2234   0.167   3.835   3.868 -0.0335  0.5335 -0.0024
   12MOL    O13 2235   0.149   3.721   3.822 -0.1513 -0.6412  0.2085
   12MOL    C14 2236   0.297   3.870   3.937 -0.2225 -0.6415 -0.2864
   12MOL    C15 2237   0.338   3.794   4.060 -0.9335  0.7143  0.2217
   12MOL    N16 2238   0.475   3.820   4.099 -0.1588  0.5584 -0.0710
   12MOL    H17 2239   0.283   3.974   3.967 -1.4657 -0.5383 -1.1744
   12MOL    H18 2240   0.369   3.853   3.857 -1.6062  2.8162 -2.4133
   12MOL    H19 2241   0.282   3.829   4.147  0.5377  1.6854  0.7873
   12MOL    H20 2242   0.325   3.687   4.042 -2.5293  0.6369  1.6709
   12MOL    H21 2243   0.521   3.904   4.067  1.7722  1.2262  4.0987
   12MOL    C22 2244   0.551   3.735   4.175  0.4396 -0.5801  0.1203
   12MOL    O23 2245   0.509   3.637   4.228 -0.1288 -0.0478 -0.4596
   12MOL    C24 2246   0.703   3.766   4.196  0.1754  0.0481 -0.1142
   12MOL    C25 2247   0.799   3.637   4.189 -1.6537  0.8693  0.4789
   12MOL    N26 2248   0.820   3.564   4.318 -0.2213 -0.5082 -0.3982
   12MOL    H27 2249   0.721   3.833   4.280  0.5770 -2.0657  1.5392
   12MOL    H28 2250   0.749   3.819   4.113 -0.2450  1.9971  0.8610
   12MOL    H29 2251   0.762   3.567   4.114 -0.7243 -0.6969  1.4598
   12MOL    H30 2252   0.905   3.650   4.165 -1.7581  0.3436 -0.3098
   12MOL    H31 2253   0.808   3.622   4.399  0.5066 -1.4436  0.3838
   12MOL    C32 2254   0.859   3.443   4.341  0.1042  0.6507 -1.0011
   12MOL    O33 2255   0.864   3.347   4.262  0.2982 -0.1997  0.3591
   12MOL    C34 2256   0.880   3.417   4.488  0.1040 -0.4865 -0.5643
   12MOL    C35 2257   1.009   3.351   4.530 -0.4334  0.3955  0.1100
   12MOL    N36 2258   1.136   3.427   4.513  0.2991  0.1535  0.5998
   12MOL    H37 2259   0.806   3.344   4.521 -0.3296  0.5042  0.7102
   12MOL    H38 2260   0.861   3.500   4.555 -1.4729 -2.1768  1.1527
   12MOL    H39 2261   0.995   3.343   4.638  1.2620  1.1506  0.4044
   12MOL    H40 2262   1.017   3.252   4.486  0.9884  1.1230 -1.3268
   12MOL    H41 2263   1.182   3.419   4.423  0.4872 -1.5000  0.8258
   12MOL    C42 2264   1.174   3.512   4.611 -0.2409 -0.3250 -0.7065
   12MOL    O43 2265   1.110   3.537   4.713 -0.0095 -0.5896 -0.9893
   12MOL    C44 2266   1.311   3.578   4.601 -0.1052 -0.6761  0.4981
   12MOL    C45 2267   1.399   3.573   4.734 -0.4557 -0.0684 -0.9327
   12MOL    N46 2268   1.449   3.441   4.764  0.1786  0.0341 -0.4054
   12MOL    H47 2269   1.370   3.543   4.517  2.0711 -1.3027  2.2463
   12MOL    H48 2270   1.298   3.683   4.576 -0.5745 -0.7724  0.3182
   12MOL    H49 2271   1.488   3.631   4.709 -0.8332  0.2341 -1.5677
   12MOL    H50 2272   1.356   3.619   4.823 -0.0443 -1.2127 -0.1255
   12MOL    H51 2273   1.406   3.393   4.842  0.2623  0.4771 -0.0887
   12MOL    C52 2274   1.541   3.376   4.697 -0.3311  0.4443 -0.8199
   12MOL    O53 2275   1.602   3.431   4.606 -0.0549  0.0334 -0.6085
   12MOL    C54 2276   1.574   3.237   4.737  0.3579 -0.2560  0.5848
   12MOL    C55 2277   1.726   3.196   4.767  0.5463 -0.0269 -0.4009
   12MOL    N56 2278   1.815   3.263   4.679 -0.1354  0.4165 -0.9073
   12MOL    H57 2279   1.510   3.213   4.821 -0.9508  1.7791  0.2082
   12MOL    H58 2280   1.534   3.174   4.658 -2.0627  0.3627  1.2715
   12MOL    H59 2281   1.725   3.090   4.744  0.2802  0.4075 -2.5803
   12MOL    H60 2282   1.750   3.218   4.870  0.1390 -1.2701 -0.0368
   12MOL    H61 2283   1.794   3.336   4.612 -1.6779  0.9459  0.1246
   12MOL    C62 2284   1.937   3.231   4.645 -0.2451  0.3238 -0.1957
   12MOL    O63 2285   1.977   3.121   4.680  0.4999  0.3643  0.0736
   12MOL    C64 2286   2.022   3.336   4.575  0.2826 -0.5227  0.3718
   12MOL    C65 2287   2.147   3.274   4.508  0.0173 -1.2014 -1.2047
   12MOL    N66 2288   2.255   3.374   4.507  0.4030 -0.0406  0.0769
   12MOL    H67 2289   1.967   3.394   4.501 -0.5437  0.0320  1.4013
   12MOL    H68 2290   2.039   3.418   4.645 -0.9220  0.8377 -0.9201
   12MOL    H69 2291   2.186   3.184   4.555  1.3168 -0.0490 -0.0048
   12MOL    H70 2292   2.128   3.246   4.405  2.1722 -2.3467 -1.3224
   12MOL    H71 2293   2.266   3.434   4.588  1.4393  1.6398 -1.2647
   12MOL    C72 2294   2.328   3.425   4.408  0.1841 -0.2356 -0.2003
   12MOL    O73 2295   2.315   3.379   4.299 -0.3682  0.3924 -0.1422
   12MOL    C74 2296   2.434   3.533   4.443 -0.2662  0.1133  0.0532
   12MOL    C75 2297   2.436   3.654   4.354 -0.0693  0.0425 -0.1089
   12MOL    N76 2298   2.479   3.624   4.222 -0.0074 -0.6158  0.1555
   12MOL    H77 2299   2.411   3.559   4.547 -1.4800  0.6887 -0.3513
   12MOL    H78 2300   2.532   3.485   4.436  0.6984  1.9529  0.5067
   12MOL    H79 2301   2.341   3.708   4.353  0.1336  0.4047 -2.2919
   12MOL    H80 2302   2.512   3.723   4.391 -0.0398 -1.5187  2.8788
   12MOL    H81 2303   2.399   3.611   4.161  0.3122 -0.5171 -0.2896
   12MOL    C82 2304   2.598   3.634   4.164  0.2419 -0.7360  0.0890
   12MOL    O83 2305   2.694   3.697   4.219 -0.3239 -0.4676 -0.2501
   12MOL    C84 2306   2.601   3.584   4.020 -0.6103 -0.0802  0.8544
   12MOL    C85 2307   2.612   3.696   3.920 -0.2177 -0.3968 -0.5560
   12MOL    N86 2308   2.596   3.642   3.790  0.7293  0.2243  0.0469
   12MOL    H87 2309   2.686   3.516   4.025  0.1219  0.7865  0.0459
   12MOL    H88 2310   2.512   3.523   4.000 -1.7380  1.4534  1.0848
   12MOL    H89 2311   2.529   3.766   3.932  0.9099  0.8404  0.1896
   12MOL    H90 2312   2.705   3.751   3.935  1.0001 -1.4458 -3.9173
   12MOL    H91 2313   2.546   3.555   3.777  0.9555  0.3346 -1.6929
   12MOL    C92 2314   2.663   3.701   3.689 -0.8481  0.7446  0.2145
   12MOL    O93 2315   2.724   3.810   3.704 -0.5571 -0.0750  0.1111
   12MOL    C94 2316   2.656   3.631   3.556 -0.3318 -0.1613 -0.8928
   12MOL    C95 2317   2.663   3.734   3.438  0.4860 -0.1643  0.2731
   12MOL    N96 2318   2.677   3.666   3.307  0.2488 -0.4542 -0.3684
   12MOL    H97 2319   2.728   3.551   3.545 -0.0378 -0.0126 -0.0487
   12MOL    H98 2320   2.555   3.590   3.546 -1.0008  1.8116 -2.7032
   12MOL    H99 2321   2.570   3.790   3.437  1.0653  0.8073  0.4149
   12MOL   H100 2322   2.747   3.803   3.444  1.2494 -0.9060 -1.3760
   12MOL   H101 2323   2.613   3.590   3.289 -0.5740 -0.1333  1.2236
   12MOL   C102 2324   2.771   3.683   3.214  0.2510  0.0539 -0.3410
   12MOL   O103 2325   2.862   3.767   3.223 -0.1684 -0.0817  0.3834
   12MOL   C104 2326   2.758   3.606   3.078 -0.4106 -0.4620  0.7973
   12MOL   C105 2327   2.878   3.506   3.083  0.3118 -0.0179 -0.2524
   12MOL   N106 2328   2.848   3.387   3.151 -0.1601  0.1039  1.1156
   12MOL   H107 2329   2.767   3.676   2.995 -0.1618  0.1668  1.3583
   12MOL   H108 2330   2.663   3.552   3.068  0.3703 -1.5720 -0.8226
   12MOL   H109 2331   2.905   3.472   2.983  1.6993 -0.4888  0.2739
   12MOL   H110 2332   2.967   3.549   3.129 -0.2280 -0.3370  1.1268
   12MOL   H111 2333   2.783   3.328   3.101 -0.1780  0.5371  0.6282
   12MOL   C112 2334   2.896   3.358   3.271 -0.0151  0.2161  0.1631
   12MOL   O113 2335   2.950   3.439   3.345  0.9008 -0.0230 -1.0783
   12MOL   C114 2336   2.875   3.216   3.316  0.2798  0.7606 -0.0348
   12MOL   C115 2337   2.738   3.205   3.395  0.2743  0.1774  0.5191
   12MOL   N116 2338   2.619   3.198   3.313 -0.2004 -0.2098  0.4285
   12MOL   H117 2339   2.956   3.196   3.386  1.2570  1.9202 -0.8212
   12MOL   H118 2340   2.884   3.143   3.237  0.3632 -0.3121  0.9469
   12MOL   H119 2341   2.747   3.119   3.461 -0.3009  0.6820  1.2560
   12MOL   H120 2342   2.735   3.284   3.469  1.7583  0.3617  0.3839
   12MOL   H121 2343   2.594   3.113   3.263 -1.1321  0.1463  0.2759
   12MOL   C122 2344   2.537   3.304   3.288  0.2391  0.3110 -0.3871
   12MOL   O123 2345   2.547   3.411   3.349 -0.2717  0.2419 -1.0243
   12MOL   C124 2346   2.429   3.278   3.180 -0.0204  0.0523  0.4961
   12MOL   C125 2347   2.284   3.259   3.232 -0.2694  0.2833 -1.2211
   12MOL   N126 2348   2.208   3.169   3.147 -1.2137 -0.3037 -0.5432
   12MOL   H127 2349   2.469   3.194   3.123  2.8543  1.6736  0.0027
   12MOL   H128 2350   2.421   3.358   3.107  1.9366 -1.3925 -1.3681
   12MOL   H129 2351   2.275   3.216   3.332 -1.0051  0.8251 -1.0538
   12MOL   H130 2352   2.242   3.360   3.230 -2.6348 -0.6061  0.7618
   12MOL   H131 2353   2.161   3.095   3.197  1.0158 -0.5420  1.2737
   12MOL   C132 2354   2.170   3.189   3.022 -0.6239  0.1010 -0.5928
   12MOL   O133 2355   2.209   3.280   2.958  0.2580  0.5247  0.1432
   12MOL   C134 2356   2.061   3.102   2.973 -0.6808  0.2773  0.0873
   12MOL   C135 2357   1.951   3.179   2.903  0.0599  0.7347  0.5898
   12MOL   N136 2358   1.997   3.230   2.780 -0.0697 -0.0659  0.7017
   12MOL   H137 2359   2.011   3.043   3.050  0.2942  0.7208  1.0770
   12MOL   H138 2360   2.109   3.032   2.905  0.5972  0.1385  1.0988
   12MOL   H139 2361   1.861   3.120   2.884 -0.2605  0.9940  1.2545
   12MOL   H140 2362   1.935   3.269   2.963  0.6642  0.0636  1.7773
   12MOL   H141 2363   2.031   3.325   2.779 -0.3547  0.0445  1.2868
   12MOL   C142 2364   2.001   3.167   2.661  0.7294 -0.9601  0.6851
   12MOL   O143 2365   1.965   3.048   2.640  0.0451  0.2703  0.2044
   12MOL   C144 2366   2.062   3.245   2.541  0.3023 -0.4779 -0.3552
   12MOL   C145 2367   2.133   3.155   2.441 -0.0551 -0.3869  0.0410
   12MOL   N146 2368   2.231   3.233   2.356  0.0311  0.5529 -0.2404
   12MOL   H147 2369   2.129   3.324   2.574 -0.2134 -1.1135  2.3232
   12MOL   H148 2370   1.974   3.296   2.501 -1.7455 -1.8841  2.2047
   12MOL   H149 2371   2.181   3.080   2.503 -1.2621  0.0312  1.5297
   12MOL   H150 2372   2.064   3.101   2.377 -2.0022  0.2804  1.5172
   12MOL   H151 2373   2.328   3.241   2.383  0.5625 -3.7478 -0.4903
   12MOL   C152 2374   2.199   3.314   2.256  0.2857 -0.0450  0.0956
   12MOL   O153 2375   2.093   3.325   2.197  0.3377  0.0693 -0.0799
   12MOL   C154 2376   2.321   3.399   2.207 -0.0836  0.3769  0.3843
   12MOL   C155 2377   2.291   3.460   2.073 -0.2942 -0.2621  0.4230
   12MOL   N156 2378   2.365   3.580   2.049 -0.3695  0.7890  0.2673
   12MOL   H157 2379   2.407   3.334   2.193  1.2023  2.0630  0.3514
   12MOL   H158 2380   2.342   3.469   2.287 -2.7453  0.3420  1.1605
   12MOL   H159 2381   2.311   3.380   2.001  2.7440  0.6938  0.1556
   12MOL   H160 2382   2.188   3.488   2.049  1.0943  2.5282 -2.6801
   12MOL   H161 2383   2.337   3.663   2.100  0.2132  2.4827 -2.1085
   12MOL   C162 2384   2.466   3.589   1.962 -0.5521 -0.1667 -0.8019
   12MOL   O163 2385   2.495   3.500   1.882  0.4047  0.1979  0.2900
   12MOL   C164 2386   2.535   3.721   1.954 -0.0998 -0.0919 -0.0922
   12MOL   C165 2387   2.473   3.829   1.866  0.1786  0.2467  0.3067
   12MOL   N166 2388   2.504   3.807   1.723  0.3089  0.6911 -0.3777
   12MOL   H167 2389   2.637   3.699   1.923  0.9519  0.1800  2.9354
   12MOL   H168 2390   2.544   3.742   2.061  0.4636 -2.5377  0.3797
   12MOL   H169 2391   2.367   3.831   1.889  0.2629  1.6127  0.5912
   12MOL   H170 2392   2.512   3.928   1.890  1.2170  0.4202 -1.9353
   12MOL   H171 2393   2.450   3.740   1.671 -0.7232  2.9005 -2.2605
   12MOL   C172 2394   2.580   3.888   1.644  0.5635 -0.0840 -0.1708
   12MOL   O173 2395   2.645   3.984   1.686  0.3035  0.1250  0.0239
   12MOL   C174 2396   2.576   3.860   1.494 -0.2987  0.4117  0.0427
   12MOL   C175 2397   2.684   3.927   1.411 -0.1989  0.6080 -0.1034
   12MOL   N176 2398   2.814   3.859   1.439 -0.6927  0.0676 -0.0765
   12MOL   H177 2399   2.483   3.897   1.450 -1.7543 -2.6387  0.4520
   12MOL   H178 2400   2.575   3.751   1.485  2.4280 -0.0025  3.6159
   12MOL   H179 2401   2.664   3.915   1.305 -1.6485  0.0265  0.2233
   12MOL   H180 2402   2.676   4.034   1.430  0.8118  0.7225 -0.2817
   12MOL   H181 2403   2.818   3.761   1.461  0.0692  0.2509  0.6305
   12MOL   C182 2404   2.926   3.928   1.460 -0.4712 -0.3953 -0.0978
   12MOL   O183 2405   2.925   4.049   1.462 -0.4234  0.6690  0.2424
   12MOL   C184 2406   3.050   3.842   1.486 -0.0382 -0.1279 -0.3552
   12MOL   C185 2407   3.182   3.899   1.444  0.2504 -0.4768 -0.3776
   12MOL   N186 2408   3.203   3.931   1.302 -0.5390 -0.0588 -0.6440
   12MOL   H187 2409   3.028   3.746   1.440 -0.6869 -0.3349  0.3825
   12MOL   H188 2410   3.045   3.832   1.594  0.6738 -0.7622 -0.3816
   12MOL   H189 2411   3.220   3.977   1.509 -0.0501  0.2069 -1.0213
   12MOL   H190 2412   3.258   3.824   1.469  0.3012  0.0434  1.0881
   12MOL   H191 2413   3.193   4.028   1.273  0.6716  0.3278  0.2082
   12MOL   C192 2414   3.220   3.840   1.203  0.4582 -0.0941  0.1562
   12MOL   O193 2415   3.226   3.718   1.216 -0.0710  0.2469 -0.5570
   12MOL   C194 2416   3.219   3.894   1.062 -0.3659 -0.8585 -0.1542
   12MOL   C195 2417   3.087   3.872   0.991  0.1612 -0.5172 -0.6234
   12MOL   N196 2418   3.089   3.921   0.856 -0.3258 -0.3520  0.0776
   12MOL   H197 2419   3.238   4.001   1.068  2.7927 -1.4161  0.6510
   12MOL   H198 2420   3.301   3.862   0.997  0.4934 -2.0233  1.4654
   12MOL   H199 2421   3.058   3.767   0.999 -0.2394 -0.1226  4.4076
   12MOL   H200 2422   3.017   3.939   1.040  0.6736 -0.9086  0.6595
   12MOL   H201 2423   3.121   4.016   0.863  1.7257 -0.8642 -2.0377
   12MOL   H202 2424   2.993   3.946   0.834  0.4459  0.6984 -2.1941
   13MOL     C1 2425   4.467   2.800   3.553 -0.1648  0.7603  0.6078
   13MOL     O2 2426   4.396   2.703   3.528  0.2017 -0.5151  0.0485
   13MOL     C3 2427   4.435   2.938   3.499  0.5381  0.4814 -0.0094
   13MOL     C4 2428   4.324   3.016   3.581  0.5887 -0.5772 -0.2556
   13MOL     N5 2429   4.324   3.161   3.559 -0.0968  0.3520 -0.5357
   13MOL     H6 2430   4.412   2.927   3.393 -0.1047 -0.6081  0.2380
   13MOL     H7 2431   4.527   2.994   3.515  0.4284  0.2706  1.4517
   13MOL     H8 2432   4.342   3.000   3.688  0.8296  0.3264 -0.1566
   13MOL     H9 2433   4.220   2.985   3.572  0.7750 -0.9741 -1.0460
   13MOL    H10 2434   4.371   3.218   3.628 -2.4952  1.8986 -0.1415
   13MOL    H11 2435   4.562   2.799   3.606 -0.5126  0.9763  1.2312
   13MOL    C12 2436   4.291   3.221   3.444  0.2154  0.0350  0.8416
   13MOL    O13 2437   4.232   3.161   3.349 -0.1504 -0.2221 -0.0811
   13MOL    C14 2438   4.342   3.360   3.422  0.0498 -0.5269  1.3254
   13MOL    C15 2439   4.420   3.381   3.292  0.3568  0.5708  0.0171
   13MOL    N16 2440   4.548   3.323   3.285  0.0654  0.2368 -0.0062
   13MOL    H17 2441   4.410   3.385   3.504  1.9091 -0.0387 -0.3059
   13MOL    H18 2442   4.254   3.423   3.430  0.7974  0.5383  1.3455
   13MOL    H19 2443   4.353   3.344   3.214  0.4963 -0.1843  0.2579
   13MOL    H20 2444   4.423   3.490   3.280  0.4473  0.4448 -1.1579
   13MOL    H21 2445   4.570   3.251   3.217 -2.1596 -1.6233  1.1685
   13MOL    C22 2446   4.652   3.377   3.342  0.1165  0.6319  0.5228
   13MOL    O23 2447   4.635   3.469   3.421  0.3791 -0.8280 -0.0082
   13MOL    C24 2448   4.791   3.324   3.302  0.7329  0.3865 -0.1951
   13MOL    C25 2449   4.877   3.436   3.253  0.3856 -0.1691 -0.8568
   13MOL    N26 2450   4.854   3.473   3.118  0.3647 -0.1733  0.3708
   13MOL    H27 2451   4.796   3.235   3.240  3.0251  0.7499 -0.5715
   13MOL    H28 2452   4.844   3.281   3.387  0.8376 -1.0610 -0.9916
   13MOL    H29 2453   4.878   3.523   3.319  0.3122 -1.5200  0.9609
   13MOL    H30 2454   4.982   3.406   3.255  0.7467  1.0998  2.6379
   13MOL    H31 2455   4.806   3.560   3.102 -1.1090 -0.6209  2.1525
   13MOL    C32 2456   4.874   3.393   3.011  0.2738  0.8243 -0.0691
   13MOL    O33 2457   4.939   3.287   3.021  0.4483 -0.7142  0.6736
   13MOL    C34 2458   4.811   3.437   2.879  0.4642  0.2058 -0.9571
   13MOL    C35 2459   4.680   3.372   2.833 -0.0862  0.0862 -0.0892
   13MOL    N36 2460   4.702   3.234   2.794 -0.3393 -0.3047  0.3381
   13MOL    H37 2461   4.888   3.410   2.807  0.7574  0.2299 -0.6577
   13MOL    H38 2462   4.810   3.546   2.878 -0.2667  0.2183 -0.0060
   13MOL    H39 2463   4.607   3.368   2.914  0.4257  3.0794  0.5698
   13MOL    H40 2464   4.624   3.432   2.761 -1.6821  1.6686  2.3866
   13MOL    H41 2465   4.755   3.228   2.709 -0.3885 -1.8752  0.4024
   13MOL    C42 2466   4.659   3.119   2.842 -0.0968  0.4935 -0.2428
   13MOL    O43 2467   4.568   3.118   2.920 -0.8045 -0.0366 -0.1244
   13MOL    C44 2468   4.707   2.982   2.782 -0.2025  0.2825  0.2761
   13MOL    C45 2469   4.589   2.913   2.702 -0.1253 -0.2919 -0.3378
   13MOL    N46 2470   4.571   2.974   2.563 -0.1665 -0.5300 -0.6026
   13MOL    H47 2471   4.796   2.993   2.720 -0.8241  0.5637 -0.5699
   13MOL    H48 2472   4.731   2.925   2.872  0.1485 -1.4590 -0.9114
   13MOL    H49 2473   4.592   2.804   2.703  0.3015 -0.2841  1.3606
   13MOL    H50 2474   4.500   2.939   2.760  0.4806 -1.0505  0.9681
   13MOL    H51 2475   4.521   3.062   2.565  0.3606 -0.2143  2.9030
   13MOL    C52 2476   4.605   2.924   2.445 -0.2441 -0.9860 -0.6788
   13MOL    O53 2477   4.652   2.811   2.439 -0.1209  0.2332  0.1401
   13MOL    C54 2478   4.587   3.013   2.327  0.4447 -0.0378  1.1455
   13MOL    C55 2479   4.694   3.001   2.211 -0.0705  0.0401  0.3900
   13MOL    N56 2480   4.689   3.098   2.105 -0.1329  0.4329  0.1833
   13MOL    H57 2481   4.486   2.997   2.289  1.9553 -0.0952 -3.1116
   13MOL    H58 2482   4.589   3.113   2.371  1.7100 -0.8373  2.9981
   13MOL    H59 2483   4.678   2.903   2.168  1.9813 -0.5736  0.9873
   13MOL    H60 2484   4.797   2.999   2.246  0.4680 -1.0606 -1.2100
   13MOL    H61 2485   4.767   3.158   2.086 -1.8102  2.9044  0.7803
   13MOL    C62 2486   4.592   3.108   2.015 -0.2978  0.2721  0.8174
   13MOL    O63 2487   4.488   3.040   2.013  0.0998 -0.2096  0.4181
   13MOL    C64 2488   4.615   3.223   1.915 -0.7562  0.1042 -0.2519
   13MOL    C65 2489   4.489   3.313   1.891  0.4338  0.4768  0.0405
   13MOL    N66 2490   4.493   3.380   1.760  0.5057  0.2989 -0.1101
   13MOL    H67 2491   4.697   3.288   1.945 -0.8954  0.4661 -0.6478
   13MOL    H68 2492   4.647   3.166   1.827  1.7914  0.7987  0.1838
   13MOL    H69 2493   4.397   3.255   1.881 -0.6679  2.4162 -1.4109
   13MOL    H70 2494   4.477   3.387   1.971 -0.2728  0.4632 -0.0493
   13MOL    H71 2495   4.457   3.328   1.682 -0.5848 -0.7511  1.0530
   13MOL    C72 2496   4.553   3.493   1.738 -0.0297 -0.2668  0.2971
   13MOL    O73 2497   4.612   3.547   1.834 -0.1222  0.4626 -0.3711
   13MOL    C74 2498   4.554   3.543   1.597 -0.0634 -0.4291  0.3782
   13MOL    C75 2499   4.600   3.685   1.573  0.1500 -0.2287  0.5650
   13MOL    N76 2500   4.505   3.795   1.612 -0.2234  0.4711 -0.4005
   13MOL    H77 2501   4.621   3.472   1.548  1.0345  0.5876  0.3678
   13MOL    H78 2502   4.452   3.533   1.560 -0.0275 -1.0689  0.4431
   13MOL    H79 2503   4.688   3.691   1.637 -0.6208  1.8338  1.4884
   13MOL    H80 2504   4.634   3.701   1.471  0.3503  1.4485  0.8703
   13MOL    H81 2505   4.436   3.760   1.678 -0.9502  0.2046 -1.2939
   13MOL    C82 2506   4.498   3.924   1.573 -0.0196 -0.2176  0.4847
   13MOL    O83 2507   4.576   3.969   1.491 -0.5609 -0.2960  0.2484
   13MOL    C84 2508   4.382   4.013   1.610 -0.1884  0.0527 -0.5296
   13MOL    C85 2509   4.246   3.949   1.648 -0.4871 -0.0568  0.7513
   13MOL    N86 2510   4.227   3.888   1.783  0.6191  0.5671  0.5949
   13MOL    H87 2511   4.429   4.069   1.692  1.3014 -0.9107 -0.6978
   13MOL    H88 2512   4.364   4.085   1.530  1.4469 -1.3868 -2.2460
   13MOL    H89 2513   4.182   4.036   1.664 -0.3587  0.3137 -0.6700
   13MOL    H90 2514   4.194   3.901   1.565 -0.6315 -0.0782  0.8545
   13MOL    H91 2515   4.211   3.952   1.860 -0.7055 -0.1565  0.9302
   13MOL    C92 2516   4.232   3.755   1.803 -0.2847 -0.0054 -0.8194
   13MOL    O93 2517   4.259   3.670   1.721  0.5173  0.1592  0.0884
   13MOL    C94 2518   4.183   3.707   1.938  0.3439  0.1504  0.7404
   13MOL    C95 2519   4.278   3.594   2.001  0.5125 -0.3346  0.4113
   13MOL    N96 2520   4.225   3.534   2.122  0.1314 -0.1696 -0.5004
   13MOL    H97 2521   4.189   3.798   1.998  1.4208  1.3386 -1.1394
   13MOL    H98 2522   4.081   3.670   1.950  0.4755  0.2619  2.3009
   13MOL    H99 2523   4.300   3.513   1.932  4.1656  0.5284  0.4312
   13MOL   H100 2524   4.376   3.636   2.023  0.0038  0.5828  0.9552
   13MOL   H101 2525   4.179   3.609   2.172 -0.9294  0.0411 -1.7536
   13MOL   C102 2526   4.183   3.411   2.141  0.4205  0.4962 -0.4944
   13MOL   O103 2527   4.203   3.317   2.065  0.3837  0.1909  0.0936
   13MOL   C104 2528   4.085   3.401   2.264  0.2525  0.5331  0.2199
   13MOL   C105 2529   3.965   3.306   2.242 -0.1783 -0.1025 -0.2495
   13MOL   N106 2530   3.868   3.337   2.146  0.4206 -0.1845  0.3061
   13MOL   H107 2531   4.052   3.501   2.291 -0.7641  0.2872 -0.1216
   13MOL   H108 2532   4.153   3.355   2.336 -0.8575  0.6472  1.3519
   13MOL   H109 2533   4.003   3.208   2.215 -1.8825 -0.8170 -0.1699
   13MOL   H110 2534   3.915   3.296   2.339 -1.3555 -1.0768 -0.9419
   13MOL   H111 2535   3.899   3.349   2.050  2.0756  0.1060  0.8621
   13MOL   C112 2536   3.733   3.346   2.151 -0.5883  0.1552  0.2786
   13MOL   O113 2537   3.676   3.383   2.052 -0.4108 -0.5300 -0.7049
   13MOL   C114 2538   3.660   3.301   2.280 -0.1258 -0.7990 -0.3887
   13MOL   C115 2539   3.505   3.296   2.262  0.0285 -0.6107  0.5311
   13MOL   N116 2540   3.441   3.221   2.364  0.3051  0.5901 -0.2283
   13MOL   H117 2541   3.680   3.373   2.360  2.2078 -1.8092 -0.0151
   13MOL   H118 2542   3.702   3.208   2.316  0.7861  0.3365  1.5655
   13MOL   H119 2543   3.457   3.392   2.240 -0.1674 -1.1595 -1.5229
   13MOL   H120 2544   3.484   3.228   2.180 -0.2111 -0.0609  0.1291
   13MOL   H121 2545   3.396   3.136   2.334 -0.8886  0.7784  0.9872
   13MOL   C122 2546   3.448   3.261   2.495 -0.3197  0.5158 -0.4184
   13MOL   O123 2547   3.488   3.375   2.534 -0.3732  1.1208 -0.3275
   13MOL   C124 2548   3.388   3.168   2.599  0.0987 -0.2484 -0.4509
   13MOL   C125 2549   3.242   3.186   2.619 -0.3703  0.3120 -0.1172
   13MOL   N126 2550   3.159   3.139   2.511 -0.5674 -0.0334  0.3091
   13MOL   H127 2551   3.433   3.184   2.697 -1.3384  0.6251  0.0861
   13MOL   H128 2552   3.415   3.069   2.563  1.4921  0.3364 -1.0443
   13MOL   H129 2553   3.218   3.150   2.719  0.5899 -0.7324 -0.2548
   13MOL   H130 2554   3.228   3.292   2.643  1.7589  0.4380  0.6643
   13MOL   H131 2555   3.183   3.052   2.465 -0.7227 -0.1132  0.3785
   13MOL   C132 2556   3.038   3.188   2.479 -0.2320  0.2333  0.0848
   13MOL   O133 2557   2.979   3.276   2.543 -0.0558  0.2156  0.2340
   13MOL   C134 2558   2.961   3.105   2.365 -0.2651  0.4168  0.3428
   13MOL   C135 2559   2.950   3.171   2.230 -0.7756  0.6384  0.2113
   13MOL   N136 2560   3.040   3.118   2.127  0.2224  0.1527 -0.3213
   13MOL   H137 2561   2.858   3.108   2.402  0.3717 -1.4247  2.3819
   13MOL   H138 2562   2.981   2.998   2.367  1.1368  0.6898  1.9774
   13MOL   H139 2563   2.852   3.132   2.200 -0.3629  0.4030 -0.8411
   13MOL   H140 2564   2.938   3.280   2.231 -0.2382  0.7078 -0.6050
   13MOL   H141 2565   3.018   3.024   2.095  1.4592  0.0165 -0.7740
   13MOL   C142 2566   3.132   3.195   2.064  0.1933  0.3772  0.7575
   13MOL   O143 2567   3.162   3.312   2.097 -0.3344  0.2971  0.4763
   13MOL   C144 2568   3.181   3.123   1.934  0.6865 -0.2552 -0.0392
   13MOL   C145 2569   3.229   3.219   1.822 -0.1075 -0.2937  0.8266
   13MOL   N146 2570   3.371   3.236   1.819  0.3845  0.3041  0.5891
   13MOL   H147 2571   3.117   3.047   1.888 -0.6984  2.0559 -1.9973
   13MOL   H148 2572   3.264   3.060   1.969  0.1484 -0.1570  1.4479
   13MOL   H149 2573   3.187   3.192   1.725  0.3964  3.1428 -0.4208
   13MOL   H150 2574   3.198   3.321   1.843 -1.8897 -0.9700  1.6346
   13MOL   H151 2575   3.413   3.310   1.874  0.7877  1.4286 -1.1861
   13MOL   C152 2576   3.462   3.159   1.758 -0.2966 -0.4257  0.6842
   13MOL   O153 2577   3.438   3.055   1.689  0.3907 -0.1807 -0.0674
   13MOL   C154 2578   3.610   3.209   1.766 -0.9444 -0.4422 -0.8532
   13MOL   C155 2579   3.677   3.209   1.637 -0.2938 -0.1188  0.2392
   13MOL   N156 2580   3.704   3.074   1.593 -0.0112  0.4346 -0.4670
   13MOL   H157 2581   3.664   3.152   1.842 -1.2621  1.3498  0.7796
   13MOL   H158 2582   3.606   3.314   1.795 -0.4178 -0.0362 -2.2234
   13MOL   H159 2583   3.615   3.259   1.563  0.4316 -0.2138 -0.4426
   13MOL   H160 2584   3.772   3.262   1.644 -0.7282  1.0927 -2.2997
   13MOL   H161 2585   3.637   3.010   1.634 -1.3487  0.4143 -2.5484
   13MOL   C162 2586   3.797   3.033   1.505  0.2196 -0.7356  0.1281
   13MOL   O163 2587   3.862   3.123   1.452 -0.3754  0.5297 -0.2454
   13MOL   C164 2588   3.831   2.884   1.486 -0.3236  0.1256  0.1161
   13MOL   C165 2589   3.984   2.851   1.475 -1.1890 -0.3103 -0.2410
   13MOL   N166 2590   4.024   2.824   1.342  0.2260  0.5172  0.2240
   13MOL   H167 2591   3.772   2.838   1.407  0.0009 -0.8367  0.4205
   13MOL   H168 2592   3.814   2.820   1.573  0.8534  0.1692  0.3868
   13MOL   H169 2593   4.049   2.928   1.516 -0.2662 -1.2085 -0.0090
   13MOL   H170 2594   3.996   2.754   1.524  0.1426 -0.0634 -0.0582
   13MOL   H171 2595   4.063   2.908   1.302  0.4715  0.2997  0.0071
   13MOL   C172 2596   4.012   2.707   1.281 -0.3040  0.0024 -0.2425
   13MOL   O173 2597   3.964   2.604   1.330 -0.1210  0.8635 -0.6356
   13MOL   C174 2598   4.072   2.694   1.136  0.4109 -0.1422  0.1696
   13MOL   C175 2599   4.114   2.551   1.088  0.0358 -0.1473 -0.3286
   13MOL   N176 2600   4.230   2.506   1.166 -0.7129 -0.1926 -0.2095
   13MOL   H177 2601   4.162   2.755   1.125  0.4661 -0.3490 -0.5605
   13MOL   H178 2602   4.008   2.735   1.058  0.2354 -0.5722  0.0883
   13MOL   H179 2603   4.034   2.478   1.105  0.2759 -0.1140  0.9760
   13MOL   H180 2604   4.143   2.564   0.984  1.9867  1.4420  0.3904
   13MOL   H181 2605   4.204   2.471   1.257  1.0846 -0.8766  0.0598
   13MOL   C182 2606   4.354   2.530   1.136  0.5189 -0.1932  0.4006
   13MOL   O183 2607   4.385   2.583   1.023  0.4256 -0.4669 -0.2344
   13MOL   C184 2608   4.450   2.489   1.242  0.0105  0.4888 -0.5044
   13MOL   C185 2609   4.537   2.608   1.288  0.1523 -0.3240 -0.4824
   13MOL   N186 2610   4.502   2.643   1.424  0.6314  0.2938 -0.4132
   13MOL   H187 2611   4.517   2.417   1.193 -0.7313  0.2307 -1.1583
   13MOL   H188 2612   4.405   2.437   1.326  2.0812 -0.5599 -0.0038
   13MOL   H189 2613   4.640   2.570   1.294 -0.3129 -2.5188 -4.3845
   13MOL   H190 2614   4.528   2.697   1.227 -0.1260 -0.6793 -0.9652
   13MOL   H191 2615   4.526   2.573   1.493  0.6987  0.5037 -0.2272
   13MOL   C192 2616   4.418   2.745   1.453 -0.5286  0.1420 -0.1725
   13MOL   O193 2617   4.381   2.833   1.373  0.2899 -0.5813 -0.2444
   13MOL   C194 2618   4.372   2.739   1.600 -0.1496 -0.4634 -0.0749
   13MOL   C195 2619   4.321   2.869   1.665 -0.0214 -0.1451  0.3197
   13MOL   N196 2620   4.431   2.947   1.715  0.5919  0.1518 -0.0599
   13MOL   H197 2621   4.284   2.676   1.587 -0.2467 -0.2215 -0.6023
   13MOL   H198 2622   4.436   2.679   1.666  1.1337 -0.0431 -0.9167
   13MOL   H199 2623   4.249   2.927   1.606 -0.5619 -0.5415  0.5825
   13MOL   H200 2624   4.252   2.838   1.743  1.2738 -0.2195  1.4470
   13MOL   H201 2625   4.501   2.883   1.749  0.2166  0.0300  0.4828
   13MOL   H202 2626   4.401   2.996   1.798  0.6949  0.6902 -0.3339
   14MOL     C1 2627   4.910   5.914   1.531 -0.7457 -0.1682 -0.0197
   14MOL     O2 2628   4.844   5.966   1.441 -0.2590  0.5624 -0.1664
   14MOL     C3 2629   4.849   5.805   1.629 -0.3738  0.2114  0.1111
   14MOL     C4 2630   4.709   5.827   1.672 -0.2442 -0.9314 -0.0400
   14MOL     N5 2631   4.614   5.757   1.585  0.1377  0.0426 -0.4869
   14MOL     H6 2632   4.916   5.809   1.714  1.3187 -1.8242 -1.0710
   14MOL     H7 2633   4.847   5.701   1.596 -2.2226  0.2639 -0.0107
   14MOL     H8 2634   4.701   5.935   1.665 -0.5540 -1.0661 -1.8451
   14MOL     H9 2635   4.692   5.795   1.775 -0.9658 -0.9031 -0.1514
   14MOL    H10 2636   4.620   5.656   1.576 -0.3778  0.0856 -1.4391
   14MOL    H11 2637   5.015   5.942   1.542 -0.8003  0.6776 -1.4768
   14MOL    C12 2638   4.501   5.807   1.542 -0.7389 -0.4816  0.0549
   14MOL    O13 2639   4.468   5.923   1.565  0.6504 -0.3442 -0.1205
   14MOL    C14 2640   4.409   5.721   1.458 -0.5777 -0.3882  0.1445
   14MOL    C15 2641   4.294   5.782   1.386  0.6540 -0.7669  0.5556
   14MOL    N16 2642   4.183   5.825   1.470 -0.1421 -0.2281  0.6885
   14MOL    H17 2643   4.370   5.634   1.509  2.3644 -0.0244  3.1832
   14MOL    H18 2644   4.479   5.685   1.383  0.6181 -1.1895  1.6198
   14MOL    H19 2645   4.343   5.862   1.330  0.0327 -1.0179 -0.3708
   14MOL    H20 2646   4.261   5.705   1.316 -1.7618 -1.3986  2.3239
   14MOL    H21 2647   4.170   5.922   1.497 -2.3215 -0.5057  0.7114
   14MOL    C22 2648   4.090   5.738   1.506  0.1527 -0.1973 -0.1861
   14MOL    O23 2649   4.092   5.621   1.467  0.3364 -0.0663 -0.4515
   14MOL    C24 2650   3.977   5.791   1.587  0.8617  0.0135  0.3300
   14MOL    C25 2651   3.920   5.695   1.695 -0.1378 -0.1684  1.2504
   14MOL    N26 2652   3.839   5.762   1.795 -0.1655  0.1600 -0.4148
   14MOL    H27 2653   3.904   5.828   1.515 -2.1156 -1.7901  2.2807
   14MOL    H28 2654   4.005   5.877   1.648 -0.9704  0.9284 -0.0732
   14MOL    H29 2655   3.875   5.616   1.634 -1.8795  1.7798 -0.0643
   14MOL    H30 2656   4.005   5.648   1.743  1.1386 -1.2584 -1.9273
   14MOL    H31 2657   3.879   5.788   1.884  0.1652 -0.6916 -0.3085
   14MOL    C32 2658   3.722   5.822   1.771 -0.0693 -0.0548  0.1246
   14MOL    O33 2659   3.661   5.799   1.671 -0.0512  0.5473  0.6371
   14MOL    C34 2660   3.675   5.908   1.881  0.2489  0.3567 -0.4909
   14MOL    C35 2661   3.549   5.983   1.847  0.0902 -0.4709  0.2178
   14MOL    N36 2662   3.434   5.904   1.882 -0.4789 -0.4116 -0.0100
   14MOL    H37 2663   3.755   5.976   1.912 -0.0143  0.3256  0.2822
   14MOL    H38 2664   3.660   5.849   1.972  1.3562  0.9872  0.1203
   14MOL    H39 2665   3.546   6.076   1.905 -1.1929 -0.1160 -0.4048
   14MOL    H40 2666   3.538   6.011   1.743  1.6899 -0.4321  0.0366
   14MOL    H41 2667   3.436   5.803   1.876  0.1787 -0.4533  0.8496
   14MOL    C42 2668   3.320   5.952   1.927  1.1731  0.6037  0.5041
   14MOL    O43 2669   3.295   6.066   1.966  0.1516  0.2439  0.6715
   14MOL    C44 2670   3.218   5.841   1.951 -0.6409  0.0549  0.6064
   14MOL    C45 2671   3.116   5.873   2.063  0.4605  0.0383 -0.4439
   14MOL    N46 2672   3.185   5.895   2.192  0.1024 -0.0396  0.0382
   14MOL    H47 2673   3.168   5.830   1.855  0.7821 -0.6207 -0.0860
   14MOL    H48 2674   3.268   5.746   1.971  2.6905  1.3881 -0.8990
   14MOL    H49 2675   3.048   5.955   2.039 -0.3035 -0.5828 -0.4267
   14MOL    H50 2676   3.054   5.785   2.078  0.2938  0.2014 -0.1705
   14MOL    H51 2677   3.196   5.987   2.232  1.4820  0.3429 -1.1484
   14MOL    C52 2678   3.239   5.796   2.263  0.6394  0.8606  0.0405
   14MOL    O53 2679   3.225   5.679   2.232  0.5650 -0.4786  0.0107
   14MOL    C54 2680   3.296   5.845   2.401  0.3166  0.2255  0.2025
   14MOL    C55 2681   3.271   5.742   2.510  0.4106  0.4567  0.2369
   14MOL    N56 2682   3.349   5.769   2.625  0.1723  0.0490  0.3431
   14MOL    H57 2683   3.405   5.857   2.396  0.6834  0.6161  5.7310
   14MOL    H58 2684   3.251   5.943   2.417 -1.1947 -0.4997  0.4655
   14MOL    H59 2685   3.297   5.642   2.476  1.8356  0.4927  1.1867
   14MOL    H60 2686   3.169   5.739   2.548  0.3389 -0.2205  0.0006
   14MOL    H61 2687   3.399   5.856   2.632 -0.9868  0.9883 -2.2941
   14MOL    C62 2688   3.348   5.698   2.739  0.2813 -0.1926 -0.2790
   14MOL    O63 2689   3.285   5.596   2.758 -0.7504  0.6731 -0.3706
   14MOL    C64 2690   3.416   5.759   2.862 -0.4086  0.0605 -0.0125
   14MOL    C65 2691   3.368   5.900   2.902 -0.8153 -0.4408  0.2834
   14MOL    N66 2692   3.454   6.007   2.852 -0.1541  1.5090  0.2942
   14MOL    H67 2693   3.382   5.704   2.950 -0.3789 -2.4412 -1.5170
   14MOL    H68 2694   3.523   5.745   2.858 -0.3567  0.5096 -0.2600
   14MOL    H69 2695   3.264   5.924   2.882 -0.5176  1.7290  1.1744
   14MOL    H70 2696   3.377   5.905   3.011 -1.7782 -0.0442  0.3467
   14MOL    H71 2697   3.508   6.055   2.922 -1.1877 -0.8144  2.7881
   14MOL    C72 2698   3.419   6.089   2.755 -0.9356  0.2264  0.4277
   14MOL    O73 2699   3.328   6.050   2.676  0.1448 -0.0384 -0.3960
   14MOL    C74 2700   3.507   6.212   2.723 -0.1200  0.0871  0.6742
   14MOL    C75 2701   3.436   6.340   2.688 -0.0664  0.1785  0.2417
   14MOL    N76 2702   3.351   6.388   2.803 -0.2352  0.1707 -0.5440
   14MOL    H77 2703   3.578   6.228   2.804  0.4730  3.3741 -0.4090
   14MOL    H78 2704   3.576   6.188   2.642  1.9936  1.4382  2.0243
   14MOL    H79 2705   3.511   6.404   2.643 -3.0301  2.2901 -1.9022
   14MOL    H80 2706   3.362   6.314   2.612 -1.8199  1.6747  1.3792
   14MOL    H81 2707   3.408   6.425   2.878 -0.2442 -0.2816 -0.3107
   14MOL    C82 2708   3.220   6.372   2.831  0.0219 -0.2389 -0.1498
   14MOL    O83 2709   3.136   6.343   2.751 -0.3136  0.0054  0.2637
   14MOL    C84 2710   3.190   6.379   2.981  0.4749 -0.1087  0.0339
   14MOL    C85 2711   3.050   6.409   3.024  0.1265 -0.5965  0.2736
   14MOL    N86 2712   2.992   6.296   3.105 -0.1629 -0.6715  0.3494
   14MOL    H87 2713   3.214   6.280   3.019 -1.0591 -0.4321  0.1766
   14MOL    H88 2714   3.254   6.449   3.035 -2.0167  2.2672  0.0232
   14MOL    H89 2715   3.044   6.501   3.082 -2.4712 -0.5431 -0.0317
   14MOL    H90 2716   2.987   6.425   2.936  1.9586  2.4608 -0.5421
   14MOL    H91 2717   2.929   6.232   3.056 -4.2290  1.9367  1.9033
   14MOL    C92 2718   3.026   6.271   3.230 -0.1575 -0.1169  0.2761
   14MOL    O93 2719   3.105   6.340   3.294 -0.3765  0.5568 -0.1399
   14MOL    C94 2720   2.960   6.142   3.281 -0.0591 -0.2957  0.3712
   14MOL    C95 2721   3.041   6.017   3.284 -0.1526 -0.2809 -0.3295
   14MOL    N96 2722   2.976   5.915   3.370  0.3455  0.1143 -0.3097
   14MOL    H97 2723   2.944   6.156   3.388  0.1556 -0.3689  0.4121
   14MOL    H98 2724   2.870   6.122   3.223  1.0340  0.8556 -1.7617
   14MOL    H99 2725   3.062   5.980   3.184  0.6235  1.1169 -0.6918
   14MOL   H100 2726   3.144   6.038   3.315 -0.4664  0.6347  0.0846
   14MOL   H101 2727   2.935   5.948   3.457 -2.0234 -2.3170 -0.4503
   14MOL   C102 2728   2.983   5.781   3.353  0.2340  0.0198  0.1027
   14MOL   O103 2729   3.039   5.734   3.256 -0.2776  0.2837 -0.7628
   14MOL   C104 2730   2.903   5.696   3.450 -0.6073 -0.2881 -0.2416
   14MOL   C105 2731   2.847   5.562   3.400 -0.5757  0.5287 -0.0998
   14MOL   N106 2732   2.772   5.481   3.493 -0.3497  0.2251 -0.0889
   14MOL   H107 2733   2.817   5.747   3.493 -0.0713 -1.4585  2.3472
   14MOL   H108 2734   2.970   5.678   3.534 -2.4914  0.0428  1.3608
   14MOL   H109 2735   2.790   5.581   3.309  0.2477  1.2440 -0.4628
   14MOL   H110 2736   2.931   5.502   3.366  0.2868  1.1169  1.0056
   14MOL   H111 2737   2.817   5.424   3.563 -0.1869  0.4229 -0.0337
   14MOL   C112 2738   2.642   5.450   3.473 -0.0045  0.5242  0.6838
   14MOL   O113 2739   2.565   5.499   3.383  0.1587 -0.4916 -0.1478
   14MOL   C114 2740   2.585   5.353   3.570 -0.4809 -0.4865  0.4281
   14MOL   C115 2741   2.510   5.412   3.681 -0.7852 -0.2933  1.1479
   14MOL   N116 2742   2.602   5.459   3.785  0.3204  0.2304  0.5632
   14MOL   H117 2743   2.663   5.283   3.599  0.4989 -0.1183 -1.2619
   14MOL   H118 2744   2.523   5.295   3.502  1.5351 -1.9166 -0.2141
   14MOL   H119 2745   2.449   5.496   3.646 -0.1731  0.1732  1.1837
   14MOL   H120 2746   2.439   5.342   3.725 -1.0622 -0.8467 -0.1777
   14MOL   H121 2747   2.666   5.389   3.820  0.1375 -0.7654 -0.9953
   14MOL   C122 2748   2.609   5.588   3.830  0.0507  0.2858  0.2145
   14MOL   O123 2749   2.541   5.687   3.793  0.3401  0.0497  0.1453
   14MOL   C124 2750   2.712   5.619   3.932  0.1565 -0.3985  0.1401
   14MOL   C125 2751   2.855   5.629   3.887 -0.0461 -0.1420  0.7870
   14MOL   N126 2752   2.932   5.510   3.920 -0.7570 -0.0923 -0.1194
   14MOL   H127 2753   2.714   5.564   4.026  0.4668 -1.0546 -0.2488
   14MOL   H128 2754   2.693   5.724   3.957 -1.1820 -0.7953  0.7941
   14MOL   H129 2755   2.853   5.656   3.781 -3.4040  0.6558  0.9927
   14MOL   H130 2756   2.896   5.721   3.928 -0.2403  0.4820 -0.3925
   14MOL   H131 2757   2.934   5.480   4.017  2.1954 -1.2050 -0.4565
   14MOL   C132 2758   2.973   5.417   3.836  0.3157 -0.2601 -0.1468
   14MOL   O133 2759   2.929   5.413   3.722  0.5084  0.9520 -0.0114
   14MOL   C134 2760   3.065   5.304   3.890 -0.5557  0.9417  0.1758
   14MOL   C135 2761   2.991   5.172   3.918  0.4116 -0.3038  0.1984
   14MOL   N136 2762   2.902   5.176   4.037 -0.1192 -0.0519 -0.4024
   14MOL   H137 2763   3.118   5.332   3.980  1.5245 -1.3505 -0.2810
   14MOL   H138 2764   3.142   5.294   3.813 -1.2330 -1.2333 -0.2617
   14MOL   H139 2765   2.918   5.155   3.838  0.2166  0.8592  0.1204
   14MOL   H140 2766   3.055   5.083   3.912  0.0552 -0.5876  0.5529
   14MOL   H141 2767   2.804   5.196   4.021  0.2249  2.6046  0.5640
   14MOL   C142 2768   2.932   5.133   4.159  0.2525  0.3901 -0.1954
   14MOL   O143 2769   3.046   5.088   4.184 -0.2967 -0.4541 -0.2466
   14MOL   C144 2770   2.820   5.138   4.257  0.5454 -0.3330  0.2602
   14MOL   C145 2771   2.848   5.069   4.391 -0.5825  0.4005  0.2694
   14MOL   N146 2772   2.893   5.148   4.500  0.1942  0.1700 -0.3359
   14MOL   H147 2773   2.743   5.081   4.206 -0.8481  1.6961  0.0568
   14MOL   H148 2774   2.779   5.237   4.275 -0.4061 -0.9158  1.3948
   14MOL   H149 2775   2.752   5.027   4.417 -0.3574  0.9226  1.9766
   14MOL   H150 2776   2.918   4.985   4.397  0.5201  1.3988  1.7351
   14MOL   H151 2777   2.986   5.188   4.491  0.6891 -1.5036 -3.0077
   14MOL   C152 2778   2.820   5.180   4.610 -0.1425  0.6180  0.7271
   14MOL   O153 2779   2.706   5.134   4.624  0.3891  0.1872 -0.5005
   14MOL   C154 2780   2.902   5.264   4.718 -0.2090  0.3576  0.2219
   14MOL   C155 2781   2.818   5.308   4.836  0.3869  0.7931 -0.4950
   14MOL   N156 2782   2.877   5.417   4.911 -0.2812 -0.6261 -0.4664
   14MOL   H157 2783   2.928   5.351   4.658 -0.8284 -0.4976 -1.2966
   14MOL   H158 2784   3.000   5.227   4.747  0.7133  2.2355 -0.4402
   14MOL   H159 2785   2.725   5.352   4.799 -0.5913 -1.8859 -1.4100
   14MOL   H160 2786   2.794   5.224   4.902 -0.5516  3.2645  2.4192
   14MOL   H161 2787   2.870   5.512   4.879 -1.1591 -1.1977 -2.0319
   14MOL   C162 2788   2.941   5.404   5.027  0.6837 -0.2990 -0.6344
   14MOL   O163 2789   2.951   5.295   5.082  0.0327  0.2712  0.1105
   14MOL   C164 2790   2.988   5.531   5.103  0.1134  0.7907 -0.9537
   14MOL   C165 2791   3.108   5.591   5.027  0.3310 -0.1857  0.2020
   14MOL   N166 2792   3.164   5.711   5.092 -0.0070 -0.4508  0.7111
   14MOL   H167 2793   3.025   5.516   5.205 -1.5382  0.5272 -0.3705
   14MOL   H168 2794   2.909   5.606   5.101 -0.6242  0.1295  1.1387
   14MOL   H169 2795   3.183   5.512   5.023  0.1846 -0.2548 -2.5525
   14MOL   H170 2796   3.088   5.617   4.923 -0.8420  0.9089  0.6872
   14MOL   H171 2797   3.113   5.797   5.080 -2.3800 -2.0029 -0.8177
   14MOL   C172 2798   3.283   5.712   5.152 -0.6806 -0.8442 -0.3077
   14MOL   O173 2799   3.364   5.624   5.154  0.1099  0.5979  0.1645
   14MOL   C174 2800   3.319   5.847   5.218  0.6908  0.1598  0.2787
   14MOL   C175 2801   3.420   5.827   5.334  0.0226  0.7450  0.1086
   14MOL   N176 2802   3.556   5.869   5.295  0.0863  0.2584  0.2732
   14MOL   H177 2803   3.231   5.898   5.257 -0.9216 -1.4949 -1.1264
   14MOL   H178 2804   3.361   5.910   5.139  0.3744  0.6248  0.4763
   14MOL   H179 2805   3.395   5.907   5.403 -2.5641 -0.6663  0.8538
   14MOL   H180 2806   3.418   5.737   5.396  2.1721  1.0352  0.6175
   14MOL   H181 2807   3.570   5.932   5.217  1.6053  0.9453  1.0568
   14MOL   C182 2808   3.658   5.856   5.382 -0.4156 -0.2539  0.4522
   14MOL   O183 2809   3.634   5.798   5.490  0.5034 -0.0602 -0.3054
   14MOL   C184 2810   3.783   5.927   5.342  0.3407 -0.3167 -0.2280
   14MOL   C185 2811   3.907   5.839   5.368 -0.2156 -0.5997 -0.2730
   14MOL   N186 2812   4.012   5.907   5.442  0.6463  0.6510  0.4018
   14MOL   H187 2813   3.794   6.013   5.408 -0.6539 -0.7011  0.4513
   14MOL   H188 2814   3.778   5.963   5.239 -1.6177 -0.8202 -0.3244
   14MOL   H189 2815   3.877   5.760   5.437 -0.2286 -0.8486 -0.5582
   14MOL   H190 2816   3.944   5.793   5.276 -1.0631  1.6640 -1.7924
   14MOL   H191 2817   3.990   5.923   5.539 -3.1623 -0.7871 -0.1261
   14MOL   C192 2818   4.121   5.968   5.394  0.4055  0.2289 -0.0545
   14MOL   O193 2819   4.155   5.953   5.278  0.0040  0.1613  0.2864
   14MOL   C194 2820   4.199   6.047   5.499 -0.6709 -0.4804 -0.8523
   14MOL   C195 2821   4.154   6.190   5.532 -0.5349 -0.0407 -0.1427
   14MOL   N196 2822   4.182   6.276   5.423 -0.3229 -0.8225  0.0110
   14MOL   H197 2823   4.195   5.990   5.592 -2.5119 -1.4340 -1.4883
   14MOL   H198 2824   4.305   6.057   5.476 -0.0822  2.1013  2.6071
   14MOL   H199 2825   4.048   6.209   5.553 -1.0149 -2.5654 -0.1715
   14MOL   H200 2826   4.217   6.226   5.613  0.3856 -1.8920 -0.0092
   14MOL   H201 2827   4.144   6.367   5.444 -1.5580 -0.9418 -1.5961
   14MOL   H202 2828   4.131   6.255   5.338  1.0860 -1.1243 -0.7798
   15MOL     C1 2829   4.082   4.002   6.216  0.1194  0.2953  0.4630
   15MOL     O2 2830   4.144   3.896   6.222 -0.2329  0.3212  0.2773
   15MOL     C3 2831   4.002   4.061   6.337 -0.2085  1.4040 -0.7042
   15MOL     C4 2832   3.872   3.990   6.359  0.1835  0.1352  0.1643
   15MOL     N5 2833   3.879   3.844   6.396  0.7001  0.1060 -0.1251
   15MOL     H6 2834   3.972   4.163   6.313  0.3616  2.6873  3.6402
   15MOL     H7 2835   4.043   4.060   6.438 -1.1208 -0.1007 -0.3233
   15MOL     H8 2836   3.799   4.022   6.285 -0.6416 -0.3368  0.7751
   15MOL     H9 2837   3.830   4.042   6.444  0.2298  1.6538 -0.7267
   15MOL    H10 2838   3.930   3.825   6.481  1.9507  2.6024 -0.2709
   15MOL    H11 2839   4.085   4.055   6.121  1.1367 -1.0701 -0.2885
   15MOL    C12 2840   3.808   3.745   6.337 -0.7500 -0.5301  0.4015
   15MOL    O13 2841   3.733   3.768   6.244  0.4691  0.1625  0.4397
   15MOL    C14 2842   3.843   3.604   6.386 -0.1551 -0.8224  0.6597
   15MOL    C15 2843   3.720   3.520   6.428  0.4193 -0.3636  0.4468
   15MOL    N16 2844   3.672   3.552   6.558 -0.2434 -0.6867  0.3954
   15MOL    H17 2845   3.924   3.599   6.458  0.4399  0.1187  0.0820
   15MOL    H18 2846   3.891   3.562   6.297 -3.3581  0.6918 -1.8879
   15MOL    H19 2847   3.636   3.552   6.367  2.3164  0.3395 -1.8722
   15MOL    H20 2848   3.751   3.416   6.417  0.6067 -0.2689  0.0755
   15MOL    H21 2849   3.594   3.616   6.560 -0.0720 -0.5098  2.6391
   15MOL    C22 2850   3.738   3.530   6.673 -0.1326 -0.0567 -0.4697
   15MOL    O23 2851   3.847   3.472   6.686  0.1039  0.2892 -0.0697
   15MOL    C24 2852   3.677   3.594   6.798 -0.2388  0.0793  0.1158
   15MOL    C25 2853   3.766   3.603   6.928 -1.1895  0.2444 -0.3045
   15MOL    N26 2854   3.759   3.726   7.010  0.3188 -0.1912  0.1577
   15MOL    H27 2855   3.591   3.536   6.830  0.6482 -1.2673  0.1252
   15MOL    H28 2856   3.631   3.687   6.763  0.4571  0.0476 -0.9048
   15MOL    H29 2857   3.729   3.523   6.992 -0.9085  0.7881  0.5442
   15MOL    H30 2858   3.869   3.569   6.914 -0.5398  1.7790  0.5408
   15MOL    H31 2859   3.839   3.787   6.999 -0.4641  1.1295  1.6063
   15MOL    C32 2860   3.653   3.786   7.059 -0.7916  0.0169 -0.4839
   15MOL    O33 2861   3.544   3.735   7.054  0.2492  0.9025  0.0364
   15MOL    C34 2862   3.678   3.913   7.138 -0.5207 -0.0110  0.2523
   15MOL    C35 2863   3.593   3.914   7.272 -0.1578  0.2866  0.5079
   15MOL    N36 2864   3.628   4.022   7.362  0.3677 -0.1133 -0.2160
   15MOL    H37 2865   3.648   3.999   7.077  0.3747 -0.9844 -1.5769
   15MOL    H38 2866   3.785   3.921   7.158 -0.7615 -0.2986  1.7623
   15MOL    H39 2867   3.490   3.937   7.244 -0.3191 -2.3489 -1.3162
   15MOL    H40 2868   3.581   3.818   7.322 -2.6805  0.9651  1.2514
   15MOL    H41 2869   3.593   4.113   7.337  0.7617 -0.3677 -1.7088
   15MOL    C42 2870   3.729   4.006   7.456 -0.3001  0.4173  0.3470
   15MOL    O43 2871   3.779   3.894   7.479 -0.5168 -0.5511  0.0367
   15MOL    C44 2872   3.787   4.122   7.535 -0.1502  0.0602 -0.8278
   15MOL    C45 2873   3.697   4.159   7.652  0.0268  0.0057 -1.1609
   15MOL    N46 2874   3.584   4.238   7.611  0.1320  0.2592 -0.1677
   15MOL    H47 2875   3.890   4.096   7.560  0.4198  1.9230 -1.0954
   15MOL    H48 2876   3.791   4.214   7.475  0.6728 -0.0675 -0.9818
   15MOL    H49 2877   3.654   4.063   7.680 -0.0324  0.4588  0.3989
   15MOL    H50 2878   3.759   4.190   7.737  0.2032  0.4944 -1.4604
   15MOL    H51 2879   3.571   4.256   7.512  1.6272 -0.2786 -0.4683
   15MOL    C52 2880   3.499   4.295   7.695  0.3563 -0.3902 -0.2115
   15MOL    O53 2881   3.512   4.295   0.042 -0.2076  0.3106 -0.0289
   15MOL    C54 2882   3.389   4.367   7.626 -0.1736 -0.3960 -0.0566
   15MOL    C55 2883   3.441   4.500   7.565 -0.0273 -0.0945  0.0024
   15MOL    N56 2884   3.338   4.580   7.495 -0.0011 -0.3584  0.3257
   15MOL    H57 2885   3.344   4.307   7.546 -1.8220 -0.1664  0.6631
   15MOL    H58 2886   3.313   4.386   7.702 -0.7149 -2.2627 -0.0952
   15MOL    H59 2887   3.521   4.463   7.501 -1.1326 -0.7223 -1.0515
   15MOL    H60 2888   3.494   4.561   7.637  0.7332 -0.8492  0.0944
   15MOL    H61 2889   3.328   4.561   7.396  1.8575 -2.1447  0.4334
   15MOL    C62 2890   3.260   4.675   7.551 -0.3587 -0.1340 -0.3469
   15MOL    O63 2891   3.250   4.688   7.674  0.0329  0.0526  0.4348
   15MOL    C64 2892   3.174   4.772   7.464 -0.1058 -0.1164 -0.1910
   15MOL    C65 2893   3.051   4.843   7.532  0.6908 -0.0726  0.2585
   15MOL    N66 2894   3.032   4.977   7.494 -0.0920  0.1172  0.3598
   15MOL    H67 2895   3.256   4.834   7.426 -0.2884 -0.0674 -0.5034
   15MOL    H68 2896   3.153   4.715   7.374 -1.7128 -1.2651  0.9015
   15MOL    H69 2897   2.967   4.787   7.490  0.7285  0.6683 -0.8372
   15MOL    H70 2898   3.030   4.813   7.635 -1.9007 -1.5867 -0.6772
   15MOL    H71 2899   3.007   4.999   7.398  2.6309  0.5272 -0.2761
   15MOL    C72 2900   3.087   5.087   7.547  0.4950  0.4357  0.1500
   15MOL    O73 2901   3.137   5.095   7.655  0.1527  0.1287 -0.2183
   15MOL    C74 2902   3.088   5.216   7.461 -0.2987 -0.3896 -0.0002
   15MOL    C75 2903   3.033   5.343   7.527 -0.2711  0.3134 -0.3277
   15MOL    N76 2904   2.885   5.348   7.524 -0.1412 -0.8807 -0.2702
   15MOL    H77 2905   3.195   5.229   7.451 -0.1507 -0.2299  1.7441
   15MOL    H78 2906   3.038   5.192   7.367  0.9932 -1.4568 -0.4415
   15MOL    H79 2907   3.055   5.341   7.634 -0.0520  2.3325 -0.3202
   15MOL    H80 2908   3.081   5.433   7.490 -1.1268  1.8716  2.2502
   15MOL    H81 2909   2.833   5.303   7.598 -0.9746  0.7876  0.1622
   15MOL    C82 2910   2.813   5.415   7.439  0.3040  0.7611 -0.1025
   15MOL    O83 2911   2.868   5.494   7.362 -0.1765 -0.3939 -0.6847
   15MOL    C84 2912   2.669   5.372   7.431 -0.0493 -1.2171 -0.5163
   15MOL    C85 2913   2.612   5.405   7.290  0.4943 -0.7201  0.2278
   15MOL    N86 2914   2.474   5.360   7.265  0.1491  0.2711  0.0895
   15MOL    H87 2915   2.665   5.266   7.456 -0.9728 -0.8554  0.9259
   15MOL    H88 2916   2.614   5.420   7.512  4.0383  0.5421  1.3476
   15MOL    H89 2917   2.600   5.512   7.273 -2.1375 -0.8309  1.2434
   15MOL    H90 2918   2.679   5.377   7.208 -2.5308  2.7924 -3.6275
   15MOL    H91 2919   2.402   5.415   7.310  0.2308 -1.9150  3.0185
   15MOL    C92 2920   2.442   5.239   7.234  0.3644  0.4255  0.1492
   15MOL    O93 2921   2.340   5.185   7.261 -0.0042  0.2065 -0.2462
   15MOL    C94 2922   2.543   5.158   7.152 -0.2042 -0.3819 -0.0437
   15MOL    C95 2923   2.667   5.096   7.226  0.1134 -1.4220 -0.4350
   15MOL    N96 2924   2.631   5.017   7.356 -0.4187  0.7679 -0.3217
   15MOL    H97 2925   2.498   5.076   7.096 -1.2391  1.5172 -2.0674
   15MOL    H98 2926   2.570   5.215   7.064  2.0269 -0.0732  0.8146
   15MOL    H99 2927   2.716   5.022   7.162  1.2421 -1.4295  0.4163
   15MOL   H100 2928   2.737   5.174   7.254 -1.2570 -0.2219 -0.2876
   15MOL   H101 2929   2.599   5.076   7.432 -2.4423 -1.7010  0.8113
   15MOL   C102 2930   2.644   4.889   7.383 -0.2191 -0.0449 -0.3103
   15MOL   O103 2931   2.691   4.810   7.311 -0.0936 -0.2207  0.2929
   15MOL   C104 2932   2.578   4.838   7.508  0.7042 -0.0435  0.9645
   15MOL   C105 2933   2.677   4.790   7.619  0.2209 -0.8739  0.6073
   15MOL   N106 2934   2.742   4.673   7.577  0.1378 -0.1052  0.3705
   15MOL   H107 2935   2.520   4.751   7.477  0.4058  0.2197  0.7809
   15MOL   H108 2936   2.503   4.913   7.534  0.5424  0.7249 -1.6323
   15MOL   H109 2937   2.748   4.868   7.645 -1.6609  1.7802 -1.9346
   15MOL   H110 2938   2.629   4.778   7.716 -0.4967  2.9602  0.8028
   15MOL   H111 2939   2.728   4.647   7.480  2.5561 -0.8152  0.1850
   15MOL   C112 2940   2.827   4.599   7.647  0.0621 -0.6248 -0.2264
   15MOL   O113 2941   2.847   4.618   7.767  0.6145 -0.2335  0.6108
   15MOL   C114 2942   2.905   4.485   7.575  0.5254 -0.4520 -0.1990
   15MOL   C115 2943   3.002   4.400   7.663 -0.2578  0.4919 -0.0176
   15MOL   N116 2944   2.919   4.303   7.732 -0.2828 -0.0628 -0.4623
   15MOL   H117 2945   2.964   4.542   7.503 -1.8422  2.0517 -0.2013
   15MOL   H118 2946   2.851   4.417   7.510  0.8047  1.2011 -2.2300
   15MOL   H119 2947   3.059   4.350   7.584 -2.8860 -0.5500 -1.3268
   15MOL   H120 2948   3.075   4.453   7.723  0.0945 -0.9188  0.8315
   15MOL   H121 2949   2.824   4.332   7.752  0.1582  0.6074  0.6997
   15MOL   C122 2950   2.956   4.190   0.022  0.6049 -0.2368 -0.3062
   15MOL   O123 2951   3.074   4.151   0.025 -0.1315 -0.4458  0.4408
   15MOL   C124 2952   2.854   4.117   0.112  0.0673  0.9657 -0.7031
   15MOL   C125 2953   2.892   3.975   0.152  0.1955  1.1436 -0.1045
   15MOL   N126 2954   2.956   3.958   0.282 -0.3955 -0.5668  0.0486
   15MOL   H127 2955   2.763   4.115   0.052  0.6995 -4.1357 -1.6972
   15MOL   H128 2956   2.825   4.179   0.197  0.0717  0.3478 -0.2503
   15MOL   H129 2957   2.800   3.918   0.149 -0.2381  1.8662 -0.9067
   15MOL   H130 2958   2.956   3.935   0.074  0.6734  0.2193  0.7539
   15MOL   H131 2959   2.993   4.046   0.313 -1.5641 -0.8035  2.2216
   15MOL   C132 2960   2.980   3.844   0.347 -0.4817 -0.2873 -0.0432
   15MOL   O133 2961   2.955   3.738   0.290  0.2860 -0.3975  0.1053
   15MOL   C134 2962   3.050   3.856   0.481 -0.0321  0.3363  0.3510
   15MOL   C135 2963   3.036   3.717   0.548 -0.4252  0.0917 -0.4369
   15MOL   N136 2964   3.136   3.709   0.657 -0.4134 -0.1525  1.0782
   15MOL   H137 2965   3.004   3.926   0.550 -0.3044 -0.7630  1.3048
   15MOL   H138 2966   3.153   3.893   0.482  0.3706 -0.7481  0.5255
   15MOL   H139 2967   2.946   3.720   0.610 -0.6878  0.2669 -0.8233
   15MOL   H140 2968   3.045   3.629   0.485 -1.2174 -2.0446  2.3225
   15MOL   H141 2969   3.130   3.783   0.725 -1.3682  1.0209 -0.2534
   15MOL   C142 2970   3.216   3.602   0.684 -0.0582  0.7293  0.7827
   15MOL   O143 2971   3.194   3.493   0.628  0.0056 -0.5447  0.5827
   15MOL   C144 2972   3.317   3.602   0.799 -0.2713 -1.3002  1.2268
   15MOL   C145 2973   3.296   3.502   0.916 -0.6184 -0.1002 -0.2200
   15MOL   N146 2974   3.355   3.540   1.037 -0.3407  0.5094  0.4336
   15MOL   H147 2975   3.318   3.701   0.846 -0.8502 -0.7387  0.0945
   15MOL   H148 2976   3.418   3.587   0.762 -0.0842  2.2767  0.0982
   15MOL   H149 2977   3.189   3.493   0.935 -0.7236 -0.5187 -0.9669
   15MOL   H150 2978   3.331   3.401   0.894 -0.2946 -1.1234  4.5142
   15MOL   H151 2979   3.305   3.610   1.090 -1.5857  0.4764 -0.6751
   15MOL   C152 2980   3.487   3.509   1.078 -0.1421 -0.2871  0.8651
   15MOL   O153 2981   3.562   3.436   1.013 -0.4704 -0.0547  0.1944
   15MOL   C154 2982   3.535   3.593   1.194  0.1383  0.0663 -0.3315
   15MOL   C155 2983   3.637   3.505   1.278 -0.2692 -0.3379 -0.3868
   15MOL   N156 2984   3.712   3.587   1.373  0.5890  0.4220 -0.0316
   15MOL   H157 2985   3.454   3.620   1.262  0.1675  1.9935 -1.0373
   15MOL   H158 2986   3.575   3.684   1.152 -1.7046  1.4659  0.8454
   15MOL   H159 2987   3.580   3.425   1.326 -0.8641  0.0083 -0.5118
   15MOL   H160 2988   3.716   3.452   1.224 -1.8356 -0.4013 -2.6949
   15MOL   H161 2989   3.791   3.637   1.336  1.0731 -1.1897 -1.2501
   15MOL   C162 2990   3.694   3.591   1.503 -0.4379 -0.4279  0.3275
   15MOL   O163 2991   3.610   3.519   1.556 -0.0244  0.4297 -0.1585
   15MOL   C164 2992   3.788   3.677   1.581 -0.0370 -0.1814 -0.1402
   15MOL   C165 2993   3.853   3.608   1.702  0.2930 -0.2470 -0.2469
   15MOL   N166 2994   3.954   3.509   1.674  0.1497 -0.1390  0.1934
   15MOL   H167 2995   3.732   3.764   1.615 -0.2166 -1.0569  1.9031
   15MOL   H168 2996   3.871   3.715   1.522  0.4369 -0.5148  0.3050
   15MOL   H169 2997   3.896   3.681   1.771 -4.0585  2.7909 -0.5113
   15MOL   H170 2998   3.774   3.570   1.766  0.7972  1.4065  1.4007
   15MOL   H171 2999   3.990   3.504   1.580 -0.6233 -0.3292 -0.1021
   15MOL   C172 3000   3.998   3.415   1.768 -0.1265 -0.9981  0.3296
   15MOL   O173 3001   3.949   3.408   1.877  0.2443  0.2274  0.2871
   15MOL   C174 3002   4.115   3.331   1.729  0.1537 -0.0893 -0.5117
   15MOL   C175 3003   4.086   3.180   1.739 -0.5139 -0.2912  0.6805
   15MOL   N176 3004   4.079   3.126   1.876  0.2567  0.1283  0.3290
   15MOL   H177 3005   4.206   3.362   1.781  0.7878 -1.7440 -0.6237
   15MOL   H178 3006   4.130   3.353   1.623 -4.0646  1.5861 -0.8721
   15MOL   H179 3007   4.001   3.153   1.676 -1.0218  0.2060  1.1441
   15MOL   H180 3008   4.174   3.140   1.688 -0.3053  0.8969  0.0880
   15MOL   H181 3009   4.105   3.189   1.950 -0.9760  0.4067  0.5492
   15MOL   C182 3010   4.033   3.002   1.892 -0.2338  0.3194 -0.5761
   15MOL   O183 3011   3.987   2.936   1.797  0.2705 -0.4956 -0.6998
   15MOL   C184 3012   4.021   2.951   2.033  0.1763 -0.3206 -0.2399
   15MOL   C185 3013   4.056   2.803   2.053  0.0293 -0.4792 -0.5073
   15MOL   N186 3014   4.194   2.779   2.068 -0.3860  0.1322  0.4048
   15MOL   H187 3015   3.920   2.971   2.067  1.4379  0.9471  2.9740
   15MOL   H188 3016   4.084   3.011   2.099  0.1289 -1.1515  0.5730
   15MOL   H189 3017   4.009   2.772   2.146  0.6991  0.4088  0.1379
   15MOL   H190 3018   4.019   2.751   1.965  0.2563  0.4750 -1.1688
   15MOL   H191 3019   4.245   2.830   2.139 -0.3487 -2.2564  2.1375
   15MOL   C192 3020   4.267   2.683   2.003  0.1134 -0.4792  0.2701
   15MOL   O193 3021   4.220   2.607   1.927  0.9171 -0.1023  0.7669
   15MOL   C194 3022   4.413   2.672   2.044 -0.4444 -0.3051  0.4898
   15MOL   C195 3023   4.457   2.555   2.120 -0.4056 -0.2801 -0.5161
   15MOL   N196 3024   4.452   2.436   2.034 -0.5779 -0.1803 -0.2932
   15MOL   H197 3025   4.467   2.676   1.949 -0.1743 -0.8670  0.6152
   15MOL   H198 3026   4.439   2.770   2.083  0.7890 -0.1328 -0.7133
   15MOL   H199 3027   4.557   2.575   2.160 -0.9958  0.7204  0.4855
   15MOL   H200 3028   4.387   2.535   2.202  2.1597  0.3470  1.9164
   15MOL   H201 3029   4.504   2.439   1.947  0.2421 -0.9879  0.1553
   15MOL   H202 3030   4.356   2.421   2.009 -0.2084 -0.4414 -1.5824
   16MOL     C1 3031   7.151   0.155   0.202  0.3215  0.6854  0.3187
   16MOL     O2 3032   7.105   0.195   0.312  0.1051  0.3456 -0.1592
   16MOL     C3 3033   7.068   0.111   0.079 -0.0894 -0.2413  0.1762
   16MOL     C4 3034   6.968   0.008   0.122  0.5943  0.6104  0.6899
   16MOL     N5 3035   6.838   0.070   0.142 -0.0193 -0.0050 -0.2650
   16MOL     H6 3036   7.132   0.068   0.002 -0.4851 -0.6885  0.0950
   16MOL     H7 3037   7.015   0.191   0.027 -3.4917 -1.5577  1.4489
   16MOL     H8 3038   6.994   7.733   0.212  1.8957 -0.1091 -0.0957
   16MOL     H9 3039   6.972   7.719   0.037  2.3822  0.4976  0.8522
   16MOL    H10 3040   6.834   0.160   0.189 -1.4283 -0.5270  0.6218
   16MOL    H11 3041   7.255   0.152   0.169  0.1400 -1.3968 -0.1040
   16MOL    C12 3042   6.726   0.007   0.116  1.0935  0.4974  0.5125
   16MOL    O13 3043   6.716   7.686   0.049 -0.1913  0.2284  0.2614
   16MOL    C14 3044   6.588   0.079   0.146  0.2689 -0.0041 -0.0343
   16MOL    C15 3045   6.535   0.142   0.022  0.0684 -0.8207  0.5482
   16MOL    N16 3046   6.619   0.261   7.774 -0.5809 -0.4066 -0.7944
   16MOL    H17 3047   6.613   0.148   0.227  0.8149 -0.6824  0.3829
   16MOL    H18 3048   6.528   7.777   0.186  2.9033 -2.3005 -0.6569
   16MOL    H19 3049   6.541   0.069   7.722  0.5496  1.0081 -1.1397
   16MOL    H20 3050   6.432   0.177   0.034  0.3706 -0.5820  2.6060
   16MOL    H21 3051   6.697   0.278   0.055  0.7699 -1.6930 -2.1093
   16MOL    C22 3052   6.612   0.343   7.665  0.5731  0.3759 -0.2599
   16MOL    O23 3053   6.525   0.338   7.582 -0.8800  0.4455 -0.2013
   16MOL    C24 3054   6.719   0.451   7.661  0.5205  0.2487 -0.0418
   16MOL    C25 3055   6.743   0.522   7.532  0.2257 -0.1473 -0.4382
   16MOL    N26 3056   6.859   0.610   7.551 -0.5551 -0.0525 -0.7080
   16MOL    H27 3057   6.816   0.412   7.693  0.5749 -1.4995 -2.2140
   16MOL    H28 3058   6.688   0.510   7.747  0.6031  0.7802 -0.3773
   16MOL    H29 3059   6.766   0.450   7.454 -0.3963 -1.9088  0.9970
   16MOL    H30 3060   6.650   0.573   7.509  0.4685  0.7747  0.5955
   16MOL    H31 3061   6.842   0.700   7.595  0.1211 -0.7781  1.0760
   16MOL    C32 3062   6.989   0.585   7.531 -0.3159  0.3140 -0.2680
   16MOL    O33 3063   7.030   0.486   7.475 -0.0704 -0.3052  0.2262
   16MOL    C34 3064   7.091   0.693   7.568  0.3994  0.0968  0.3837
   16MOL    C35 3065   7.178   0.736   7.455  0.0892 -0.8432  0.6966
   16MOL    N36 3066   7.103   0.791   7.343 -0.4123  0.4261  0.3458
   16MOL    H37 3067   7.154   0.665   7.652 -0.7981  2.4186  2.1024
   16MOL    H38 3068   7.040   0.776   7.618  0.5091  1.0128 -1.0095
   16MOL    H39 3069   7.261   0.799   7.486  0.4774 -2.1736  2.4188
   16MOL    H40 3070   7.222   0.646   7.412 -0.2515 -1.0633  0.8032
   16MOL    H41 3071   7.078   0.721   7.274 -1.6407  2.1243 -0.9895
   16MOL    C42 3072   7.080   0.918   7.312 -0.5835  0.4184  0.1685
   16MOL    O43 3073   7.036   0.952   7.202  0.3510  0.2217 -0.6854
   16MOL    C44 3074   7.128   1.035   7.405  0.2206 -0.6239  0.6966
   16MOL    C45 3075   7.229   1.130   7.336 -0.5476 -0.4495 -0.0545
   16MOL    N46 3076   7.357   1.139   7.413 -0.7202  0.8010  0.2797
   16MOL    H47 3077   7.036   1.086   7.435  0.2036 -0.5192  0.4647
   16MOL    H48 3078   7.156   1.011   7.508 -1.1991 -1.8576  0.8069
   16MOL    H49 3079   7.247   1.097   7.233  1.3793 -0.9445  0.4137
   16MOL    H50 3080   7.187   1.230   7.327  1.7028  0.5556  0.2735
   16MOL    H51 3081   7.361   1.207   7.488 -0.2384  1.2677 -0.1680
   16MOL    C52 3082   7.464   1.059   7.391 -0.3506  0.3195 -0.7074
   16MOL    O53 3083   7.468   0.975   7.299 -0.0482 -0.0683 -0.5380
   16MOL    C54 3084   7.574   1.053   7.500 -0.4921 -0.3053  0.1298
   16MOL    C55 3085   7.618   0.909   7.542  0.3397  0.4786 -0.5661
   16MOL    N56 3086   7.741   0.908   7.618  0.6380  0.6086  0.3478
   16MOL    H57 3087   7.661   1.104   7.458 -1.8661 -0.0715 -2.5371
   16MOL    H58 3088   7.540   1.108   7.588 -1.3293 -0.2708 -0.2122
   16MOL    H59 3089   7.634   0.842   7.458  0.4503  2.1523 -1.8995
   16MOL    H60 3090   7.543   0.870   7.611  1.0199  1.5298  0.7812
   16MOL    H61 3091   0.045   0.938   7.572 -0.1226  0.5382 -1.1075
   16MOL    C62 3092   7.754   0.888   7.750 -0.3470  0.0463  0.2350
   16MOL    O63 3093   7.664   0.845   0.039  0.2733 -0.4419  0.5258
   16MOL    C64 3094   0.103   0.922   0.037  0.3992  0.0515 -0.0900
   16MOL    C65 3095   0.106   0.916   0.193 -0.8235 -0.7450  0.3019
   16MOL    N66 3096   0.128   0.786   0.244 -0.2339 -0.2777 -0.1617
   16MOL    H67 3097   0.182   0.857   7.779 -0.4595 -1.3220  0.4115
   16MOL    H68 3098   0.140   1.021   0.010  1.9449  0.4009  3.0398
   16MOL    H69 3099   0.191   0.977   0.225 -0.7802  0.9562 -2.9041
   16MOL    H70 3100   0.009   0.942   0.236  0.3062  0.4880  2.1769
   16MOL    H71 3101   0.109   0.713   0.177  1.0352 -1.0024  0.2468
   16MOL    C72 3102   0.152   0.763   0.371 -0.3358 -0.4102  0.4353
   16MOL    O73 3103   0.165   0.855   0.448  0.5519 -0.1789  0.1099
   16MOL    C74 3104   0.171   0.617   0.414 -0.3255 -0.1258  0.2982
   16MOL    C75 3105   0.173   0.585   0.564 -0.5989 -0.1092 -0.7431
   16MOL    N76 3106   0.254   0.466   0.588  0.3074 -0.8840 -0.1020
   16MOL    H77 3107   0.107   0.545   0.361 -1.1486  1.6015 -1.0971
   16MOL    H78 3108   0.270   0.595   0.374 -0.1971  2.8472 -1.1700
   16MOL    H79 3109   0.197   0.669   0.629 -0.6042 -0.4896 -0.2512
   16MOL    H80 3110   0.071   0.563   0.595 -0.4410  1.7028  1.2450
   16MOL    H81 3111   0.251   0.395   0.516 -2.1339  0.3952 -1.3162
   16MOL    C82 3112   0.330   0.457   0.702 -0.4017 -0.1768  0.8408
   16MOL    O83 3113   0.324   0.548   0.786 -1.1880  0.0293 -0.2336
   16MOL    C84 3114   0.426   0.338   0.703 -0.1914  0.3218  0.2256
   16MOL    C85 3115   0.476   0.304   0.845 -0.9336  0.2114 -0.0737
   16MOL    N86 3116   0.374   0.216   0.910 -0.1774  0.0389  0.0530
   16MOL    H87 3117   0.380   0.250   0.658  0.5790  0.0062  0.0364
   16MOL    H88 3118   0.518   0.377   0.658 -0.2172  0.7385  0.5384
   16MOL    H89 3119   0.571   0.252   0.841 -0.3115  1.1671  1.7842
   16MOL    H90 3120   0.487   0.399   0.898 -0.7671  0.2146 -0.1155
   16MOL    H91 3121   0.292   0.188   0.857 -0.1935 -2.1304  1.1499
   16MOL    C92 3122   0.377   0.171   1.035  1.0099 -0.1916 -0.0998
   16MOL    O93 3123   0.473   0.188   1.113  0.2319  0.1712  0.0366
   16MOL    C94 3124   0.257   0.089   1.077  0.2241 -0.0301  0.4835
   16MOL    C95 3125   0.293   7.719   1.098  0.4505 -0.4565  0.1075
   16MOL    N96 3126   0.336   7.681   1.230 -0.7802  1.1710 -0.4702
   16MOL    H97 3127   0.220   0.126   1.173  0.9737 -1.1499  1.2209
   16MOL    H98 3128   0.176   0.095   1.005  0.3190 -2.2023  0.1602
   16MOL    H99 3129   0.201   7.664   1.077  1.4602 -1.8681 -0.6516
   16MOL   H100 3130   0.364   7.692   1.020 -0.0676 -0.6119 -0.3129
   16MOL   H101 3131   0.298   7.735   1.307 -0.2789 -1.2386  1.5318
   16MOL   C102 3132   0.448   7.604   1.250  0.3954 -0.2744  0.1950
   16MOL   O103 3133   0.514   7.553   1.159  0.2047  0.4819 -0.3513
   16MOL   C104 3134   0.485   7.596   1.395  0.5412  0.4579 -0.3659
   16MOL   C105 3135   0.582   7.707   1.442 -0.3299 -0.3300 -0.4937
   16MOL   N106 3136   0.512   0.047   1.467 -0.3871 -0.0413 -1.0960
   16MOL   H107 3137   0.526   7.497   1.412  0.0300 -0.1646 -2.6058
   16MOL   H108 3138   0.390   7.599   1.450  0.7616 -1.4602  0.1494
   16MOL   H109 3139   0.626   7.675   1.536 -0.5651 -0.0592 -0.2922
   16MOL   H110 3140   0.664   7.713   1.371 -0.2486  1.2871 -0.2787
   16MOL   H111 3141   0.412   0.037   1.477 -0.1914 -1.1337 -0.1388
   16MOL   C112 3142   0.586   0.153   1.497 -0.0113  0.0700 -0.9667
   16MOL   O113 3143   0.711   0.161   1.504 -0.5275 -0.1962  0.0291
   16MOL   C114 3144   0.499   0.273   1.508 -0.3638  0.1003 -0.7062
   16MOL   C115 3145   0.570   0.388   1.584  0.4421 -0.5859 -0.7666
   16MOL   N116 3146   0.483   0.503   1.595  0.1146 -0.1413 -0.2677
   16MOL   H117 3147   0.414   0.247   1.571  1.1691  0.3948  1.5539
   16MOL   H118 3148   0.468   0.312   1.411  0.4075  0.5098 -0.7871
   16MOL   H119 3149   0.606   0.349   1.679 -1.8255 -1.1405 -0.0917
   16MOL   H120 3150   0.660   0.417   1.530 -0.3417  0.3529 -1.5923
   16MOL   H121 3151   0.410   0.491   1.664 -0.3250 -1.3990 -0.9206
   16MOL   C122 3152   0.500   0.615   1.524  0.3839  0.5375 -0.5373
   16MOL   O123 3153   0.590   0.634   1.444 -0.0690 -0.0061  0.1258
   16MOL   C124 3154   0.389   0.715   1.551 -0.3414 -0.2360  0.2265
   16MOL   C125 3155   0.414   0.850   1.478 -0.3467  0.7288 -0.0428
   16MOL   N126 3156   0.312   0.949   1.507  0.4988  0.2373  0.1513
   16MOL   H127 3157   0.364   0.718   1.657 -2.3401  1.0556 -0.2398
   16MOL   H128 3158   0.299   0.669   1.510 -3.6892  4.0662  2.3407
   16MOL   H129 3159   0.511   0.886   1.513 -0.1976  0.4228 -0.1423
   16MOL   H130 3160   0.416   0.838   1.370 -0.3266 -0.8963  0.1300
   16MOL   H131 3161   0.301   1.001   1.593  1.0040  1.0690 -0.2807
   16MOL   C132 3162   0.202   0.966   1.432  0.2535  0.2196 -0.6277
   16MOL   O133 3163   0.181   0.901   1.329  0.1047 -0.7148 -0.0976
   16MOL   C134 3164   0.102   1.075   1.490  0.0701 -0.3857 -0.0465
   16MOL   C135 3165   0.059   1.177   1.384 -0.5617  0.3429  0.1548
   16MOL   N136 3166   7.729   1.126   1.303  0.6954 -0.3742 -0.0984
   16MOL   H137 3167   0.155   1.120   1.573  1.4866 -2.4689  0.2361
   16MOL   H138 3168   0.015   1.028   1.538  0.4814 -1.5293 -0.3894
   16MOL   H139 3169   0.038   1.274   1.429  0.3303 -0.1081  1.5863
   16MOL   H140 3170   0.138   1.196   1.312  0.0063 -0.8202  0.4472
   16MOL   H141 3171   7.740   1.041   1.250  2.1878  0.9063 -1.9105
   16MOL   C142 3172   7.616   1.198   1.285 -0.4114 -0.1028  0.3035
   16MOL   O143 3173   7.595   1.303   1.349  0.3140 -0.8569  0.3009
   16MOL   C144 3174   7.510   1.137   1.195 -0.1864 -0.7975 -0.0225
   16MOL   C145 3175   7.408   1.236   1.139  0.0247  0.7081  0.0410
   16MOL   N146 3176   7.307   1.273   1.235 -0.6047  1.8704 -0.4049
   16MOL   H147 3177   7.468   1.051   1.246  2.0285 -1.8184  0.1269
   16MOL   H148 3178   7.561   1.103   1.105  0.4711 -0.9610  0.4075
   16MOL   H149 3179   7.452   1.332   1.110  2.9668  0.2662  2.7040
   16MOL   H150 3180   7.372   1.206   1.041  0.2152  5.3800 -1.5724
   16MOL   H151 3181   7.337   1.323   1.318  1.9798 -0.4369  0.1498
   16MOL   C152 3182   7.174   1.250   1.234  0.2748 -0.3092 -0.3175
   16MOL   O153 3183   7.117   1.189   1.143 -0.6805 -0.3100  0.3689
   16MOL   C154 3184   7.090   1.298   1.346  0.2136  0.3529 -0.5067
   16MOL   C155 3185   6.942   1.242   1.349  0.1791 -0.2948  0.1011
   16MOL   N156 3186   6.860   1.282   1.462  0.6355 -0.7511  0.2898
   16MOL   H157 3187   7.088   1.403   1.319 -2.6360  0.5236  0.2304
   16MOL   H158 3188   7.141   1.291   1.441  1.8322 -3.1095 -1.5617
   16MOL   H159 3189   6.893   1.262   1.254 -0.3250  1.9003  0.8030
   16MOL   H160 3190   6.943   1.133   1.358  0.0064 -0.3550 -0.5632
   16MOL   H161 3191   6.781   1.339   1.435  1.2195  0.8175  1.7758
   16MOL   C162 3192   6.876   1.246   1.589  0.2134 -0.2444 -0.2574
   16MOL   O163 3193   6.967   1.163   1.629 -0.2379  0.3213  0.1625
   16MOL   C164 3194   6.753   1.278   1.676  0.6588  0.3751  0.4424
   16MOL   C165 3195   6.796   1.319   1.817 -0.4315 -0.9155 -0.0934
   16MOL   N166 3196   6.743   1.447   1.860  0.1896 -0.0209  0.1792
   16MOL   H167 3197   6.696   1.185   1.669  1.5010 -0.3591  2.8746
   16MOL   H168 3198   6.694   1.358   1.631 -3.7048 -1.9356  1.7939
   16MOL   H169 3199   6.766   1.246   1.892  1.9968  0.0252  1.8583
   16MOL   H170 3200   6.905   1.321   1.821 -0.4054 -1.4728 -0.5061
   16MOL   H171 3201   6.655   1.448   1.909  0.1962 -0.6660  0.2052
   16MOL   C172 3202   6.819   1.553   1.865  0.1223 -0.7903 -0.0111
   16MOL   O173 3203   6.915   1.573   1.795  0.0611  0.1180  0.0119
   16MOL   C174 3204   6.775   1.665   1.967  0.3774 -0.1777 -0.3763
   16MOL   C175 3205   6.705   1.787   1.901 -0.2097 -0.1291  0.6509
   16MOL   N176 3206   6.790   1.862   1.811 -0.4091 -0.0735 -0.2733
   16MOL   H177 3207   6.865   1.702   2.016  0.8856 -0.9164 -0.7535
   16MOL   H178 3208   6.721   1.629   2.054 -0.6031 -0.8531 -1.2521
   16MOL   H179 3209   6.612   1.754   1.857  0.2503 -0.0804 -0.3694
   16MOL   H180 3210   6.675   1.856   1.981 -0.8581 -0.0165  0.3075
   16MOL   H181 3211   6.813   1.803   1.733 -1.5682 -0.7312 -0.1332
   16MOL   C182 3212   6.877   1.959   1.855  0.1895 -0.4878  0.7826
   16MOL   O183 3213   6.865   2.021   1.965 -0.0860 -0.6944  0.1258
   16MOL   C184 3214   6.997   1.991   1.767  0.0471 -0.0111 -0.9548
   16MOL   C185 3215   7.102   1.882   1.780  0.2846  0.3057  0.2482
   16MOL   N186 3216   7.080   1.767   1.697  0.5991 -0.6254 -0.0033
   16MOL   H187 3217   7.047   2.079   1.808  1.1307 -0.3426 -1.5298
   16MOL   H188 3218   6.983   2.024   1.664 -0.9421 -0.8985 -1.1161
   16MOL   H189 3219   7.199   1.925   1.753  1.4246 -1.4255  1.5198
   16MOL   H190 3220   7.098   1.853   1.885 -0.2749 -1.1254 -0.1693
   16MOL   H191 3221   7.017   1.704   1.743 -1.0495  0.4032 -0.8144
   16MOL   C192 3222   7.096   1.767   1.561 -0.4571  0.2143  0.1215
   16MOL   O193 3223   7.159   1.853   1.502 -0.0165 -0.1260  0.0282
   16MOL   C194 3224   7.056   1.639   1.483 -0.0590  0.2749 -0.0649
   16MOL   C195 3225   6.904   1.630   1.448 -0.3890 -0.2506 -0.7167
   16MOL   N196 3226   6.809   1.645   1.558 -0.0507 -0.3226  0.1405
   16MOL   H197 3227   7.107   1.648   1.387  1.1748 -1.9924  0.3557
   16MOL   H198 3228   7.083   1.543   1.526  0.7288  1.7710  2.9139
   16MOL   H199 3229   6.873   1.695   1.366 -4.8571  1.6182  2.2741
   16MOL   H200 3230   6.883   1.527   1.417  0.9677 -1.1172  1.1372
   16MOL   H201 3231   6.731   1.588   1.528  1.2547 -1.7616 -0.6566
   16MOL   H202 3232   6.841   1.599   1.642 -0.8372  0.1083  0.6792
   17MOL     C1 3233   1.388   1.929   6.845 -0.2846  0.0728 -0.0076
   17MOL     O2 3234   1.293   1.974   6.776 -0.5897  0.1322  0.2729
   17MOL     C3 3235   1.369   1.870   6.986  0.0681  0.5765  0.6307
   17MOL     C4 3236   1.242   1.896   7.058  0.3873  0.2995 -0.0508
   17MOL     N5 3237   1.141   1.800   7.013  0.0648 -0.1799  0.5229
   17MOL     H6 3238   1.452   1.919   7.037 -0.4740  0.3929  1.7042
   17MOL     H7 3239   1.388   1.762   6.984 -3.6308 -0.1734  1.3598
   17MOL     H8 3240   1.199   1.992   7.030 -0.2803  0.0378  0.0781
   17MOL     H9 3241   1.271   1.894   7.163 -0.7094  1.7178  0.2979
   17MOL    H10 3242   1.151   1.746   6.928 -1.3682  0.4039 -0.0401
   17MOL    H11 3243   1.496   1.929   6.825 -0.1045 -0.7148  0.9598
   17MOL    C12 3244   1.021   1.777   7.077 -0.0734 -0.4645  0.4795
   17MOL    O13 3245   0.988   1.847   7.172 -0.2613 -0.0136 -0.0265
   17MOL    C14 3246   0.919   1.675   7.026 -1.2566 -0.1980  0.5925
   17MOL    C15 3247   0.807   1.624   7.120  0.2392  0.1067 -0.6191
   17MOL    N16 3248   0.851   1.526   7.216 -0.7372  0.0876  0.7478
   17MOL    H17 3249   0.978   1.593   6.985  0.6423  1.7888 -0.7411
   17MOL    H18 3250   0.879   1.722   6.936 -1.2178  4.2019  2.7512
   17MOL    H19 3251   0.756   1.700   7.179  0.6126  0.1590 -0.3626
   17MOL    H20 3252   0.724   1.577   7.068 -0.9290  1.7827 -0.2864
   17MOL    H21 3253   0.883   1.563   7.305  1.6531  2.2091 -0.9393
   17MOL    C22 3254   0.855   1.395   7.197  0.7184 -0.5377  0.4917
   17MOL    O23 3255   0.821   1.334   7.094  0.1429 -0.2860 -0.5075
   17MOL    C24 3256   0.907   1.318   7.318  0.1426  0.2324  0.2687
   17MOL    C25 3257   0.970   1.178   7.294  0.4333 -0.8310  0.2880
   17MOL    N26 3258   1.075   1.166   7.189  0.3721 -0.0473 -0.2927
   17MOL    H27 3259   0.827   1.322   7.391 -0.3471 -0.0406 -0.2531
   17MOL    H28 3260   0.985   1.377   7.366  1.7335 -0.6654 -1.1258
   17MOL    H29 3261   1.012   1.145   7.389 -0.2202  1.5887  1.4796
   17MOL    H30 3262   0.893   1.105   7.269  1.0562 -1.4097  0.0710
   17MOL    H31 3263   1.107   1.249   7.141 -0.8439  0.2579 -0.6016
   17MOL    C32 3264   1.123   1.045   7.145  0.6478  0.1392  0.4430
   17MOL    O33 3265   1.070   0.940   7.179 -0.6494  0.5349 -0.0387
   17MOL    C34 3266   1.237   1.055   7.052 -0.4029 -0.5309 -0.6862
   17MOL    C35 3267   1.195   1.105   6.915  0.1852 -0.2189 -0.1085
   17MOL    N36 3268   1.261   1.225   6.868  0.0655  0.0369 -0.1024
   17MOL    H37 3269   1.288   0.959   7.044  0.4818  0.0252 -2.0028
   17MOL    H38 3270   1.306   1.123   7.103  0.0931 -0.4151 -1.4977
   17MOL    H39 3271   1.224   1.025   6.846  3.8155  1.3162 -0.4474
   17MOL    H40 3272   1.090   1.132   6.901  0.0371 -0.0255  1.3198
   17MOL    H41 3273   1.285   1.228   6.770 -1.6457 -0.7799 -0.5697
   17MOL    C42 3274   1.266   1.342   6.928 -0.1620 -0.4134  0.3944
   17MOL    O43 3275   1.222   1.362   7.045  0.0647 -0.0381  0.2735
   17MOL    C44 3276   1.318   1.475   6.864 -0.1869 -0.2759  0.1418
   17MOL    C45 3277   1.467   1.479   6.845 -0.6196 -0.0063 -0.0464
   17MOL    N46 3278   1.513   1.378   6.751 -0.2566 -0.6564 -0.0728
   17MOL    H47 3279   1.278   1.494   6.765 -1.2682  0.1843  0.6615
   17MOL    H48 3280   1.274   1.554   6.924  0.4083  0.4467 -0.3601
   17MOL    H49 3281   1.508   1.572   6.803  0.0433 -0.4544 -0.3994
   17MOL    H50 3282   1.519   1.477   6.941 -0.0688 -1.6730 -0.3657
   17MOL    H51 3283   1.457   1.345   6.674 -1.9928 -1.5779  1.5369
   17MOL    C52 3284   1.641   1.345   6.743  0.5010  0.4063  0.2346
   17MOL    O53 3285   1.712   1.383   6.836 -0.4604  0.0851 -0.4820
   17MOL    C54 3286   1.694   1.244   6.639 -0.1029  0.1904 -0.6381
   17MOL    C55 3287   1.744   1.118   6.709 -0.6304  0.3557 -0.8804
   17MOL    N56 3288   1.794   1.017   6.616 -0.0931 -0.5401  0.1394
   17MOL    H57 3289   1.615   1.224   6.566 -0.7286  2.6986 -0.7068
   17MOL    H58 3290   1.773   1.298   6.588  0.2696 -0.7329 -1.0479
   17MOL    H59 3291   1.664   1.081   6.773  2.3542 -1.0716  2.1738
   17MOL    H60 3292   1.834   1.140   6.767 -1.3669  3.3091 -0.7699
   17MOL    H61 3293   1.793   1.027   6.516 -0.5671 -0.6785  0.1285
   17MOL    C62 3294   1.803   0.887   6.653  0.2851  0.0292 -0.3857
   17MOL    O63 3295   1.776   0.853   6.770 -0.0812  0.0966  0.0201
   17MOL    C64 3296   1.820   0.787   6.545 -0.5260 -0.4006  0.0088
   17MOL    C65 3297   1.952   0.776   6.483  0.6259 -0.4136 -0.6480
   17MOL    N66 3298   1.984   0.645   6.436  0.5421 -0.0033  0.1764
   17MOL    H67 3299   1.804   0.685   6.578 -2.7373 -0.4132 -0.9479
   17MOL    H68 3300   1.749   0.816   6.467  0.3068  0.3067 -0.4865
   17MOL    H69 3301   1.958   0.843   6.398  0.5521 -1.3826 -1.4238
   17MOL    H70 3302   2.038   0.798   6.545  0.1843  0.3499 -0.2953
   17MOL    H71 3303   1.920   0.572   6.463  1.0031 -1.0827 -1.5132
   17MOL    C72 3304   2.091   0.608   6.366 -0.3810 -0.1700 -0.2913
   17MOL    O73 3305   2.105   0.494   6.328  0.0988 -0.1031 -0.3129
   17MOL    C74 3306   2.196   0.712   6.333 -0.3269 -0.3430 -0.7567
   17MOL    C75 3307   2.308   0.660   6.238 -0.3900  0.2772 -1.1150
   17MOL    N76 3308   2.255   0.650   6.102  0.2556 -0.1153  0.5446
   17MOL    H77 3309   2.155   0.807   6.300 -0.9879  0.0283  1.1098
   17MOL    H78 3310   2.238   0.718   6.433  2.4338 -0.0102 -1.8904
   17MOL    H79 3311   2.389   0.731   6.226  0.9187 -1.3279 -1.9808
   17MOL    H80 3312   2.346   0.561   6.266 -2.4249 -0.7451 -1.8350
   17MOL    H81 3313   2.227   0.562   6.061 -0.8568 -0.2781  1.6192
   17MOL    C82 3314   2.273   0.744   6.009  0.6470 -0.1301 -0.3592
   17MOL    O83 3315   2.315   0.855   6.046  0.2237  0.2475  0.5701
   17MOL    C84 3316   2.233   0.710   5.871  0.5906  0.0235  0.3961
   17MOL    C85 3317   2.226   0.828   5.775  0.3626  0.0757 -0.6182
   17MOL    N86 3318   2.135   0.940   5.814 -0.4314  0.0013  0.3291
   17MOL    H87 3319   2.319   0.650   5.842  1.6622  1.5815  0.2666
   17MOL    H88 3320   2.144   0.650   5.852 -1.3848  1.8755  3.3896
   17MOL    H89 3321   2.329   0.862   5.775  0.0944  1.2308  4.2533
   17MOL    H90 3322   2.196   0.801   5.673  0.8557 -1.9533 -0.2367
   17MOL    H91 3323   2.043   0.914   5.847  0.0009 -1.1296  0.6710
   17MOL    C92 3324   2.177   1.064   5.847  0.0146 -0.1332  0.6134
   17MOL    O93 3325   2.285   1.102   5.810  0.3533 -0.4693 -0.5089
   17MOL    C94 3326   2.076   1.161   5.919  0.1240  0.5445  0.1499
   17MOL    C95 3327   1.935   1.102   5.939 -0.3206  0.7496 -0.6476
   17MOL    N96 3328   1.864   1.067   5.813  0.2388 -0.0278 -0.0128
   17MOL    H97 3329   2.124   1.177   6.015 -0.1669 -0.4442  0.4702
   17MOL    H98 3330   2.081   1.251   5.857 -0.5518  0.9923  0.7373
   17MOL    H99 3331   1.931   1.007   5.992 -1.4240  0.6435 -0.9067
   17MOL   H100 3332   1.878   1.172   5.999 -1.5562 -1.8060  1.2941
   17MOL   H101 3333   1.849   1.139   5.744 -1.8402 -1.6087 -1.3022
   17MOL   C102 3334   1.827   0.943   5.770  0.4063  0.0150  0.4453
   17MOL   O103 3335   1.848   0.838   5.822 -0.4781  0.1878 -1.1391
   17MOL   C104 3336   1.745   0.952   5.641 -0.7685  0.6883  0.7483
   17MOL   C105 3337   1.816   0.881   5.529  0.3528 -0.4476 -0.0978
   17MOL   N106 3338   1.825   0.948   5.400  0.0915 -0.5682 -0.1939
   17MOL   H107 3339   1.719   1.057   5.622 -2.3643  0.4979  1.7809
   17MOL   H108 3340   1.644   0.913   5.650 -1.1869  0.8336 -2.9289
   17MOL   H109 3341   1.913   0.844   5.561 -0.0818 -1.8332 -0.3630
   17MOL   H110 3342   1.766   0.784   5.524  0.3916 -0.4765  0.0657
   17MOL   H111 3343   1.782   0.893   5.327 -0.8085 -0.6994  0.4277
   17MOL   C112 3344   1.896   1.062   5.371 -0.1024  0.2219 -0.1252
   17MOL   O113 3345   1.935   1.131   5.468 -0.3620  0.3023  0.3558
   17MOL   C114 3346   1.937   1.092   5.226 -0.2635 -0.4653  0.2687
   17MOL   C115 3347   1.873   1.220   5.177 -0.2591  0.1358  0.4505
   17MOL   N116 3348   1.757   1.192   5.098  0.8794  0.2245  0.4909
   17MOL   H117 3349   1.900   1.014   5.159 -0.3287  0.5221 -0.8557
   17MOL   H118 3350   2.046   1.098   5.225 -0.3071  0.7115  1.3629
   17MOL   H119 3351   1.843   1.298   5.247  1.6914 -0.3551  1.8664
   17MOL   H120 3352   1.945   1.261   5.106 -0.3429  1.3099  1.0427
   17MOL   H121 3353   1.683   1.136   5.139  1.6362 -1.2036 -0.0620
   17MOL   C122 3354   1.719   1.225   4.972  0.1682  0.0089 -0.2414
   17MOL   O123 3355   1.792   1.299   4.906  0.0913 -0.3386  0.2313
   17MOL   C124 3356   1.580   1.182   4.925 -0.2012  0.5538  0.5950
   17MOL   C125 3357   1.500   1.307   4.884 -0.5108  0.4550  0.1580
   17MOL   N126 3358   1.407   1.262   4.781 -1.2183 -0.1058  0.5005
   17MOL   H127 3359   1.532   1.115   4.996 -0.5786 -0.9389 -1.0205
   17MOL   H128 3360   1.597   1.118   4.838  0.5210  0.9039  0.4660
   17MOL   H129 3361   1.457   1.342   4.978 -0.8306 -1.1866  0.6420
   17MOL   H130 3362   1.567   1.385   4.848  0.9619 -1.5753 -1.6123
   17MOL   H131 3363   1.324   1.218   4.820 -0.8656  1.2830  2.9153
   17MOL   C132 3364   1.406   1.291   4.654  0.2607 -0.4441  0.8655
   17MOL   O133 3365   1.487   1.363   4.600 -0.8825  0.5544  0.5303
   17MOL   C134 3366   1.286   1.222   4.580  0.1264 -0.8792  0.5319
   17MOL   C135 3367   1.177   1.323   4.566 -0.1145  0.0525 -0.0349
   17MOL   N136 3368   1.216   1.456   4.515 -0.2517 -0.4917 -0.1801
   17MOL   H137 3369   1.250   1.130   4.626  0.7149 -1.2484  0.2572
   17MOL   H138 3370   1.322   1.200   4.479  1.4927  0.0462  0.8034
   17MOL   H139 3371   1.099   1.282   4.501  2.8901 -0.7285 -3.2910
   17MOL   H140 3372   1.132   1.344   4.664  0.3531 -2.3935  0.7321
   17MOL   H141 3373   1.241   1.526   4.583  2.8805 -1.2256 -0.4953
   17MOL   C142 3374   1.250   1.473   4.385  0.6811  0.4007 -0.3612
   17MOL   O143 3375   1.230   1.389   4.298 -0.8307  0.0784  0.2952
   17MOL   C144 3376   1.331   1.601   4.357 -0.3341 -0.0806  0.0049
   17MOL   C145 3377   1.483   1.581   4.343 -0.3380  0.0370 -0.5101
   17MOL   N146 3378   1.524   1.506   4.226  0.0292  0.4267  0.1973
   17MOL   H147 3379   1.319   1.656   4.450  1.4246  0.0838  0.1513
   17MOL   H148 3380   1.292   1.658   4.274  1.5837 -1.3651 -1.8354
   17MOL   H149 3381   1.527   1.680   4.347 -0.0137 -0.0607 -1.4084
   17MOL   H150 3382   1.523   1.547   4.438 -0.5505  1.8976  0.2639
   17MOL   H151 3383   1.574   1.425   4.260 -0.3184 -0.1630 -0.6805
   17MOL   C152 3384   1.511   1.554   4.099 -0.0929  0.3788 -0.0823
   17MOL   O153 3385   1.452   1.656   4.074 -0.5112 -1.2893  0.0850
   17MOL   C154 3386   1.571   1.465   3.989  0.6180 -0.4974 -0.0913
   17MOL   C155 3387   1.570   1.524   3.840  0.0763 -0.6969  0.2524
   17MOL   N156 3388   1.669   1.634   3.829 -0.2027  0.4915 -1.0314
   17MOL   H157 3389   1.502   1.381   3.993  1.1511 -0.8251  5.4687
   17MOL   H158 3390   1.670   1.436   4.022  0.4527 -0.4009  0.4959
   17MOL   H159 3391   1.584   1.444   3.768  0.0563  0.2873 -0.8465
   17MOL   H160 3392   1.471   1.563   3.819  0.7800  0.8496 -0.2442
   17MOL   H161 3393   1.629   1.725   3.845  0.9458  0.9821 -0.9012
   17MOL   C162 3394   1.799   1.627   3.790  0.0294 -0.4513 -0.2402
   17MOL   O163 3395   1.852   1.522   3.764  0.1836  0.7118  0.8118
   17MOL   C164 3396   1.887   1.755   3.772 -0.5359 -0.1193 -0.3297
   17MOL   C165 3397   1.829   1.895   3.785 -0.0887  0.1326 -0.0960
   17MOL   N166 3398   1.802   1.930   3.922 -0.7313 -0.6090  0.6770
   17MOL   H167 3399   1.928   1.739   3.672  0.1630  1.6114 -0.3386
   17MOL   H168 3400   1.958   1.750   3.855 -0.6007  1.1216 -0.1969
   17MOL   H169 3401   1.890   1.977   3.747  1.1089 -1.0425 -0.7416
   17MOL   H170 3402   1.735   1.897   3.731 -0.6961 -1.4117  0.8763
   17MOL   H171 3403   1.879   1.957   3.982  0.2777 -1.1456 -0.3687
   17MOL   C172 3404   1.684   1.933   3.978  0.5852  0.3064 -0.0847
   17MOL   O173 3405   1.583   1.889   3.924 -0.5183 -0.6222 -0.2697
   17MOL   C174 3406   1.681   2.000   4.113  0.2827  0.5910 -0.1506
   17MOL   C175 3407   1.551   1.975   4.197  0.2989 -0.5002 -1.0563
   17MOL   N176 3408   1.558   2.060   4.320 -0.3244  0.7327  0.0146
   17MOL   H177 3409   1.696   2.104   4.087 -2.2719  0.3569 -2.8214
   17MOL   H178 3410   1.759   1.960   4.177  0.7187  1.3737 -0.1944
   17MOL   H179 3411   1.465   1.996   4.134 -0.1711 -1.9255 -0.9062
   17MOL   H180 3412   1.537   1.871   4.228 -1.7062  0.1576  0.2975
   17MOL   H181 3413   1.493   2.136   4.332 -1.3598  0.0151 -0.9746
   17MOL   C182 3414   1.622   2.017   4.426  1.0625  1.1689 -0.4960
   17MOL   O183 3415   1.697   1.920   4.417  0.0934  0.0248  0.2104
   17MOL   C184 3416   1.618   2.091   4.560  0.3025 -0.7291  0.6499
   17MOL   C185 3417   1.624   2.249   4.567 -1.1157  0.5514  0.1574
   17MOL   N186 3418   1.497   2.323   4.564  0.1153  0.0318 -0.0321
   17MOL   H187 3419   1.705   2.060   4.618  1.1558 -2.2674 -1.3791
   17MOL   H188 3420   1.537   2.059   4.625  0.7251  1.1697  2.1696
   17MOL   H189 3421   1.677   2.278   4.658  0.4047  2.1388 -1.1990
   17MOL   H190 3422   1.687   2.299   4.495 -1.5088  1.4827  0.4589
   17MOL   H191 3423   1.492   2.374   4.477 -0.8743 -0.0531 -0.0219
   17MOL   C192 3424   1.401   2.311   4.658  0.4759  1.1869 -0.3132
   17MOL   O193 3425   1.418   2.244   4.760  0.8462  0.2023  0.5370
   17MOL   C194 3426   1.279   2.393   4.636  0.5904  0.4921  0.4969
   17MOL   C195 3427   1.158   2.309   4.586  0.4873 -0.1953  0.2461
   17MOL   N196 3428   1.066   2.386   4.503  0.5156  0.0177 -0.3279
   17MOL   H197 3429   1.246   2.445   4.725  1.6484  1.4058  0.3615
   17MOL   H198 3430   1.295   2.473   4.564  0.8801  0.2804  0.3238
   17MOL   H199 3431   1.180   2.211   4.542  0.7180 -1.5866  3.2751
   17MOL   H200 3432   1.101   2.263   4.667  0.1610  1.2565  0.8376
   17MOL   H201 3433   1.063   2.482   4.534  0.7206  0.6512 -2.2174
   17MOL   H202 3434   0.972   2.353   4.523  0.9975  0.9047  3.7408
   18MOL     C1 3435   0.739   3.812   4.647  0.1194 -0.5452  0.3993
   18MOL     O2 3436   0.776   3.758   4.542 -0.3427  0.1925  0.4385
   18MOL     C3 3437   0.661   3.943   4.647 -0.8954  0.4421 -0.3369
   18MOL     C4 3438   0.530   3.933   4.570  0.4033 -0.8249  0.2974
   18MOL     N5 3439   0.450   3.812   4.589 -0.7443  0.0936  0.4523
   18MOL     H6 3440   0.727   4.014   4.597 -0.0186 -1.6333 -2.2172
   18MOL     H7 3441   0.638   3.963   4.751 -1.7678  1.1443 -0.6557
   18MOL     H8 3442   0.554   3.947   4.465 -0.7793  0.7078  0.2087
   18MOL     H9 3443   0.471   4.018   4.603  0.0138 -0.8178 -0.4176
   18MOL    H10 3444   0.502   3.727   4.610  1.8443  1.3127 -0.8902
   18MOL    H11 3445   0.757   3.763   4.744  0.1128  1.1634  1.2739
   18MOL    C12 3446   0.323   3.805   4.542 -0.1088 -0.8925  0.3897
   18MOL    O13 3447   0.264   3.897   4.493 -0.4454  0.2372  0.1105
   18MOL    C14 3448   0.243   3.680   4.570 -0.3722 -0.0227 -0.2780
   18MOL    C15 3449   0.224   3.594   4.447 -0.0704 -0.1535  0.2938
   18MOL    N16 3450   0.344   3.516   4.409 -0.1686  0.0673  0.1609
   18MOL    H17 3451   0.144   3.704   4.607  0.2657  2.0288  0.1722
   18MOL    H18 3452   0.281   3.614   4.649 -2.0152 -1.3952 -0.6026
   18MOL    H19 3453   0.140   3.529   4.474 -1.6673  1.9498  0.4904
   18MOL    H20 3454   0.198   3.655   4.360 -4.7937 -0.1196  1.5879
   18MOL    H21 3455   0.408   3.551   4.340  1.2940  1.5386  2.2196
   18MOL    C22 3456   0.386   3.402   4.472  0.5669  0.3094  0.3715
   18MOL    O23 3457   0.310   3.341   4.556 -0.0649  0.1834 -0.2110
   18MOL    C24 3458   0.538   3.357   4.444  0.5004  0.4434  0.0282
   18MOL    C25 3459   0.551   3.227   4.370 -0.2161 -1.0263  0.0119
   18MOL    N26 3460   0.584   3.247   4.234 -0.0279  0.1001 -0.2724
   18MOL    H27 3461   0.592   3.342   4.537  1.7097 -1.9071 -0.9844
   18MOL    H28 3462   0.594   3.434   4.392  1.7198 -0.2603  0.2736
   18MOL    H29 3463   0.625   3.163   4.417 -0.5117 -1.7457 -0.4966
   18MOL    H30 3464   0.460   3.166   4.377 -1.6026  1.2422  2.7388
   18MOL    H31 3465   0.683   3.261   4.220 -0.5041  2.7406 -1.2764
   18MOL    C32 3466   0.499   3.259   4.131 -0.6849 -0.6035  0.8001
   18MOL    O33 3467   0.376   3.249   4.133  0.2069  1.0198  0.2958
   18MOL    C34 3468   0.561   3.300   4.001 -0.6417  0.4974 -0.5224
   18MOL    C35 3469   0.476   3.267   3.874  0.3818  0.1870 -0.9193
   18MOL    N36 3470   0.557   3.208   3.770 -0.0958 -0.4072  0.0340
   18MOL    H37 3471   0.666   3.270   3.998 -1.0132 -0.8324 -0.4306
   18MOL    H38 3472   0.563   3.409   4.003  0.8865  0.4748 -0.4007
   18MOL    H39 3473   0.389   3.203   3.885  1.3239 -0.7545  1.4855
   18MOL    H40 3474   0.423   3.357   3.845 -0.4005  0.4320  1.1399
   18MOL    H41 3475   0.656   3.228   3.763 -0.0010 -1.3983 -1.7471
   18MOL    C42 3476   0.518   3.160   3.649 -0.3488 -0.5363  0.1310
   18MOL    O43 3477   0.398   3.137   3.623 -0.2170 -0.2907 -0.2143
   18MOL    C44 3478   0.626   3.122   3.553  0.4664  0.2249  0.5837
   18MOL    C45 3479   0.588   2.999   3.470  0.1648  0.1494  0.5372
   18MOL    N46 3480   0.688   2.964   3.371 -0.3751 -0.3189  0.0239
   18MOL    H47 3481   0.655   3.202   3.485  0.6672 -0.7420 -0.4995
   18MOL    H48 3482   0.720   3.097   3.602 -0.8791  1.1550  3.7830
   18MOL    H49 3483   0.569   2.918   3.539 -0.7514 -1.2394 -1.2983
   18MOL    H50 3484   0.496   3.011   3.412  1.9068  1.5047 -2.0333
   18MOL    H51 3485   0.718   3.045   3.320 -1.2192  0.5336  0.8741
   18MOL    C52 3486   0.707   2.846   3.326  0.5009 -0.1582  0.3346
   18MOL    O53 3487   0.681   2.749   3.395 -0.3851 -0.1674 -0.1734
   18MOL    C54 3488   0.776   2.826   3.197  0.4227 -0.3603 -0.1126
   18MOL    C55 3489   0.912   2.904   3.197  0.0680 -0.1039  0.0211
   18MOL    N56 3490   1.015   2.822   3.264  0.4181  0.2494  0.5563
   18MOL    H57 3491   0.786   2.724   3.160 -0.1073  1.0268 -4.2294
   18MOL    H58 3492   0.707   2.866   3.123 -0.8349  0.1584  1.3205
   18MOL    H59 3493   0.908   2.997   3.253  2.7754  0.1469 -0.1432
   18MOL    H60 3494   0.947   2.921   3.095  0.8051 -0.1948  0.2576
   18MOL    H61 3495   1.056   2.863   3.346  1.3475 -0.4088  0.4302
   18MOL    C62 3496   1.072   2.706   3.229 -0.2046  0.2714 -0.2042
   18MOL    O63 3497   1.035   2.647   3.124 -0.0873  0.1200  0.5177
   18MOL    C64 3498   1.184   2.652   3.319  0.7741 -0.5973  0.6521
   18MOL    C65 3499   1.248   2.521   3.283  0.1890 -0.8572 -0.7474
   18MOL    N66 3500   1.315   2.530   3.157  0.1912  0.4531  0.1173
   18MOL    H67 3501   1.253   2.735   3.333 -0.7666  0.5473  1.6046
   18MOL    H68 3502   1.156   2.640   3.424  0.2840 -0.2601  0.5619
   18MOL    H69 3503   1.321   2.500   3.361 -2.4785  1.6840  2.5779
   18MOL    H70 3504   1.183   2.433   3.279 -0.0279 -0.6883 -0.9472
   18MOL    H71 3505   1.257   2.532   3.075 -0.1492 -1.7810  0.2762
   18MOL    C72 3506   1.446   2.517   3.144 -0.2756  0.4164 -0.4076
   18MOL    O73 3507   1.521   2.501   3.241 -0.4498 -0.3997  0.1962
   18MOL    C74 3508   1.499   2.512   2.999  0.2092  0.6254 -0.3541
   18MOL    C75 3509   1.643   2.456   2.984  0.1066  0.3114 -0.2186
   18MOL    N76 3510   1.682   2.451   2.840 -0.6093  0.8398 -0.4981
   18MOL    H77 3511   1.434   2.449   2.938  1.0304 -1.4438  0.8812
   18MOL    H78 3512   1.490   2.614   2.959  1.9845  1.2595  0.8187
   18MOL    H79 3513   1.707   2.521   3.044 -1.1202  0.4847  0.9112
   18MOL    H80 3514   1.649   2.357   3.031  0.3164 -0.5423 -2.0074
   18MOL    H81 3515   1.667   2.532   2.782 -0.4870 -0.1499 -1.9256
   18MOL    C82 3516   1.721   2.340   2.774 -0.1924 -0.3088 -0.3901
   18MOL    O83 3517   1.760   2.236   2.830 -0.4158  0.3668  0.3576
   18MOL    C84 3518   1.728   2.354   2.627  0.2218 -0.4123 -0.3560
   18MOL    C85 3519   1.751   2.226   2.553 -0.5325 -0.1754  0.2344
   18MOL    N86 3520   1.888   2.179   2.570 -0.1136 -0.1132 -0.1528
   18MOL    H87 3521   1.637   2.399   2.586  0.6797 -0.7922 -1.8206
   18MOL    H88 3522   1.802   2.430   2.602 -1.2429  1.6939  1.3950
   18MOL    H89 3523   1.680   2.147   2.580 -2.6990  0.3446 -3.5823
   18MOL    H90 3524   1.738   2.248   2.447 -0.6582  1.5576  0.5856
   18MOL    H91 3525   1.944   2.240   2.628 -0.1284 -1.8909  1.8104
   18MOL    C92 3526   1.932   2.054   2.534  0.0089  0.0277  0.7317
   18MOL    O93 3527   1.864   1.975   2.469  0.1485 -0.1086 -0.2906
   18MOL    C94 3528   2.073   2.012   2.574  0.3305  0.1312 -0.0390
   18MOL    C95 3529   2.078   1.855   2.585 -1.0602  0.2476  0.3584
   18MOL    N96 3530   2.209   1.810   2.636 -0.0967 -0.2359  0.6045
   18MOL    H97 3531   2.149   2.037   2.501 -0.2799 -0.0051 -0.7233
   18MOL    H98 3532   2.092   2.055   2.672  1.0101 -0.2590  0.0049
   18MOL    H99 3533   1.997   1.815   2.645 -1.2666  0.8363  0.4779
   18MOL   H100 3534   2.061   1.809   2.488  4.6707  0.4529 -0.9267
   18MOL   H101 3535   2.287   1.868   2.607 -1.3964  0.9713 -0.5234
   18MOL   C102 3536   2.228   1.715   2.726  0.1960 -0.0462  0.4488
   18MOL   O103 3537   2.135   1.653   2.778  0.3031  0.1938 -1.1658
   18MOL   C104 3538   2.370   1.685   2.757 -0.2373 -0.3101 -0.2348
   18MOL   C105 3539   2.409   1.761   2.882 -0.1488  0.3436  0.6144
   18MOL   N106 3540   2.412   1.910   2.865 -0.0524  0.5395  0.0743
   18MOL   H107 3541   2.434   1.709   2.672  0.3582  1.3621  0.6648
   18MOL   H108 3542   2.389   1.581   2.785  0.5281  0.3478  1.8378
   18MOL   H109 3543   2.343   1.729   2.962 -0.1424 -2.1694 -0.3375
   18MOL   H110 3544   2.514   1.740   2.904  0.3910  1.3579 -0.8903
   18MOL   H111 3545   2.351   1.968   2.920  1.7151  1.3267  1.2752
   18MOL   C112 3546   2.510   1.971   2.801 -0.2270  0.4508 -0.6982
   18MOL   O113 3547   2.599   1.911   2.743 -0.5921  0.3512  0.4094
   18MOL   C114 3548   2.509   2.123   2.801 -0.1007 -0.3761 -0.0052
   18MOL   C115 3549   2.649   2.182   2.816  1.1859  0.6331 -0.0037
   18MOL   N116 3550   2.647   2.326   2.808  1.3564  0.5600  0.5498
   18MOL   H117 3551   2.445   2.154   2.883  1.4418 -0.3046  1.1829
   18MOL   H118 3552   2.457   2.163   2.714 -0.8667 -0.6001  0.3437
   18MOL   H119 3553   2.683   2.150   2.915 -0.0294  1.6065  0.7543
   18MOL   H120 3554   2.718   2.140   2.743  0.5225 -0.1124 -0.2093
   18MOL   H121 3555   2.597   2.367   2.731  0.3973  0.6727  1.2171
   18MOL   C122 3556   2.742   2.408   2.850 -0.5068 -0.6357  0.3927
   18MOL   O123 3557   2.839   2.375   2.924  0.8559 -0.5563  0.2347
   18MOL   C124 3558   2.725   2.552   2.804 -0.2764 -0.8753 -0.2435
   18MOL   C125 3559   2.858   2.625   2.800 -0.1472 -0.5788 -0.3702
   18MOL   N126 3560   2.854   2.767   2.762  0.5431 -0.0137  0.3399
   18MOL   H127 3561   2.674   2.599   2.889  2.4770 -0.3263  1.1708
   18MOL   H128 3562   2.666   2.568   2.714 -1.3945  0.5416  0.7108
   18MOL   H129 3563   2.918   2.608   2.890  1.0271  2.5361 -0.4920
   18MOL   H130 3564   2.913   2.563   2.729 -0.9735 -1.7031 -0.0335
   18MOL   H131 3565   2.826   2.782   2.666  0.7445  0.3446  0.3369
   18MOL   C132 3566   2.904   2.865   2.832  0.1113  0.3820 -0.0044
   18MOL   O133 3567   2.932   2.846   2.949  0.0449  0.0631  0.1458
   18MOL   C134 3568   2.924   3.000   2.756  0.2021 -0.3946 -0.0922
   18MOL   C135 3569   2.852   3.124   2.817  0.7573 -0.2765  0.4554
   18MOL   N136 3570   2.704   3.120   2.805 -0.1980 -0.1755  0.1881
   18MOL   H137 3571   2.900   3.003   2.650  1.4636 -0.7622 -0.3952
   18MOL   H138 3572   3.033   3.004   2.754  0.1667 -0.2827 -2.7766
   18MOL   H139 3573   2.882   3.128   2.922  0.0738 -1.4748  0.7098
   18MOL   H140 3574   2.894   3.207   2.762 -1.0654 -0.2715 -0.9966
   18MOL   H141 3575   2.664   3.053   2.741 -2.6298  0.4765  0.9613
   18MOL   C142 3576   2.624   3.213   2.869 -0.0156 -0.3921 -0.1436
   18MOL   O143 3577   2.657   3.277   2.968  0.0621 -0.1397 -0.4142
   18MOL   C144 3578   2.484   3.234   2.805  0.7990  0.1798  0.3633
   18MOL   C145 3579   2.432   3.380   2.784 -0.6507  0.8262 -0.4109
   18MOL   N146 3580   2.522   3.456   2.698  0.5460  0.2014  0.4544
   18MOL   H147 3581   2.420   3.169   2.864  2.7568 -0.4024  1.8641
   18MOL   H148 3582   2.484   3.184   2.708  1.1768  1.5436 -0.3631
   18MOL   H149 3583   2.330   3.393   2.749  0.0691 -0.4588 -3.0388
   18MOL   H150 3584   2.438   3.416   2.887  0.1320  0.4850 -0.3293
   18MOL   H151 3585   2.569   3.532   2.744  0.5736  1.3752 -1.4783
   18MOL   C152 3586   2.516   3.441   2.565 -0.0577  0.3859 -0.5333
   18MOL   O153 3587   2.455   3.348   2.510  0.5442  0.2712 -0.5862
   18MOL   C154 3588   2.583   3.536   2.467 -0.3359 -0.0606 -0.2623
   18MOL   C155 3589   2.733   3.518   2.441 -0.1222 -0.0409 -0.4459
   18MOL   N156 3590   2.783   3.634   2.366 -0.1933 -0.6270 -0.0094
   18MOL   H157 3591   2.568   3.632   2.517 -2.0455  0.7288 -2.1707
   18MOL   H158 3592   2.517   3.540   2.380 -2.0839  0.8694  1.0760
   18MOL   H159 3593   2.788   3.508   2.534  0.4461  1.7392 -0.5767
   18MOL   H160 3594   2.752   3.427   2.384 -0.5620 -0.7143  0.4591
   18MOL   H161 3595   2.786   3.634   2.265  0.4849 -0.3781  0.0102
   18MOL   C162 3596   2.817   3.752   2.415 -0.0288 -0.3076  0.0537
   18MOL   O163 3597   2.839   3.767   2.535  0.0552 -0.2340 -0.0332
   18MOL   C164 3598   2.848   3.868   2.319  0.8035 -0.0644 -0.4258
   18MOL   C165 3599   2.961   3.962   2.375  0.4639  0.4317  0.0932
   18MOL   N166 3600   2.979   4.089   2.305  0.5716  0.0263 -0.8508
   18MOL   H167 3601   2.754   3.923   2.316  1.2356  0.5969 -2.2254
   18MOL   H168 3602   2.870   3.827   2.221 -0.4283 -1.3168 -0.2073
   18MOL   H169 3603   2.938   3.985   2.479 -0.3640  1.9538 -0.4036
   18MOL   H170 3604   3.051   3.901   2.376  1.1098  1.3921  1.1103
   18MOL   H171 3605   2.905   4.157   2.295 -0.2956 -1.0123 -1.6040
   18MOL   C172 3606   3.097   4.126   2.262  0.3247  0.6423  0.0674
   18MOL   O173 3607   3.202   4.057   2.260 -0.1073 -0.2728  0.5693
   18MOL   C174 3608   3.099   4.264   2.200  0.3401 -0.1376 -0.1152
   18MOL   C175 3609   3.148   4.367   2.306 -0.4831  0.5590 -0.6876
   18MOL   N176 3610   3.133   4.510   2.267  0.4290 -0.4136  0.0075
   18MOL   H177 3611   2.998   4.287   2.167  0.6293 -2.2194 -2.5978
   18MOL   H178 3612   3.162   4.270   2.112 -0.2745  0.1951 -0.5327
   18MOL   H179 3613   3.101   4.350   2.403 -0.1815  1.6407 -0.3410
   18MOL   H180 3614   3.254   4.349   2.324 -0.0624  1.4745 -2.2106
   18MOL   H181 3615   3.124   4.529   2.169  2.4115 -1.0826 -0.3281
   18MOL   C182 3616   3.162   4.618   2.343  0.7334  0.7511 -0.4376
   18MOL   O183 3617   3.211   4.620   2.455  0.0800  0.3788  0.7370
   18MOL   C184 3618   3.131   4.759   2.287  0.3185  0.1731 -0.4331
   18MOL   C185 3619   3.222   4.866   2.351  0.8434  0.6749 -0.7647
   18MOL   N186 3620   3.181   4.998   2.313  0.0720 -0.3446 -0.1673
   18MOL   H187 3621   3.028   4.778   2.316  0.2839 -1.8635  0.8838
   18MOL   H188 3622   3.133   4.757   2.178  0.6031 -1.6129 -0.4114
   18MOL   H189 3623   3.227   4.849   2.458  1.1070  0.3577 -0.8271
   18MOL   H190 3624   3.325   4.859   2.317  1.3119  1.7520  0.3681
   18MOL   H191 3625   3.141   5.006   2.221 -1.6172 -0.8614  0.4984
   18MOL   C192 3626   3.177   5.105   2.391  0.2535 -0.5486 -1.0308
   18MOL   O193 3627   3.232   5.107   2.500  0.0458 -0.0894  0.5216
   18MOL   C194 3628   3.091   5.227   2.335 -0.4944  0.7471 -0.0439
   18MOL   C195 3629   3.168   5.356   2.319 -0.2533  0.2105 -0.4436
   18MOL   N196 3630   3.267   5.346   2.215 -0.4523  0.1655 -0.1218
   18MOL   H197 3631   3.039   5.194   2.245  1.3872 -0.5051 -0.6949
   18MOL   H198 3632   3.008   5.237   2.405  0.1811  1.0953  0.7226
   18MOL   H199 3633   3.098   5.432   2.284 -1.6779  0.0367  1.9203
   18MOL   H200 3634   3.217   5.384   2.412 -1.9205 -0.1375  0.5519
   18MOL   H201 3635   3.281   5.438   2.175  1.9412 -0.4765 -0.8769
   18MOL   H202 3636   3.246   5.281   2.140 -1.2042  0.4101 -0.1231
   19MOL     C1 3637   1.803   5.966   1.236  0.2131  0.5581 -0.1583
   19MOL     O2 3638   1.893   6.044   1.235 -0.6713  0.2357  0.6028
   19MOL     C3 3639   1.829   5.819   1.214  0.6813 -1.1716  0.1891
   19MOL     C4 3640   1.708   5.741   1.160 -0.0697  0.2838 -0.2113
   19MOL     N5 3641   1.594   5.754   1.255  0.2035 -0.2400  0.4662
   19MOL     H6 3642   1.855   5.770   1.308 -2.5587 -2.3137  0.5335
   19MOL     H7 3643   1.918   5.804   1.152  0.2440 -1.0472 -0.4711
   19MOL     H8 3644   1.737   5.643   1.121 -0.7589 -0.6835  1.6455
   19MOL     H9 3645   1.688   5.798   1.069 -0.3560  0.2708 -0.1563
   19MOL    H10 3646   1.519   5.821   1.243  0.2508 -0.2431  0.1504
   19MOL    H11 3647   1.696   5.989   1.244 -0.6718 -2.1768 -3.2013
   19MOL    C12 3648   1.575   5.645   1.334  0.2717  0.6852  0.7771
   19MOL    O13 3649   1.660   5.559   1.347  0.1963  0.3533 -0.4354
   19MOL    C14 3650   1.443   5.633   1.404  0.2362  0.2574 -0.4391
   19MOL    C15 3651   1.440   5.539   1.532 -0.2361  0.1989  0.8481
   19MOL    N16 3652   1.326   5.448   1.532 -0.4235 -0.3058 -0.1610
   19MOL    H17 3653   1.381   5.593   1.323  0.2101  1.0526 -0.8108
   19MOL    H18 3654   1.401   5.727   1.440 -1.3197 -0.4447 -0.3727
   19MOL    H19 3655   1.532   5.483   1.538 -0.3067  0.0560  0.6291
   19MOL    H20 3656   1.447   5.595   1.625 -3.4749  0.4250  1.0310
   19MOL    H21 3657   1.344   5.349   1.522 -2.5558 -0.6670 -0.7001
   19MOL    C22 3658   1.197   5.488   1.552 -0.3004  0.1523  0.5264
   19MOL    O23 3659   1.173   5.606   1.565 -0.8555 -0.1253  0.2812
   19MOL    C24 3660   1.078   5.392   1.535  0.9512 -0.2323 -0.2761
   19MOL    C25 3661   0.967   5.452   1.449  0.4458 -0.6988 -0.0144
   19MOL    N26 3662   0.873   5.348   1.401  0.9588 -0.1815 -0.3640
   19MOL    H27 3663   1.033   5.361   1.629  0.5887 -0.9828 -0.6922
   19MOL    H28 3664   1.116   5.303   1.483  0.5744 -0.3252 -0.3907
   19MOL    H29 3665   0.917   5.533   1.502  1.6088  0.4597 -0.6563
   19MOL    H30 3666   1.012   5.505   1.364  0.9496  2.9596  2.4196
   19MOL    H31 3667   0.891   5.250   1.417 -1.4968 -0.7575 -1.0504
   19MOL    C32 3668   0.742   5.372   1.373 -0.0192  0.2743 -0.1693
   19MOL    O33 3669   0.700   5.489   1.363  0.4014 -0.2324  0.2038
   19MOL    C34 3670   0.654   5.256   1.326  0.2931  0.0127  0.0595
   19MOL    C35 3671   0.568   5.286   1.202  0.4783  0.4267  0.9087
   19MOL    N36 3672   0.643   5.346   1.081  0.6397 -1.0183  0.4448
   19MOL    H37 3673   0.583   5.230   1.404 -1.0797 -0.4853 -1.3121
   19MOL    H38 3674   0.709   5.162   1.323  0.7055  0.2814 -3.4605
   19MOL    H39 3675   0.523   5.190   1.175 -1.9277  2.1131 -1.2849
   19MOL    H40 3676   0.486   5.348   1.239 -0.0611 -0.7980  1.8220
   19MOL    H41 3677   0.740   5.319   1.072  1.2192  1.0485  0.2179
   19MOL    C42 3678   0.607   5.442   0.990 -0.2632 -0.3032 -0.5830
   19MOL    O43 3679   0.485   5.471   0.979 -0.0571  0.2463  0.0213
   19MOL    C44 3680   0.716   5.504   0.905 -0.0687  0.0857  0.2631
   19MOL    C45 3681   0.702   5.458   0.758  0.6996  0.5275 -0.3242
   19MOL    N46 3682   0.770   5.549   0.664 -0.3659  0.7076  0.1432
   19MOL    H47 3683   0.708   5.613   0.908 -1.6284  0.0932 -2.4674
   19MOL    H48 3684   0.813   5.474   0.944 -0.4201  0.0092  1.0921
   19MOL    H49 3685   0.745   5.358   0.752 -0.9550 -0.3007  1.3903
   19MOL    H50 3686   0.597   5.451   0.730  0.4272  0.2011  0.7966
   19MOL    H51 3687   0.763   5.644   0.697 -1.1144  1.0779 -1.0425
   19MOL    C52 3688   0.778   5.516   0.535 -0.1163  0.0794 -0.0362
   19MOL    O53 3689   0.752   5.402   0.500 -0.2762  0.3266  0.0300
   19MOL    C54 3690   0.817   5.620   0.446 -0.5390  1.1273 -0.0889
   19MOL    C55 3691   0.967   5.625   0.408  0.3416  0.5853  0.3483
   19MOL    N56 3692   1.050   5.657   0.528  0.2200 -0.7241  0.3360
   19MOL    H57 3693   0.752   5.606   0.359  1.6515 -0.0959 -1.5813
   19MOL    H58 3694   0.783   5.715   0.488 -0.3776 -0.1914  3.1801
   19MOL    H59 3695   0.981   5.683   0.317 -0.6756 -2.1879 -1.6058
   19MOL    H60 3696   0.998   5.522   0.395 -2.2070 -0.1120 -0.4617
   19MOL    H61 3697   1.090   5.581   0.582 -1.2324 -0.6484  1.5659
   19MOL    C62 3698   1.062   5.786   0.567  0.7226 -0.0361 -0.7317
   19MOL    O63 3699   1.004   5.871   0.515  0.4781 -0.6767 -0.3569
   19MOL    C64 3700   1.143   5.820   0.694 -0.3930  0.6627 -0.6927
   19MOL    C65 3701   1.076   5.764   0.826 -0.1085 -0.2022  0.1357
   19MOL    N66 3702   1.002   5.875   0.885 -0.2630 -0.1152 -0.6300
   19MOL    H67 3703   1.248   5.789   0.694 -0.8349 -0.8958  1.3319
   19MOL    H68 3704   1.142   5.929   0.694  0.9784  0.6831 -0.2612
   19MOL    H69 3705   1.016   5.675   0.808 -1.7551  1.4371 -2.7769
   19MOL    H70 3706   1.153   5.715   0.887  2.7477  1.7022 -1.7821
   19MOL    H71 3707   1.041   5.967   0.873  2.3080 -0.3201  4.5058
   19MOL    C72 3708   0.904   5.865   0.977  0.4299  0.0780  0.5521
   19MOL    O73 3709   0.876   5.751   1.030 -0.0695 -0.5988  0.0174
   19MOL    C74 3710   0.837   5.992   1.028 -0.4694 -0.3909  0.5190
   19MOL    C75 3711   0.687   5.998   1.014  0.3590  0.2690 -0.1264
   19MOL    N76 3712   0.638   6.041   0.882 -0.3007  0.0734  0.0310
   19MOL    H77 3713   0.874   6.014   1.128 -1.4158  0.6831  0.6341
   19MOL    H78 3714   0.879   6.077   0.975  2.7289 -0.5955  2.5678
   19MOL    H79 3715   0.659   5.897   1.045  3.1256 -0.0613  1.4902
   19MOL    H80 3716   0.645   6.051   1.099 -0.7058  2.3337 -1.8857
   19MOL    H81 3717   0.588   6.129   0.890 -0.9777 -0.4621  2.2304
   19MOL    C82 3718   0.642   5.965   0.766  0.4406 -0.7727 -0.4577
   19MOL    O83 3719   0.694   5.858   0.758 -0.1870  0.0002  0.1781
   19MOL    C84 3720   0.575   6.033   0.647 -0.0850 -0.2033 -0.2372
   19MOL    C85 3721   0.564   5.950   0.518  0.3175 -0.5543 -0.4984
   19MOL    N86 3722   0.689   5.952   0.437  0.5648 -0.2637  0.7892
   19MOL    H87 3723   0.477   6.061   0.686 -0.4960  1.8711 -2.6579
   19MOL    H88 3724   0.631   6.126   0.636 -0.5391  0.0214 -0.6847
   19MOL    H89 3725   0.522   5.852   0.537  1.6066 -0.6846  1.8889
   19MOL    H90 3726   0.485   6.005   0.467  1.6802  0.1765 -1.8563
   19MOL    H91 3727   0.769   5.985   0.490  1.7453  0.0291 -1.1360
   19MOL    C92 3728   0.713   5.919   0.308 -0.3556  0.6218  0.2790
   19MOL    O93 3729   0.621   5.869   0.245  0.2954 -0.0859 -1.0499
   19MOL    C94 3730   0.845   5.962   0.243  0.2595 -0.1611 -0.9459
   19MOL    C95 3731   0.832   5.991   0.093  0.8525  0.6712 -0.4058
   19MOL    N96 3732   0.963   6.040   0.043 -0.2113 -0.1227  0.0818
   19MOL    H97 3733   0.884   6.042   0.305  0.9352 -0.6411 -0.7463
   19MOL    H98 3734   0.894   5.866   0.260  0.2191 -0.0161  0.0124
   19MOL    H99 3735   0.827   5.900   0.033 -0.9581  0.7541 -0.4139
   19MOL   H100 3736   0.745   6.052   0.067 -0.2084 -1.5578 -2.2094
   19MOL   H101 3737   1.043   5.978   0.045  0.5157  0.8434  2.5521
   19MOL   C102 3738   0.998   6.164   0.018 -0.3657  0.2854  0.9499
   19MOL   O103 3739   0.906   6.250   0.007 -0.3575  0.5611 -0.6663
   19MOL   C104 3740   1.138   6.194   7.733 -0.3944  0.3167  0.1224
   19MOL   C105 3741   1.241   6.244   0.056 -0.0702 -0.2474  0.3061
   19MOL   N106 3742   1.334   6.349   0.012 -0.1018 -0.5211 -0.0454
   19MOL   H107 3743   1.131   6.268   7.653  1.1406  1.9323  1.4460
   19MOL   H108 3744   1.158   6.091   7.701  1.2822  0.9188 -0.8540
   19MOL   H109 3745   1.189   6.291   0.140 -1.4266  0.6075 -0.9690
   19MOL   H110 3746   1.300   6.162   0.096 -1.8926 -1.3733  0.7427
   19MOL   H111 3747   1.301   6.401   7.712 -0.1347 -1.3730 -0.6002
   19MOL   C112 3748   1.434   6.392   0.083 -0.1018  0.1053 -0.0125
   19MOL   O113 3749   1.458   6.334   0.190  0.2662 -0.3485 -0.4920
   19MOL   C114 3750   1.498   6.530   0.051 -0.4770  0.6585  0.5321
   19MOL   C115 3751   1.651   6.529   0.024  0.5258 -0.4600  0.5581
   19MOL   N116 3752   1.695   6.657   7.748  0.1998 -0.1805  0.4431
   19MOL   H117 3753   1.469   6.608   0.122  1.0688  1.5817  0.1686
   19MOL   H118 3754   1.449   6.553   7.737 -2.1627 -3.1904  0.3516
   19MOL   H119 3755   1.715   6.490   0.103 -1.0221 -2.5336  0.8208
   19MOL   H120 3756   1.664   6.460   7.721 -1.7092  1.1768 -1.2202
   19MOL   H121 3757   1.769   6.707   0.016 -0.7543  0.1400  1.5833
   19MOL   C122 3758   1.667   6.711   7.634  0.0575 -0.2097  0.1017
   19MOL   O123 3759   1.595   6.656   7.551 -0.3677  0.3476  0.1715
   19MOL   C124 3760   1.715   6.857   7.604  0.5684 -0.7271 -0.1177
   19MOL   C125 3761   1.862   6.875   7.568 -0.2085 -0.2885 -0.2110
   19MOL   N126 3762   1.950   6.930   7.672  0.3512 -0.0917  0.2237
   19MOL   H127 3763   1.687   6.911   7.695  0.5811 -0.0807 -0.4959
   19MOL   H128 3764   1.660   6.886   7.515 -0.4216  0.0041  0.7269
   19MOL   H129 3765   1.909   6.779   7.543 -1.8827 -1.7177  1.9667
   19MOL   H130 3766   1.874   6.935   7.478  0.2879 -0.5964 -0.3584
   19MOL   H131 3767   1.939   7.030   7.669 -2.1056 -0.2876  1.7660
   19MOL   C132 3768   2.018   6.870   7.776  0.0369 -0.0541  0.2176
   19MOL   O133 3769   2.010   6.748   0.014  0.2131 -0.6328  0.6750
   19MOL   C134 3770   2.088   6.959   0.103  0.7021  0.0278 -0.1230
   19MOL   C135 3771   2.223   6.912   0.142  0.5027 -0.1337 -0.2712
   19MOL   N136 3772   2.286   7.008   0.244  0.1041  0.1480  0.3899
   19MOL   H137 3773   2.027   6.981   0.190  2.5657  1.0656  0.9586
   19MOL   H138 3774   2.095   7.061   0.065  1.4534 -0.3684 -1.0728
   19MOL   H139 3775   2.204   6.821   0.199 -1.9165 -0.7327 -1.9392
   19MOL   H140 3776   2.290   6.899   0.057  1.3244  0.2541  0.3048
   19MOL   H141 3777   2.258   6.997   0.340  0.5154 -2.1945  0.2708
   19MOL   C142 3778   2.374   7.106   0.210 -0.0313 -0.5140 -1.0915
   19MOL   O143 3779   2.411   7.118   0.096 -0.0467 -0.5262 -1.3030
   19MOL   C144 3780   2.438   7.189   0.331 -0.2815  0.0965  0.4371
   19MOL   C145 3781   2.596   7.167   0.345  0.2215  0.4031 -0.2305
   19MOL   N146 3782   2.637   7.229   0.468  0.5849  0.2155  0.5118
   19MOL   H147 3783   2.389   7.149   0.420 -0.2187  0.2866  0.5577
   19MOL   H148 3784   2.390   7.286   0.318 -1.3110 -0.3044  1.1811
   19MOL   H149 3785   2.620   7.061   0.343  2.1891  0.8235  0.2208
   19MOL   H150 3786   2.645   7.210   0.257  1.8752 -0.4851  0.2303
   19MOL   H151 3787   2.665   7.326   0.465 -0.7572  0.5639 -1.0818
   19MOL   C152 3788   2.644   7.171   0.589 -0.3937  0.0065  0.8609
   19MOL   O153 3789   2.627   7.053   0.593  0.5398 -0.3644  0.2147
   19MOL   C154 3790   2.685   7.265   0.697  0.0490 -0.3035 -0.1815
   19MOL   C155 3791   2.699   7.209   0.844 -0.3669  0.0229 -0.1348
   19MOL   N156 3792   2.769   7.313   0.921 -0.0627  0.2646 -0.1457
   19MOL   H157 3793   2.624   7.356   0.698  0.3974 -0.0857  1.5035
   19MOL   H158 3794   2.783   7.298   0.661  0.6336 -0.2774  1.4130
   19MOL   H159 3795   2.607   7.172   0.890  0.3502 -0.3007  1.0677
   19MOL   H160 3796   2.764   7.121   0.845 -1.2117 -0.6129  1.1140
   19MOL   H161 3797   2.714   7.375   0.979 -1.7003 -1.4799  0.2253
   19MOL   C162 3798   2.901   7.335   0.931 -0.6538  0.5406  0.0114
   19MOL   O163 3799   2.976   7.260   0.869  0.0146 -0.1714 -0.2815
   19MOL   C164 3800   2.950   7.443   1.027 -0.3630 -0.0396  0.0071
   19MOL   C165 3801   3.105   7.435   1.058 -0.5991 -0.3066  0.5702
   19MOL   N166 3802   3.190   7.481   0.943  0.0537 -0.4222  0.0187
   19MOL   H167 3803   2.896   7.421   1.119 -1.3973  0.7383 -0.3951
   19MOL   H168 3804   2.930   7.547   1.001 -1.6565  0.3626  2.4690
   19MOL   H169 3805   3.115   7.503   1.142 -1.2017  0.0896  0.3213
   19MOL   H170 3806   3.145   7.341   1.096  1.9446 -0.2592 -1.8009
   19MOL   H171 3807   3.164   7.560   0.886 -1.7891 -0.3355  0.9628
   19MOL   C172 3808   3.319   7.452   0.929  0.8510  0.3160  0.4686
   19MOL   O173 3809   3.380   7.372   0.998  0.1409  0.7878 -0.0230
   19MOL   C174 3810   3.384   7.511   0.809  0.2233 -0.0474  0.0610
   19MOL   C175 3811   3.485   7.421   0.734 -0.5840 -0.4865 -0.5393
   19MOL   N176 3812   3.429   7.302   0.675  0.2380 -0.3558  0.0700
   19MOL   H177 3813   3.432   7.600   0.850 -1.6266  0.6990  0.6877
   19MOL   H178 3814   3.313   7.547   0.735  1.5547  1.6515 -0.4095
   19MOL   H179 3815   3.529   7.473   0.648 -0.8773  0.6253 -0.0290
   19MOL   H180 3816   3.570   7.393   0.796  0.0311  0.7715 -0.7923
   19MOL   H181 3817   3.446   7.213   0.719 -1.3714 -0.3848  0.6501
   19MOL   C182 3818   3.366   7.296   0.551 -0.8567  0.0625  0.2595
   19MOL   O183 3819   3.354   7.401   0.484  0.3359  0.7199  0.5586
   19MOL   C184 3820   3.349   7.164   0.480  0.4195 -0.4294 -0.6947
   19MOL   C185 3821   3.201   7.129   0.453 -0.0530  0.1070 -0.3815
   19MOL   N186 3822   3.126   7.094   0.570 -0.4650 -0.2146 -0.5106
   19MOL   H187 3823   3.390   7.088   0.547  0.8003  0.1817 -0.2344
   19MOL   H188 3824   3.397   7.144   0.384  0.7707 -2.6974 -0.0920
   19MOL   H189 3825   3.161   7.209   0.392  2.2976  0.7149 -1.1584
   19MOL   H190 3826   3.192   7.040   0.390 -2.6815  0.9624 -1.3013
   19MOL   H191 3827   3.066   7.166   0.608 -0.2267 -0.1601 -0.2426
   19MOL   C192 3828   3.127   6.972   0.632 -0.4695 -0.1107 -0.1517
   19MOL   O193 3829   3.197   6.870   0.604  0.1836  0.1024  0.8101
   19MOL   C194 3830   3.038   6.950   0.755 -0.4857 -0.0640 -0.1464
   19MOL   C195 3831   3.124   6.929   0.885 -0.1659 -0.0131  0.1354
   19MOL   N196 3832   3.197   7.045   0.933 -0.4098  0.7775 -1.1644
   19MOL   H197 3833   2.976   7.039   0.760  0.6803  0.7023  1.2733
   19MOL   H198 3834   2.979   6.858   0.747  0.9067 -0.8354 -2.1152
   19MOL   H199 3835   3.057   6.893   0.962 -0.0903 -0.7297 -0.1349
   19MOL   H200 3836   3.191   6.849   0.855 -0.1182  0.4393 -1.0081
   19MOL   H201 3837   3.276   7.062   0.872 -0.7617 -0.7532 -2.0719
   19MOL   H202 3838   3.143   7.129   0.923 -0.9753  0.4031 -1.2697
   20MOL     C1 3839   0.838   7.095   2.031 -0.0716 -0.0198  0.5682
   20MOL     O2 3840   0.752   7.158   2.094  0.0063  0.1435 -0.2318
   20MOL     C3 3841   0.826   7.064   1.886  0.1281  0.4422 -0.1824
   20MOL     C4 3842   0.807   7.188   1.800  0.2402 -0.3103 -0.3112
   20MOL     N5 3843   0.665   7.211   1.781 -0.2113  0.1202  0.7632
   20MOL     H6 3844   0.743   6.995   1.873  0.1371 -0.3647  3.3518
   20MOL     H7 3845   0.915   7.016   1.846 -0.7625 -3.1463  1.8737
   20MOL     H8 3846   0.845   7.179   1.698  1.0989  2.6191 -0.2995
   20MOL     H9 3847   0.860   7.266   1.854 -0.8240 -0.1787  0.5630
   20MOL    H10 3848   0.604   7.134   1.806 -1.5240  0.4835 -1.2187
   20MOL    H11 3849   0.936   7.081   2.075 -0.1357  1.8045  1.3556
   20MOL    C12 3850   0.613   7.327   1.730  0.0122  0.2581 -0.2341
   20MOL    O13 3851   0.677   7.431   1.733 -0.3043  0.3086  0.5796
   20MOL    C14 3852   0.459   7.340   1.734 -0.6453  0.0412 -0.0940
   20MOL    C15 3853   0.368   7.216   1.702 -0.7076  0.0111 -0.3257
   20MOL    N16 3854   0.387   7.163   1.565  0.1939 -0.0108  0.3989
   20MOL    H17 3855   0.429   7.415   1.660  1.1919  0.7183 -0.1798
   20MOL    H18 3856   0.434   7.401   1.820 -2.3735  0.2667 -0.7422
   20MOL    H19 3857   0.386   7.131   1.768 -2.0028 -0.4814 -0.5931
   20MOL    H20 3858   0.263   7.236   1.725 -0.6160  2.2503 -1.7311
   20MOL    H21 3859   0.446   7.083   1.549  0.8980  0.4643  0.5990
   20MOL    C22 3860   0.299   7.200   1.467  0.5312 -0.5548  1.1258
   20MOL    O23 3861   0.215   7.288   1.480  0.8205 -0.2934  0.2697
   20MOL    C24 3862   0.310   7.115   1.337 -0.5436  0.4465 -0.3350
   20MOL    C25 3863   0.314   7.198   1.207 -0.2551 -0.3444  0.3861
   20MOL    N26 3864   0.182   7.217   1.150  0.1848  0.4244 -0.6044
   20MOL    H27 3865   0.237   7.035   1.332 -0.9984  0.7335  1.5142
   20MOL    H28 3866   0.408   7.066   1.340 -0.7195  0.1335  0.5216
   20MOL    H29 3867   0.359   7.297   1.211  0.7384 -0.8154  0.9411
   20MOL    H30 3868   0.369   7.146   1.129  2.0645  0.8481  1.2011
   20MOL    H31 3869   0.111   7.151   1.179 -1.0976  3.0840  2.6487
   20MOL    C32 3870   0.143   7.312   1.064 -0.5212  0.8117 -0.8154
   20MOL    O33 3871   0.218   7.405   1.036 -0.0689  0.3046 -0.2813
   20MOL    C34 3872   0.011   7.299   0.989  0.2427 -0.6706 -0.0872
   20MOL    C35 3873   0.019   7.194   0.872  0.1789 -0.0783  0.2710
   20MOL    N36 3874   0.124   7.221   0.772  0.3225 -0.5782  0.0790
   20MOL    H37 3875   7.775   7.401   0.953 -0.1206 -1.2382 -1.5735
   20MOL    H38 3876   7.709   7.277   1.057  1.8087 -2.0935  1.3555
   20MOL    H39 3877   0.039   7.096   0.915  1.7515 -0.8303 -2.0994
   20MOL    H40 3878   7.707   7.170   0.820  1.7666 -2.2764 -1.5852
   20MOL    H41 3879   0.193   7.287   0.803 -0.6183 -0.6221  2.3622
   20MOL    C42 3880   0.142   7.160   0.655  0.7973 -0.6692  1.2486
   20MOL    O43 3881   0.075   7.063   0.620  0.1077 -0.2890  0.2553
   20MOL    C44 3882   0.258   7.208   0.571  0.6391  0.0360  0.0228
   20MOL    C45 3883   0.257   7.149   0.423 -0.4204  0.0946 -0.3642
   20MOL    N46 3884   0.277   7.249   0.322  0.1932 -0.1281 -0.8756
   20MOL    H47 3885   0.243   7.316   0.581  0.5825 -0.0178  0.5853
   20MOL    H48 3886   0.351   7.179   0.619  0.6748  1.2813  0.7410
   20MOL    H49 3887   0.330   7.069   0.411 -1.1707 -0.6095 -0.1782
   20MOL    H50 3888   0.171   7.088   0.398  0.8216 -0.6767 -2.9974
   20MOL    H51 3889   0.369   7.284   0.298  0.0728  0.3552 -0.6354
   20MOL    C52 3890   0.174   7.306   0.260 -0.8063 -0.2658 -0.1349
   20MOL    O53 3891   0.060   7.263   0.277  0.1344 -0.0783 -0.0208
   20MOL    C54 3892   0.194   7.429   0.171  0.8877  0.3885  0.2588
   20MOL    C55 3893   0.060   7.507   0.165 -0.0802 -0.3368  0.5574
   20MOL    N56 3894   0.056   7.608   0.056 -0.3210  0.7365 -0.0490
   20MOL    H57 3895   0.276   7.492   0.207  1.2741  0.4618 -0.7286
   20MOL    H58 3896   0.234   7.393   0.076 -0.2270 -1.7678  0.5919
   20MOL    H59 3897   0.040   7.554   0.262 -0.1208 -0.2289  0.4968
   20MOL    H60 3898   7.755   7.440   0.159 -1.5138  1.4311  0.6044
   20MOL    H61 3899   0.051   7.706   0.079  1.2235  1.2522 -1.8600
   20MOL    C62 3900   0.047   7.581   7.705 -0.2815  0.5087  0.7766
   20MOL    O63 3901   0.018   7.469   7.666 -0.9395 -0.2324 -0.2446
   20MOL    C64 3902   0.068   7.690   7.601 -0.8784 -0.3750 -0.1432
   20MOL    C65 3903   7.721   7.763   7.549 -0.1571  0.9801 -0.6840
   20MOL    N66 3904   7.623   7.675   7.490  0.4126  0.2904  0.0301
   20MOL    H67 3905   0.114   7.775   7.652  2.4621 -1.0823 -1.8560
   20MOL    H68 3906   0.138   7.661   7.523  0.8868  1.3969  0.7463
   20MOL    H69 3907   7.671   0.027   7.635 -0.9045 -0.8140 -0.1558
   20MOL    H70 3908   7.752   0.058   7.477  2.3226 -1.5701 -2.3892
   20MOL    H71 3909   7.536   7.660   7.538  0.9625 -1.7259  0.4204
   20MOL    C72 3910   7.639   7.589   7.390  0.3109  0.6092 -0.0122
   20MOL    O73 3911   7.750   7.584   7.329 -0.5196 -0.1686  0.1983
   20MOL    C74 3912   7.524   7.498   7.349  0.4265  0.3897  0.3591
   20MOL    C75 3913   7.540   7.351   7.405  0.3147  0.7139 -0.0282
   20MOL    N76 3914   7.588   7.335   7.542 -0.1662  0.3101 -0.3387
   20MOL    H77 3915   7.439   7.549   7.394 -0.0181 -0.1936  0.1880
   20MOL    H78 3916   7.511   7.502   7.241  1.6974  3.2906  0.2661
   20MOL    H79 3917   7.453   7.286   7.394  0.0611  0.7342  1.6352
   20MOL    H80 3918   7.620   7.306   7.347  1.1139  1.5624  0.3914
   20MOL    H81 3919   7.663   7.400   7.561  0.0287  0.0291 -0.1324
   20MOL    C82 3920   7.555   7.237   7.627 -0.2477  0.0501  0.5558
   20MOL    O83 3921   7.465   7.157   7.606  0.2352 -0.5242  0.6752
   20MOL    C84 3922   7.641   7.217   7.757  0.3051 -0.0485  0.0486
   20MOL    C85 3923   7.642   7.079   0.028  0.5682 -0.1965  0.5258
   20MOL    N86 3924   7.676   7.067   0.164 -0.9482  0.0348 -0.7819
   20MOL    H87 3925   7.740   7.259   7.739 -1.2774  2.4356 -3.5871
   20MOL    H88 3926   7.596   7.280   0.053 -0.7428 -0.6641 -0.0470
   20MOL    H89 3927   7.538   7.044   0.027  0.1088  1.1262  1.2590
   20MOL    H90 3928   7.707   7.027   7.738  0.6473  0.3056  0.2270
   20MOL    H91 3929   7.714   7.145   0.215  1.1298 -1.5823  0.2689
   20MOL    C92 3930   7.676   6.950   0.220  0.7277  0.4177  0.5340
   20MOL    O93 3931   7.639   6.847   0.159 -0.2843 -0.2921 -0.0777
   20MOL    C94 3932   7.700   6.940   0.374  0.1803 -0.2896 -0.9676
   20MOL    C95 3933   7.578   6.902   0.457  0.2006  0.0952  0.3721
   20MOL    N96 3934   7.592   6.925   0.601 -0.4079  0.4732  0.5386
   20MOL    H97 3935   0.010   6.882   0.394  0.9575  0.5645 -1.9621
   20MOL    H98 3936   7.719   7.040   0.414  0.2927 -2.3801  4.5748
   20MOL    H99 3937   7.483   6.945   0.427  0.7196  1.3761  0.5378
   20MOL   H100 3938   7.548   6.801   0.432  0.7196 -0.0488  0.3236
   20MOL   H101 3939   7.676   6.967   0.638 -0.5774  1.9941 -0.7671
   20MOL   C102 3940   7.503   6.877   0.688 -0.4629 -0.0817 -0.1242
   20MOL   O103 3941   7.399   6.817   0.655  0.5146 -0.1374  0.4040
   20MOL   C104 3942   7.547   6.892   0.834  0.9642 -0.3416 -0.0909
   20MOL   C105 3943   7.429   6.870   0.935 -0.3571  0.1625 -0.2623
   20MOL   N106 3944   7.339   6.983   0.942  0.2878 -0.1095  0.1894
   20MOL   H107 3945   7.595   6.988   0.852  1.6078 -0.6824  0.0346
   20MOL   H108 3946   7.620   6.813   0.851 -1.3045 -2.4537  0.1227
   20MOL   H109 3947   7.375   6.775   0.924 -0.2720 -0.3397  3.0170
   20MOL   H110 3948   7.469   6.859   1.036 -0.4088  0.4098 -0.2169
   20MOL   H111 3949   7.260   6.971   0.880 -0.4629 -1.2541  1.3688
   20MOL   C112 3950   7.370   7.101   1.003  0.3692 -0.2720  0.5833
   20MOL   O113 3951   7.467   7.113   1.081 -0.4877  0.1537 -0.0262
   20MOL   C114 3952   7.301   7.226   0.951  0.1474  0.1532  0.6468
   20MOL   C115 3953   7.357   7.362   1.001 -0.5454  0.3611 -0.0728
   20MOL   N116 3954   7.303   7.406   1.132 -0.2350 -0.8468  0.4915
   20MOL   H117 3955   7.196   7.226   0.981  0.3652 -0.4617  1.4238
   20MOL   H118 3956   7.333   7.219   0.847 -0.6457 -0.3761  0.4313
   20MOL   H119 3957   7.465   7.352   0.996 -0.4086  2.6199 -3.5599
   20MOL   H120 3958   7.325   7.437   0.928 -0.3389  1.7538  1.2409
   20MOL   H121 3959   7.376   7.409   1.201 -0.7259 -4.1145  1.2205
   20MOL   C122 3960   7.175   7.432   1.152  0.0148 -1.1056 -0.1325
   20MOL   O123 3961   7.095   7.439   1.062 -0.1913 -0.0753  0.1442
   20MOL   C124 3962   7.136   7.456   1.301  0.2441  0.2584 -0.3109
   20MOL   C125 3963   7.025   7.564   1.309 -0.3108  0.0046  0.1809
   20MOL   N126 3964   6.892   7.500   1.283 -0.0322 -0.1808 -0.4771
   20MOL   H127 3965   7.213   7.490   1.371 -0.8770  3.5047 -0.5456
   20MOL   H128 3966   7.108   7.357   1.336  0.3890  0.2245 -0.2877
   20MOL   H129 3967   7.015   7.621   1.401  0.5054  0.1975  0.1569
   20MOL   H130 3968   7.031   7.641   1.232  0.7607 -0.1276  0.1224
   20MOL   H131 3969   6.869   7.481   1.186  0.3585  3.1891 -1.3017
   20MOL   C132 3970   6.785   7.500   1.363  0.0174 -0.4308  0.4541
   20MOL   O133 3971   6.788   7.539   1.478 -0.0697 -0.5981  0.0162
   20MOL   C134 3972   6.658   7.438   1.299  1.0478 -0.4859 -0.7377
   20MOL   C135 3973   6.548   7.393   1.395  0.6073  1.2335 -0.3559
   20MOL   N136 3974   6.542   7.252   1.419  0.0172 -0.2521 -0.4680
   20MOL   H137 3975   6.689   7.357   1.232  1.1960 -1.7677  0.8392
   20MOL   H138 3976   6.615   7.525   1.249 -0.8666 -0.0629  1.5310
   20MOL   H139 3977   6.563   7.456   1.483  0.4187 -0.0649  0.6314
   20MOL   H140 3978   6.446   7.415   1.364  0.2415  1.7610  1.1476
   20MOL   H141 3979   6.618   7.199   1.380 -0.6361 -0.1736 -1.8744
   20MOL   C142 3980   6.464   7.189   1.510 -0.1344 -1.0672 -0.3997
   20MOL   O143 3981   6.480   7.069   1.551 -0.2832 -0.7321 -0.5600
   20MOL   C144 3982   6.353   7.261   1.585 -0.4273  1.0739  0.2497
   20MOL   C145 3983   6.329   7.213   1.732  0.8354 -0.2430 -0.1661
   20MOL   N146 3984   6.241   7.294   1.812 -0.5905  0.2479  0.3340
   20MOL   H147 3985   6.258   7.245   1.534 -0.1462  0.9402 -0.2365
   20MOL   H148 3986   6.373   7.367   1.574 -2.0462  1.1750 -2.3324
   20MOL   H149 3987   6.270   7.122   1.722 -0.7939  0.4047  2.9238
   20MOL   H150 3988   6.427   7.194   1.777  1.4169  0.9152 -0.9345
   20MOL   H151 3989   6.283   7.343   1.890  0.7617  1.1900 -0.9596
   20MOL   C152 3990   6.114   7.323   1.779 -0.4512  0.0948  0.1647
   20MOL   O153 3991   6.061   7.279   1.673  0.3384  0.4758 -0.0238
   20MOL   C154 3992   6.042   7.425   1.866 -1.0837  0.0896 -0.5109
   20MOL   C155 3993   5.891   7.429   1.832  0.7477 -0.4843 -0.5313
   20MOL   N156 3994   5.833   7.556   1.882  0.4744  0.2044 -0.1770
   20MOL   H157 3995   6.088   7.522   1.845  1.7821 -1.4831 -1.7440
   20MOL   H158 3996   6.062   7.401   1.970  2.5643 -1.2605 -1.4679
   20MOL   H159 3997   5.887   7.435   1.723 -0.6328 -1.3828 -0.5372
   20MOL   H160 3998   5.841   7.341   1.872  0.1219 -0.7103 -1.7848
   20MOL   H161 3999   5.848   7.638   1.825  2.3841  0.1613  0.2290
   20MOL   C162 4000   5.749   7.565   1.983  0.0983 -0.2164 -0.0729
   20MOL   O163 4001   5.706   7.464   2.041  0.6164  0.0128 -0.0269
   20MOL   C164 4002   5.695   7.709   2.006  0.4607 -0.6392  0.6459
   20MOL   C165 4003   5.608   7.730   2.134 -0.2446 -0.4438  0.5189
   20MOL   N166 4004   5.686   7.732   2.255 -0.6859  0.0602  0.0054
   20MOL   H167 4005   5.642   7.752   1.921  2.8227  1.0779 -0.0073
   20MOL   H168 4006   5.784   7.770   2.023 -0.3045  0.4858  0.6302
   20MOL   H169 4007   5.565   0.049   2.132 -0.2294 -0.4566 -1.0901
   20MOL   H170 4008   5.526   7.659   2.145  1.9739 -3.0020  1.2252
   20MOL   H171 4009   5.786   7.725   2.244 -0.6842  1.7125 -1.3114
   20MOL   C172 4010   5.634   7.716   2.380 -0.0051  0.4802  0.1688
   20MOL   O173 4011   5.517   7.692   2.406 -0.1275 -0.3911  0.1669
   20MOL   C174 4012   5.737   7.722   2.497  0.1130  0.2224 -0.0233
   20MOL   C175 4013   5.750   0.084   2.556 -0.0582  0.3582  0.0242
   20MOL   N176 4014   5.855   0.174   2.495  0.4846  0.3781  0.7998
   20MOL   H177 4015   5.832   7.686   2.457  1.5847  2.2179  1.5668
   20MOL   H178 4016   5.707   7.650   2.573  1.0905 -0.7878 -0.5807
   20MOL   H179 4017   5.649   0.124   2.554 -0.7739 -1.3677  0.8124
   20MOL   H180 4018   5.766   0.078   2.663 -0.1368 -2.1165 -0.0685
   20MOL   H181 4019   5.949   0.138   2.484 -0.4361 -1.9052  0.1008
   20MOL   C182 4020   5.816   0.296   2.447 -0.5012  0.1321 -0.5436
   20MOL   O183 4021   5.697   0.342   2.461  0.5336  0.0937  0.0901
   20MOL   C184 4022   5.930   0.383   2.388 -0.4477 -0.1800 -0.3940
   20MOL   C185 4023   5.898   0.462   2.263  0.2820 -0.0453 -0.9553
   20MOL   N186 4024   5.779   0.543   2.275 -0.2962 -0.8605  0.3147
   20MOL   H187 4025   6.004   0.310   2.356 -0.0631  0.5932 -1.2852
   20MOL   H188 4026   5.971   0.452   2.462  0.6040 -1.5737  0.3669
   20MOL   H189 4027   5.980   0.531   2.245 -0.2663  1.1131  0.7740
   20MOL   H190 4028   5.884   0.388   2.185 -3.0512  0.2812 -0.7671
   20MOL   H191 4029   5.707   0.503   2.333 -0.8598  0.1898  0.3432
   20MOL   C192 4030   5.746   0.655   2.207 -0.7557 -0.9628  0.4747
   20MOL   O193 4031   5.826   0.695   2.117 -0.6227  0.1585 -0.0815
   20MOL   C194 4032   5.605   0.708   2.210 -0.7799  0.2101  0.5049
   20MOL   C195 4033   5.583   0.798   2.325 -0.1041 -0.0771  0.4722
   20MOL   N196 4034   5.453   0.859   2.313  0.2789 -0.1079  0.2689
   20MOL   H197 4035   5.600   0.769   2.120 -0.6611  0.6631  0.8042
   20MOL   H198 4036   5.538   0.622   2.205  0.8212 -0.9934 -1.2637
   20MOL   H199 4037   5.590   0.740   2.417  2.4153 -0.5054  0.0569
   20MOL   H200 4038   5.664   0.871   2.327 -1.0285  0.9455  1.0866
   20MOL   H201 4039   5.437   0.902   2.403  0.5636  0.5290  0.0206
   20MOL   H202 4040   5.383   0.788   2.303  0.2179 -0.2609  1.6423
   21MOL     C1 4041   4.942   6.263   6.191 -0.4155  0.2838 -0.1221
   21MOL     O2 4042   4.836   6.319   6.194  0.2797  0.2100  0.1788
   21MOL     C3 4043   5.072   6.339   6.156 -0.4956  0.0149 -1.7092
   21MOL     C4 4044   5.100   6.470   6.232 -0.2490 -0.3090 -0.5318
   21MOL     N5 4045   5.112   6.460   6.382 -0.3304  0.1483 -0.8784
   21MOL     H6 4046   5.061   6.366   6.051  0.2725 -0.2342 -1.8568
   21MOL     H7 4047   5.167   6.286   6.170 -0.2540  0.4605 -1.6541
   21MOL     H8 4048   5.020   6.541   6.210  1.1309  1.4647  0.0531
   21MOL     H9 4049   5.188   6.525   6.200  0.4488 -1.7558 -1.1425
   21MOL    H10 4050   5.032   6.489   6.437  0.0788  0.1451 -0.2806
   21MOL    H11 4051   4.957   6.155   6.184 -0.9102  0.3457 -2.5705
   21MOL    C12 4052   5.224   6.426   6.449  0.1360 -0.3049  1.4089
   21MOL    O13 4053   5.325   6.393   6.387 -0.4459  0.4667  0.3434
   21MOL    C14 4054   5.222   6.425   6.602 -0.0409 -0.2579 -0.9642
   21MOL    C15 4055   5.237   6.285   6.670  0.1600 -0.1652 -0.4382
   21MOL    N16 4056   5.115   6.217   6.714  0.1785 -0.4637  0.3359
   21MOL    H17 4057   5.143   6.488   6.644  1.0455  1.5921 -1.6490
   21MOL    H18 4058   5.308   6.483   6.633 -2.0113  2.3910 -0.2569
   21MOL    H19 4059   5.298   6.215   6.614  1.0167 -1.4908  2.0365
   21MOL    H20 4060   5.293   6.300   6.763  0.5243 -0.2152 -0.6530
   21MOL    H21 4061   5.031   6.236   6.661 -1.7680 -2.6861  2.4937
   21MOL    C22 4062   5.104   6.109   6.800  0.0657 -0.3874 -0.3436
   21MOL    O23 4063   5.198   6.067   6.871  0.2587  0.2972 -0.2831
   21MOL    C24 4064   4.962   6.057   6.830  0.1676 -0.2002 -0.2069
   21MOL    C25 4065   4.960   5.901   6.832 -0.0474 -0.3609 -0.5375
   21MOL    N26 4066   4.819   5.859   6.845  1.0213  0.4620  0.7324
   21MOL    H27 4067   4.906   6.096   6.745 -0.1186  2.2670  1.0617
   21MOL    H28 4068   4.922   6.110   6.916  0.4291  1.7537 -1.2443
   21MOL    H29 4069   4.991   5.868   6.733  0.0973 -0.1145 -0.5738
   21MOL    H30 4070   5.017   5.868   6.918  0.8929 -0.3451 -1.1541
   21MOL    H31 4071   4.749   5.928   6.823  0.3967 -0.3450  0.1495
   21MOL    C32 4072   4.795   5.731   6.884  0.2634  0.1286 -0.0911
   21MOL    O33 4073   4.887   5.651   6.916  0.2537 -0.3727 -0.2001
   21MOL    C34 4074   4.649   5.686   6.892  0.0000  0.2040  0.3972
   21MOL    C35 4075   4.620   5.544   6.923 -0.5125 -0.5928  0.4163
   21MOL    N36 4076   4.666   5.505   7.054  0.3863  0.0686 -0.0273
   21MOL    H37 4077   4.605   5.708   6.795 -0.6184 -1.3535  0.3224
   21MOL    H38 4078   4.593   5.737   6.971  0.3367  2.3390 -0.7035
   21MOL    H39 4079   4.515   5.524   6.903 -0.7497  2.0580 -1.3651
   21MOL    H40 4080   4.663   5.483   6.844 -0.4561  0.9788 -0.7912
   21MOL    H41 4081   4.647   5.578   7.120  1.2675 -0.2811  0.6238
   21MOL    C42 4082   4.710   5.387   7.100 -0.2840 -0.3226 -0.6736
   21MOL    O43 4083   4.755   5.296   7.036  0.3180 -0.0033  0.1641
   21MOL    C44 4084   4.721   5.375   7.244 -0.2922  0.2483  0.2965
   21MOL    C45 4085   4.647   5.250   7.307  0.7940 -0.0720  0.4473
   21MOL    N46 4086   4.721   5.119   7.276  0.1479  0.2541 -0.0326
   21MOL    H47 4087   4.828   5.384   7.265 -0.3577 -1.1322  1.3021
   21MOL    H48 4088   4.668   5.459   7.291 -1.7777 -1.6343  2.0708
   21MOL    H49 4089   4.643   5.255   7.416  1.1147 -0.7917  0.5007
   21MOL    H50 4090   4.544   5.232   7.278  0.7925  2.2796 -1.0907
   21MOL    H51 4091   4.671   5.056   7.216  0.7673 -0.7020  0.4441
   21MOL    C52 4092   4.847   5.084   7.306 -0.6684 -0.1861 -0.3428
   21MOL    O53 4093   4.923   5.155   7.379  0.0734 -0.1280  0.0176
   21MOL    C54 4094   4.898   4.949   7.243  0.3871  0.0693 -0.8528
   21MOL    C55 4095   4.918   4.954   7.093 -0.5518  0.5887 -0.3295
   21MOL    N56 4096   5.011   4.859   7.040 -0.0541 -0.0469  0.4222
   21MOL    H57 4097   4.990   4.918   7.294 -0.1994  2.1074  1.5207
   21MOL    H58 4098   4.826   4.878   7.284  0.7589  0.4248  0.4518
   21MOL    H59 4099   4.956   5.045   7.048  0.7153  0.5262  0.6002
   21MOL    H60 4100   4.828   4.937   7.033  0.8485 -1.0269 -2.0319
   21MOL    H61 4101   5.102   4.886   7.004 -0.2887 -1.0940 -1.0033
   21MOL    C62 4102   4.990   4.729   7.011 -0.0302  0.4128 -0.0578
   21MOL    O63 4103   4.904   4.662   7.074 -0.0429 -0.5777  0.3086
   21MOL    C64 4104   5.074   4.661   6.899 -0.3658  0.5475 -0.2303
   21MOL    C65 4105   5.198   4.568   6.939  0.0549  0.1162  0.9643
   21MOL    N66 4106   5.169   4.451   7.024 -0.4420  0.1688 -0.0362
   21MOL    H67 4107   5.004   4.605   6.837 -0.9251  1.1822 -0.1816
   21MOL    H68 4108   5.108   4.741   6.834  0.6248 -0.2406 -0.6799
   21MOL    H69 4109   5.244   4.538   6.845 -0.5073 -1.4695  1.1923
   21MOL    H70 4110   5.267   4.633   6.994  1.4200  0.3068 -0.9288
   21MOL    H71 4111   5.220   4.453   7.111  1.4659 -0.6495 -1.1199
   21MOL    C72 4112   5.095   4.348   6.986  0.1144 -0.3634 -0.7556
   21MOL    O73 4113   5.046   4.346   6.869 -0.9576 -0.0078  0.2316
   21MOL    C74 4114   5.068   4.243   7.088  0.2142 -0.1766  0.7275
   21MOL    C75 4115   4.923   4.216   7.112  0.3370  0.1854  0.9936
   21MOL    N76 4116   4.914   4.108   7.213 -0.7789  0.3198 -0.5222
   21MOL    H77 4117   5.111   4.157   7.036 -0.2149 -0.1834  0.3784
   21MOL    H78 4118   5.112   4.268   7.184 -0.4649 -1.5736  1.4202
   21MOL    H79 4119   4.869   4.294   7.166 -1.2463 -0.8732  0.9787
   21MOL    H80 4120   4.858   4.206   7.025  1.5373 -1.6225  0.2740
   21MOL    H81 4121   4.961   4.127   7.300 -0.0349  0.6231 -0.9864
   21MOL    C82 4122   4.886   3.978   7.192 -0.0089 -0.8436  0.1159
   21MOL    O83 4123   4.839   3.932   7.088 -0.3938 -0.0444 -0.1508
   21MOL    C84 4124   4.915   3.883   7.306 -0.0719  0.0881  0.6826
   21MOL    C85 4125   4.933   3.726   7.271 -0.2924  0.1524  0.3378
   21MOL    N86 4126   5.049   3.676   7.343  0.1332  0.8448  0.4027
   21MOL    H87 4127   4.999   3.933   7.354  0.6955  0.3603 -0.9047
   21MOL    H88 4128   4.825   3.888   7.367 -1.3635  1.2591 -1.2863
   21MOL    H89 4129   4.844   3.667   7.292 -0.9805  1.2414  0.5392
   21MOL    H90 4130   4.939   3.711   7.163 -1.5257 -0.2230  0.3178
   21MOL    H91 4131   5.024   3.629   7.429  1.5794  0.3236  0.5565
   21MOL    C92 4132   5.172   3.648   7.288  0.0718  1.0084  0.0262
   21MOL    O93 4133   5.195   3.684   7.170 -0.2238  0.1115 -0.1667
   21MOL    C94 4134   5.285   3.592   7.379  0.1372 -1.4030  0.4524
   21MOL    C95 4135   5.422   3.597   7.319  0.4273 -0.2019  0.3059
   21MOL    N96 4136   5.523   3.502   7.379 -0.5877  0.1278 -0.1824
   21MOL    H97 4137   5.275   3.655   7.468 -0.0394 -0.4406 -0.2471
   21MOL    H98 4138   5.260   3.489   7.406 -0.1051 -1.2735  0.7228
   21MOL    H99 4139   5.408   3.562   7.217 -1.5988 -1.7931  1.1030
   21MOL   H100 4140   5.456   3.701   7.317 -2.5442  0.8728  2.7787
   21MOL   H101 4141   5.513   3.469   7.474 -1.4775  1.7939  0.3282
   21MOL   C102 4142   5.637   3.460   7.317  0.3375 -0.5343  0.4599
   21MOL   O103 4143   5.670   3.513   7.213 -0.1425  0.5969 -0.5549
   21MOL   C104 4144   5.716   3.353   7.387  0.5224 -0.7725 -0.2197
   21MOL   C105 4145   5.856   3.325   7.338 -0.3920 -0.4074 -0.0096
   21MOL   N106 4146   5.915   3.218   7.412 -0.0837  0.3543 -0.0812
   21MOL   H107 4147   5.647   3.269   7.397 -1.7543  1.1028  0.0734
   21MOL   H108 4148   5.726   3.373   7.493  0.8158  0.6219 -0.5054
   21MOL   H109 4149   5.864   3.306   7.231  2.6470  5.0416 -0.9623
   21MOL   H110 4150   5.920   3.411   7.359 -0.5813  0.6022 -3.2751
   21MOL   H111 4151   5.912   3.126   7.369  1.5081 -0.3860  1.3671
   21MOL   C112 4152   5.989   3.232   7.520  0.0821 -0.0607  0.2336
   21MOL   O113 4153   5.991   3.335   7.587  0.1460 -0.3596 -0.2963
   21MOL   C114 4154   6.059   3.094   7.552  0.2820  0.7626  0.3828
   21MOL   C115 4155   6.152   3.098   7.679  0.0357 -0.0776 -0.5536
   21MOL   N116 4156   6.273   3.180   7.665 -0.2565  0.1590  0.6422
   21MOL   H117 4157   6.116   3.061   7.466  0.2135  0.7921  0.3272
   21MOL   H118 4158   5.977   3.023   7.561  0.3618  0.2849 -2.4522
   21MOL   H119 4159   6.091   3.130   7.763 -0.6479 -0.4657 -0.8994
   21MOL   H120 4160   6.168   2.992   7.695  1.6615  0.2925  0.3906
   21MOL   H121 4161   6.265   3.274   7.701  0.0373  0.8149 -0.9763
   21MOL   C122 4162   6.386   3.132   7.614 -0.7611  0.3871  0.1482
   21MOL   O123 4163   6.396   3.013   7.575  0.3409  0.5796 -0.0417
   21MOL   C124 4164   6.517   3.208   7.614 -0.6458  0.0665 -0.1658
   21MOL   C125 4165   6.564   3.266   7.480  0.1262 -0.1702  0.1973
   21MOL   N126 4166   6.556   3.171   7.370 -0.2589  0.1640  0.3402
   21MOL   H127 4167   6.592   3.145   7.662  0.5080  0.7278 -1.0889
   21MOL   H128 4168   6.497   3.287   7.687  0.7603  0.4800 -0.2108
   21MOL   H129 4169   6.496   3.348   7.455  1.1915  0.7019  0.1297
   21MOL   H130 4170   6.658   3.321   7.490  1.2876 -1.8064 -1.3515
   21MOL   H131 4171   6.640   3.121   7.343  1.6095  1.7624  2.9472
   21MOL   C132 4172   6.450   3.146   7.294 -0.3986  0.6348 -0.4067
   21MOL   O133 4173   6.336   3.204   7.317  0.3372 -0.0903 -0.0969
   21MOL   C134 4174   6.457   3.027   7.193 -0.1148 -0.0303 -0.1291
   21MOL   C135 4175   6.391   2.902   7.257 -0.6936  0.0780  0.4082
   21MOL   N136 4176   6.487   2.797   7.301  0.0510 -0.1676 -0.0726
   21MOL   H137 4177   6.559   3.003   7.164 -0.5917  0.0746 -1.9144
   21MOL   H138 4178   6.396   3.066   7.112  0.8851  1.1707 -0.3204
   21MOL   H139 4179   6.330   2.923   7.345 -0.8478 -0.0003  0.3205
   21MOL   H140 4180   6.321   2.857   7.186 -0.7379 -1.4690  1.3967
   21MOL   H141 4181   6.503   2.775   7.398  0.2041 -0.9909 -0.2829
   21MOL   C142 4182   6.563   2.729   7.213  0.2515  0.0532  0.4800
   21MOL   O143 4183   6.560   2.733   7.090 -0.0538  0.0258  0.6238
   21MOL   C144 4184   6.654   2.637   7.282 -0.6826 -0.0864 -0.0580
   21MOL   C145 4185   6.631   2.488   7.248 -0.4358 -0.6527 -0.6294
   21MOL   N146 4186   6.522   2.430   7.321  0.1562 -0.6721  0.1909
   21MOL   H147 4187   6.660   2.644   7.391  3.4107  1.2019 -0.3140
   21MOL   H148 4188   6.751   2.672   7.247 -1.3247  0.5258 -1.2352
   21MOL   H149 4189   6.611   2.492   7.141  0.2907  0.4528 -0.7288
   21MOL   H150 4190   6.726   2.435   7.258 -0.3523 -0.2160  1.0271
   21MOL   H151 4191   6.428   2.467   7.320 -0.6133 -2.4419  2.3600
   21MOL   C152 4192   6.535   2.314   7.378 -0.4203 -0.0957 -0.8005
   21MOL   O153 4193   6.641   2.251   7.391  0.3705 -0.0977 -0.8300
   21MOL   C154 4194   6.411   2.247   7.434 -0.2169  0.3486 -0.4923
   21MOL   C155 4195   6.306   2.212   7.329 -0.8770  0.2532  0.2668
   21MOL   N156 4196   6.342   2.109   7.232  0.4328 -0.0172  0.2622
   21MOL   H157 4197   6.361   2.319   7.499  0.5050  0.0486  0.3972
   21MOL   H158 4198   6.432   2.162   7.499 -0.5225  1.0819  0.5903
   21MOL   H159 4199   6.213   2.177   7.375  0.9014 -2.3515  2.0142
   21MOL   H160 4200   6.274   2.298   7.270 -3.5804  0.0843  1.3876
   21MOL   H161 4201   6.356   2.136   7.136  0.0189 -0.7390 -0.0047
   21MOL   C162 4202   6.356   1.983   7.261  0.3280 -0.2323  0.0626
   21MOL   O163 4203   6.335   1.944   7.376 -0.7574  1.1604 -0.2405
   21MOL   C164 4204   6.366   1.884   7.144 -0.1485 -0.5828  0.0406
   21MOL   C165 4205   6.243   1.807   7.117  0.0101 -0.4808  0.1474
   21MOL   N166 4206   6.212   1.724   7.232  0.4552 -0.0932  0.6405
   21MOL   H167 4207   6.442   1.811   7.173  0.8410  0.8416  1.0835
   21MOL   H168 4208   6.393   1.933   7.050  0.3647  1.5015  1.2519
   21MOL   H169 4209   6.159   1.876   7.104 -0.7139 -0.9640  2.0417
   21MOL   H170 4210   6.240   1.760   7.018 -2.8973 -0.0928  0.0051
   21MOL   H171 4211   6.283   1.691   7.295  1.3378 -1.1512 -0.8605
   21MOL   C172 4212   6.094   1.686   7.268 -0.3153  0.4501  0.0032
   21MOL   O173 4213   5.993   1.702   7.200  0.4570  0.6399  0.1765
   21MOL   C174 4214   6.082   1.633   7.413 -0.5033 -0.1488  0.0458
   21MOL   C175 4215   6.029   1.740   7.513 -0.3404 -0.1115 -0.6385
   21MOL   N176 4216   6.133   1.832   7.547 -0.0103  0.1108  0.9402
   21MOL   H177 4217   6.177   1.597   7.452  0.2450  0.7903 -0.8847
   21MOL   H178 4218   6.016   1.547   7.405 -0.7197  0.0909 -0.8338
   21MOL   H179 4219   5.943   1.791   7.469 -1.9724 -1.9820  0.3649
   21MOL   H180 4220   5.985   1.691   7.600  0.2182 -0.8161 -0.7478
   21MOL   H181 4221   6.195   1.865   7.475  1.0989 -0.0707  1.8087
   21MOL   C182 4222   6.136   1.913   7.648 -0.1712 -0.4893  0.4026
   21MOL   O183 4223   6.067   1.899   7.747  0.3016  0.7929  0.2970
   21MOL   C184 4224   6.249   2.021   7.654 -0.4964  0.1182 -0.0722
   21MOL   C185 4225   6.244   2.107   0.002 -0.1267 -0.9602  0.5532
   21MOL   N186 4226   6.348   2.214   0.004  0.0698 -0.5393 -0.4383
   21MOL   H187 4227   6.236   2.086   7.568 -0.4389  1.0993  0.6548
   21MOL   H188 4228   6.352   1.983   7.655 -1.1831 -1.7978  0.0223
   21MOL   H189 4229   6.151   2.161   0.019  0.4155  0.7645 -1.6477
   21MOL   H190 4230   6.252   2.044   0.091 -2.0238 -1.0044  0.6952
   21MOL   H191 4231   6.310   2.307   0.016  0.3729 -0.6673  1.5769
   21MOL   C192 4232   6.482   2.213   0.004  0.6830  0.1006  0.3465
   21MOL   O193 4233   6.542   2.107   7.759 -0.2438  0.3592  0.1068
   21MOL   C194 4234   6.558   2.343   0.036 -0.1281 -0.1080  0.1542
   21MOL   C195 4235   6.718   2.328   0.030  0.1553  0.2377 -0.0403
   21MOL   N196 4236   6.751   2.234   0.134  0.2763 -0.7014  0.3922
   21MOL   H197 4237   6.534   2.411   7.735  0.3747  0.6027  0.5942
   21MOL   H198 4238   6.519   2.375   0.133  0.6256  0.9797  0.1026
   21MOL   H199 4239   6.750   2.294   7.712  0.9642 -0.2308  0.3856
   21MOL   H200 4240   6.770   2.422   0.047  0.2875 -0.0421  1.1413
   21MOL   H201 4241   6.713   2.143   0.111  3.5448 -2.1602  0.5619
   21MOL   H202 4242   6.850   2.222   0.123  0.5377  1.9128 -0.5242
   22MOL     C1 4243   4.558   1.903   0.257 -0.6517  0.1365  0.7973
   22MOL     O2 4244   4.526   1.817   0.173  0.2383 -0.3778  0.2431
   22MOL     C3 4245   4.484   1.916   0.391  0.0716  0.0680 -0.4748
   22MOL     C4 4246   4.548   2.017   0.495 -0.1787  0.0367  0.7934
   22MOL     N5 4247   4.659   1.956   0.553  0.3731  0.2649 -0.3273
   22MOL     H6 4248   4.468   1.812   0.420  0.9037 -0.6460 -2.5091
   22MOL     H7 4249   4.385   1.954   0.368 -0.7098 -2.4417 -1.5107
   22MOL     H8 4250   4.471   2.041   0.568 -0.4299  0.0686  0.5239
   22MOL     H9 4251   4.584   2.113   0.459  0.2733 -0.1989  0.6172
   22MOL    H10 4252   4.704   1.897   0.484  0.7122  0.7400 -0.5164
   22MOL    H11 4253   4.649   1.963   0.252  1.4384 -3.0543 -1.2884
   22MOL    C12 4254   4.685   1.937   0.684  0.2462  0.8876 -0.1265
   22MOL    O13 4255   4.646   1.998   0.781 -0.2915 -0.3472  0.4210
   22MOL    C14 4256   4.765   1.803   0.710  1.0183  0.2128 -0.1141
   22MOL    C15 4257   4.740   1.716   0.844 -0.2469 -0.6335  0.9423
   22MOL    N16 4258   4.784   1.789   0.960  0.4214  0.1700  0.6328
   22MOL    H17 4259   4.873   1.821   0.708  1.5879 -2.5120  2.5388
   22MOL    H18 4260   4.748   1.740   0.623 -0.1822 -1.9903  1.6662
   22MOL    H19 4261   4.633   1.701   0.851 -0.3211  0.0021  1.2114
   22MOL    H20 4262   4.792   1.623   0.823  1.5496  0.3959  0.6620
   22MOL    H21 4263   4.771   1.889   0.950 -0.0557  0.1166  0.6812
   22MOL    C22 4264   4.821   1.737   1.072  0.0585 -0.6025  0.1476
   22MOL    O23 4265   4.803   1.618   1.089 -0.2875  0.5010 -0.1298
   22MOL    C24 4266   4.880   1.821   1.182 -0.2530 -0.4232  0.0803
   22MOL    C25 4267   4.851   1.776   1.325  0.5076 -0.3388  0.2284
   22MOL    N26 4268   4.708   1.759   1.352 -0.2059 -0.2054  0.1231
   22MOL    H27 4269   4.839   1.922   1.182  0.0460 -0.2988  0.9822
   22MOL    H28 4270   4.988   1.821   1.169  0.2961 -1.9651  3.8552
   22MOL    H29 4271   4.896   1.679   1.344  0.5308  0.0348  2.1427
   22MOL    H30 4272   4.897   1.850   1.391  0.5087  0.2890 -0.4613
   22MOL    H31 4273   4.640   1.798   1.288  1.0997  0.8596 -0.6418
   22MOL    C32 4274   4.663   1.739   1.478  0.1179  0.3087 -0.0828
   22MOL    O33 4275   4.741   1.718   1.571 -0.5398 -0.5738  0.4227
   22MOL    C34 4276   4.516   1.740   1.511 -0.6666  0.6271  0.7401
   22MOL    C35 4277   4.437   1.634   1.438  0.5359  0.6303  0.1174
   22MOL    N36 4278   4.298   1.649   1.454 -0.0079  0.3172  0.7003
   22MOL    H37 4279   4.466   1.834   1.485 -2.2842 -0.3228  0.3056
   22MOL    H38 4280   4.493   1.727   1.617  0.5286 -1.4338  0.7718
   22MOL    H39 4281   4.472   1.613   1.337  0.8338  1.4342  0.0543
   22MOL    H40 4282   4.461   1.538   1.484 -1.1372  0.4406  0.6316
   22MOL    H41 4283   4.255   1.606   1.535 -1.2696 -1.4595 -0.8537
   22MOL    C42 4284   4.221   1.697   1.355 -0.0016  0.0902 -0.2104
   22MOL    O43 4285   4.266   1.719   1.243  0.7849  0.0388  0.4310
   22MOL    C44 4286   4.075   1.717   1.393 -0.8105  0.2246 -0.1872
   22MOL    C45 4287   3.988   1.772   1.277 -0.2547  0.1947  0.4972
   22MOL    N46 4288   3.841   1.775   1.304 -0.4564 -0.2389  0.2944
   22MOL    H47 4289   4.024   1.626   1.424  0.6868 -0.4975  0.1622
   22MOL    H48 4290   4.072   1.785   1.479 -1.6394  0.8864 -0.7333
   22MOL    H49 4291   4.018   1.870   1.241 -1.1601 -0.2952 -1.7222
   22MOL    H50 4292   3.992   1.706   1.190 -0.6116  0.6360  0.1447
   22MOL    H51 4293   3.780   1.703   1.267  0.9987 -0.3980 -1.8683
   22MOL    C52 4294   3.793   1.876   1.383 -0.4493 -0.4732 -0.5839
   22MOL    O53 4295   3.864   1.966   1.436 -0.0125 -0.6653 -0.2053
   22MOL    C54 4296   3.652   1.856   1.431  0.3791  0.3484  0.3649
   22MOL    C55 4297   3.583   1.982   1.479  0.4732 -0.5051 -0.3816
   22MOL    N56 4298   3.457   2.021   1.409  0.0710  0.2152  0.3551
   22MOL    H57 4299   3.606   1.824   1.337 -1.6033  2.3499  0.6287
   22MOL    H58 4300   3.641   1.762   1.485  1.3764 -0.0717 -0.1302
   22MOL    H59 4301   3.656   2.064   1.478  1.1162 -1.0792 -0.9539
   22MOL    H60 4302   3.555   1.967   1.583  0.0901 -0.4969 -0.4820
   22MOL    H61 4303   3.455   2.014   1.308  0.2323  2.2395  0.1871
   22MOL    C62 4304   3.339   2.046   1.472 -0.3546  1.1456  0.7517
   22MOL    O63 4305   3.327   2.067   1.593 -0.2566  0.1450 -0.5983
   22MOL    C64 4306   3.214   2.041   1.381 -0.2049  0.5647  0.2691
   22MOL    C65 4307   3.093   1.959   1.433 -1.1548 -0.2547  0.2024
   22MOL    N66 4308   3.030   2.008   1.553 -0.5146  0.4182 -0.5599
   22MOL    H67 4309   3.180   2.143   1.365 -0.2945  0.7924  1.8442
   22MOL    H68 4310   3.255   2.008   1.285  1.3725 -0.2565  1.1942
   22MOL    H69 4311   3.019   1.958   1.353 -0.0035  1.6524 -0.9420
   22MOL    H70 4312   3.125   1.856   1.448  0.0879  0.0597 -0.1811
   22MOL    H71 4313   3.004   2.105   1.552 -1.1024  0.3312  2.6613
   22MOL    C72 4314   2.978   1.923   1.647 -0.0965  0.6427  0.0818
   22MOL    O73 4315   2.988   1.803   1.642 -0.8091  0.0532  0.3988
   22MOL    C74 4316   2.892   1.992   1.752 -0.4646  0.1942  0.5524
   22MOL    C75 4317   2.745   1.939   1.761 -1.0478  0.0394  0.5615
   22MOL    N76 4318   2.687   2.004   1.886 -0.2733  0.0766 -0.2875
   22MOL    H77 4319   2.945   1.968   1.844  0.4921  0.8446  0.1884
   22MOL    H78 4320   2.880   2.099   1.731 -1.5616  0.3787  2.0869
   22MOL    H79 4321   2.685   1.959   1.672 -0.8980 -0.8604  0.2521
   22MOL    H80 4322   2.738   1.832   1.778 -2.0709 -0.1439 -0.9397
   22MOL    H81 4323   2.749   2.044   1.955  0.8799 -0.9520 -0.7249
   22MOL    C82 4324   2.560   1.991   1.920  1.0599  0.0245  0.8140
   22MOL    O83 4325   2.481   1.926   1.850  0.1119 -0.2546 -0.1427
   22MOL    C84 4326   2.506   2.053   2.047 -0.1267  0.6977 -0.6576
   22MOL    C85 4327   2.372   2.129   2.037  0.2145  0.5084 -0.0784
   22MOL    N86 4328   2.378   2.249   1.961  0.6255 -0.2348 -0.0234
   22MOL    H87 4329   2.505   1.982   2.129 -1.0095 -0.6110 -1.7849
   22MOL    H88 4330   2.580   2.131   2.065 -1.7018  2.0875 -0.0602
   22MOL    H89 4331   2.294   2.067   1.994 -0.4092  2.5010 -1.9101
   22MOL    H90 4332   2.346   2.145   2.142 -0.7005 -0.8803 -0.0871
   22MOL    H91 4333   2.360   2.248   1.861  0.4339  0.4577  0.0023
   22MOL    C92 4334   2.414   2.373   2.001 -0.2863 -0.0441  0.3503
   22MOL    O93 4335   2.452   2.390   2.114 -0.1224 -0.0498  0.2790
   22MOL    C94 4336   2.410   2.491   1.905 -0.9373 -0.2316  0.1076
   22MOL    C95 4337   2.263   2.531   1.865  0.2032 -0.2937  0.5050
   22MOL    N96 4338   2.221   2.492   1.727 -0.3715  0.1841 -0.1029
   22MOL    H97 4339   2.477   2.565   1.947  1.3807 -1.6122 -1.0592
   22MOL    H98 4340   2.458   2.450   1.816 -1.8366 -0.1993 -0.4014
   22MOL    H99 4341   2.184   2.482   1.921  0.4519  0.9334  1.9640
   22MOL   H100 4342   2.252   2.639   1.874 -2.2818 -0.1448 -3.4729
   22MOL   H101 4343   2.175   2.568   1.678 -0.8541 -0.4757 -0.6933
   22MOL   C102 4344   2.198   2.374   1.671  0.4284  0.9583  0.2710
   22MOL   O103 4345   2.250   2.278   1.721  0.0422  0.2789  0.3433
   22MOL   C104 4346   2.087   2.360   1.566 -0.1554 -0.6055 -0.1137
   22MOL   C105 4347   2.138   2.348   1.421 -0.0317 -0.5099 -0.6770
   22MOL   N106 4348   2.083   2.241   1.333 -0.1454  0.0394  0.2428
   22MOL   H107 4349   2.009   2.435   1.579 -0.6429 -0.8755 -1.3745
   22MOL   H108 4350   2.036   2.269   1.596  1.6524 -1.2488  1.0434
   22MOL   H109 4351   2.122   2.445   1.374 -0.6391 -0.4006 -0.2499
   22MOL   H110 4352   2.246   2.339   1.418 -0.0968 -1.2623 -0.9542
   22MOL   H111 4353   2.002   2.264   1.276  2.1821 -0.1750 -3.2975
   22MOL   C112 4354   2.138   2.121   1.319 -0.2341  0.0591 -0.0840
   22MOL   O113 4355   2.236   2.082   1.375  0.3540 -0.4674  0.3411
   22MOL   C114 4356   2.069   2.029   1.219 -0.2289  0.4555  0.2960
   22MOL   C115 4357   1.979   2.096   1.117 -0.0955  0.4316  0.1149
   22MOL   N116 4358   2.055   2.169   1.012  0.1851  0.1265  0.1082
   22MOL   H117 4359   2.006   1.958   1.272 -1.1955  0.0819 -1.2958
   22MOL   H118 4360   2.142   1.967   1.167 -1.2432 -0.0821 -0.5121
   22MOL   H119 4361   1.929   2.005   1.083  2.1709 -0.6614 -0.3277
   22MOL   H120 4362   1.901   2.156   1.164  0.3587  1.7177 -0.7552
   22MOL   H121 4363   2.156   2.164   1.013  0.2171  0.8177  0.7111
   22MOL   C122 4364   2.002   2.223   0.899  0.6995  0.2685 -0.0689
   22MOL   O123 4365   1.879   2.223   0.885 -0.9089 -0.2652 -0.2626
   22MOL   C124 4366   2.100   2.288   0.799  0.3428 -0.0430 -0.7682
   22MOL   C125 4367   2.027   2.394   0.706  0.1461  0.1976 -0.0004
   22MOL   N126 4368   2.107   2.514   0.687 -0.2787  0.2477  0.5857
   22MOL   H127 4369   2.151   2.206   0.748 -1.9341 -0.7896 -1.8722
   22MOL   H128 4370   2.166   2.348   0.862 -0.4943  0.4286 -0.3401
   22MOL   H129 4371   2.008   2.342   0.612  1.3896 -3.4581  1.6870
   22MOL   H130 4372   1.935   2.437   0.747  0.6887 -0.5735  2.1242
   22MOL   H131 4373   2.195   2.505   0.637 -0.2534  1.8046  0.2936
   22MOL   C132 4374   2.087   2.636   0.740  0.4532 -0.8702 -0.3541
   22MOL   O133 4375   1.983   2.676   0.799 -0.0088  0.4696  0.3648
   22MOL   C134 4376   2.203   2.727   0.729  0.4182 -0.5686  0.9146
   22MOL   C135 4377   2.270   2.755   0.871  0.1119 -0.2782 -0.2877
   22MOL   N136 4378   2.376   2.652   0.888  0.8658  0.6743 -0.9185
   22MOL   H137 4379   2.156   2.817   0.690  2.1089 -0.5836 -1.3063
   22MOL   H138 4380   2.272   2.688   0.653 -0.8343 -1.6857  0.3308
   22MOL   H139 4381   2.317   2.853   0.863 -1.4271  0.6729  1.8348
   22MOL   H140 4382   2.199   2.763   0.953  1.9363  0.0015  1.2862
   22MOL   H141 4383   2.443   2.631   0.816  0.4934  1.5590 -1.5344
   22MOL   C142 4384   2.372   2.554   0.984 -0.5000 -0.5855  0.3902
   22MOL   O143 4385   2.288   2.558   1.075  0.2128  0.5358  0.6213
   22MOL   C144 4386   2.481   2.447   0.979 -0.6894  0.6170 -0.0789
   22MOL   C145 4387   2.451   2.331   1.079  0.1795 -0.7586  0.7295
   22MOL   N146 4388   2.521   2.210   1.048  0.0614 -0.7894 -0.4627
   22MOL   H147 4389   2.581   2.489   0.987 -1.0986  1.5591  0.1391
   22MOL   H148 4390   2.478   2.393   0.884  1.5053 -2.0221  1.2721
   22MOL   H149 4391   2.482   2.358   1.180  0.7597 -0.9044  0.5918
   22MOL   H150 4392   2.342   2.320   1.079 -0.2593  2.9001 -1.8561
   22MOL   H151 4393   2.618   2.202   1.077 -0.1563 -1.3002  0.1177
   22MOL   C152 4394   2.464   2.096   1.000 -0.1161 -0.3578 -0.3765
   22MOL   O153 4395   2.342   2.089   0.975  0.4819 -0.1887 -0.4914
   22MOL   C154 4396   2.552   1.971   0.979 -0.5482 -1.0462  0.3797
   22MOL   C155 4397   2.478   1.840   0.943  0.3858  0.6493 -0.0876
   22MOL   N156 4398   2.393   1.791   1.051  0.2191  0.4344 -0.0383
   22MOL   H157 4399   2.604   1.964   1.074 -0.6880  3.0056  0.8389
   22MOL   H158 4400   2.626   2.001   0.905  0.0771 -1.7694  0.7004
   22MOL   H159 4401   2.414   1.865   0.858  2.1834  1.4092 -1.2520
   22MOL   H160 4402   2.544   1.759   0.912  1.0731  1.1042  0.1854
   22MOL   H161 4403   2.297   1.812   1.074  0.4955  1.3597  0.2916
   22MOL   C162 4404   2.454   1.730   1.155 -1.1467 -0.2333  0.0445
   22MOL   O163 4405   2.571   1.685   1.148 -0.0417  0.3434 -0.2242
   22MOL   C164 4406   2.375   1.721   1.286  0.0353  0.5423  0.4413
   22MOL   C165 4407   2.446   1.790   1.407  0.5897  0.1205  0.5455
   22MOL   N166 4408   2.463   1.931   1.398 -0.1512  0.1636  0.9037
   22MOL   H167 4409   2.360   1.615   1.303 -0.0173 -0.1168 -3.3567
   22MOL   H168 4410   2.280   1.773   1.272 -0.2422 -0.2404 -0.6581
   22MOL   H169 4411   2.382   1.767   1.493 -1.2032 -1.3253 -1.1294
   22MOL   H170 4412   2.546   1.748   1.410  0.1460 -0.9830 -0.1065
   22MOL   H171 4413   2.379   1.987   1.405  1.2858  2.3022  1.2706
   22MOL   C172 4414   2.579   2.001   1.419  0.2356  0.7060 -0.9514
   22MOL   O173 4415   2.693   1.947   1.425 -0.5497  0.2007 -0.5625
   22MOL   C174 4416   2.566   2.153   1.429 -0.3371  0.2411 -0.8312
   22MOL   C175 4417   2.691   2.227   1.482 -0.9005 -0.1453 -0.0574
   22MOL   N176 4418   2.675   2.372   1.482 -0.1703  0.4188 -0.3802
   22MOL   H177 4419   2.485   2.179   1.497  0.2979  1.9352 -0.6972
   22MOL   H178 4420   2.542   2.184   1.327  2.2911  2.6667 -0.7917
   22MOL   H179 4421   2.709   2.195   1.585 -1.7029  0.1534  0.1795
   22MOL   H180 4422   2.780   2.197   1.427 -1.0446  2.8694 -2.0406
   22MOL   H181 4423   2.677   2.412   1.575 -0.9564 -0.7971  0.1616
   22MOL   C182 4424   2.692   2.453   1.376  0.1216 -0.0633  0.2050
   22MOL   O183 4425   2.724   2.418   1.265 -0.0751  0.4933 -0.0203
   22MOL   C184 4426   2.692   2.601   1.391  0.6846 -0.2634  0.6613
   22MOL   C185 4427   2.552   2.659   1.369 -0.4462  0.5621  0.2299
   22MOL   N186 4428   2.491   2.686   1.496 -0.1824 -0.1755 -0.3605
   22MOL   H187 4429   2.751   2.637   1.307  1.0121 -0.7211  0.6874
   22MOL   H188 4430   2.744   2.624   1.484  1.8158 -1.4660  0.3459
   22MOL   H189 4431   2.550   2.741   1.297  1.0208  0.2059 -0.2371
   22MOL   H190 4432   2.487   2.582   1.325 -0.1501  0.0691  0.6510
   22MOL   H191 4433   2.513   2.615   1.564  1.3927 -1.2634 -1.9611
   22MOL   C192 4434   2.402   2.783   1.521  0.5670 -0.5275 -0.0350
   22MOL   O193 4435   2.367   2.859   1.435 -0.2725 -0.6165 -0.2876
   22MOL   C194 4436   2.346   2.809   1.665 -0.2793  0.1199  0.0637
   22MOL   C195 4437   2.196   2.857   1.668  0.0595 -0.1070 -0.2298
   22MOL   N196 4438   2.115   2.750   1.610 -0.2787  0.2091 -0.8229
   22MOL   H197 4439   2.365   2.713   1.713  3.1782  0.7677  0.1030
   22MOL   H198 4440   2.416   2.884   1.702 -0.4160  1.1100 -1.6304
   22MOL   H199 4441   2.160   2.870   1.770  0.8301 -0.3512  0.0735
   22MOL   H200 4442   2.186   2.952   1.616  1.1050  0.4067  0.4986
   22MOL   H201 4443   2.119   2.749   1.509  1.0088 -1.5773 -0.7696
   22MOL   H202 4444   2.020   2.765   1.642  0.3594  0.5683  0.9483
   23MOL     C1 4445   4.006   7.607   1.390  0.0632 -0.1451 -0.2142
   23MOL     O2 4446   4.042   7.716   1.337  0.4974  0.1897 -0.5149
   23MOL     C3 4447   3.982   7.609   1.539 -0.0688 -0.4826 -0.8196
   23MOL     C4 4448   3.830   7.635   1.578 -0.0883  0.1577 -0.6877
   23MOL     N5 4449   3.794   7.764   1.531  0.4213 -0.1466  0.3049
   23MOL     H6 4450   4.032   7.689   1.593  0.8398 -2.0826  0.7363
   23MOL     H7 4451   4.022   7.520   1.587 -0.5544 -0.5563 -0.5434
   23MOL     H8 4452   3.807   7.628   1.684 -1.0583 -3.6476 -1.0824
   23MOL     H9 4453   3.775   7.551   1.535 -0.1438  0.2166 -0.7318
   23MOL    H10 4454   3.779   7.774   1.431 -0.3956  2.3653  0.6460
   23MOL    H11 4455   3.990   7.519   1.327 -0.7964 -0.0528 -0.1370
   23MOL    C12 4456   3.787   0.090   1.606 -0.3503  0.2219 -0.1222
   23MOL    O13 4457   3.785   0.091   1.731  0.1629 -0.0206  0.8716
   23MOL    C14 4458   3.773   0.230   1.537  0.6942 -0.4986  0.2643
   23MOL    C15 4459   3.901   0.270   1.454  0.0651 -1.0731 -0.1302
   23MOL    N16 4460   3.915   0.208   1.323 -0.0955  0.5393  0.2796
   23MOL    H17 4461   3.752   0.300   1.618  0.9065  0.7399 -0.7286
   23MOL    H18 4462   3.691   0.219   1.467  0.7899  0.8279 -0.0646
   23MOL    H19 4463   3.901   0.378   1.442  1.6381 -0.8021  2.0301
   23MOL    H20 4464   3.988   0.251   1.517 -1.3802 -1.4552  1.7907
   23MOL    H21 4465   3.970   0.123   1.323  0.5268  0.9349  0.5687
   23MOL    C22 4466   3.872   0.260   1.206  0.0977  0.3229 -0.1189
   23MOL    O23 4467   3.828   0.374   1.201 -0.6942 -0.2922  0.3577
   23MOL    C24 4468   3.872   0.173   1.083 -0.0792  0.8158 -0.1592
   23MOL    C25 4469   3.980   0.216   0.983  0.2628 -0.2331 -0.2933
   23MOL    N26 4470   4.124   0.196   1.029  0.8236 -0.0003  0.1316
   23MOL    H27 4471   3.776   0.175   1.033  0.6475  2.4018 -1.5466
   23MOL    H28 4472   3.901   0.072   1.111  2.5541  1.8819  1.2371
   23MOL    H29 4473   3.964   0.154   0.895 -0.8694 -0.6098  0.1756
   23MOL    H30 4474   3.973   0.322   0.960 -1.9732  0.3182  2.5786
   23MOL    H31 4475   4.161   0.272   1.083 -1.9885  1.2429  0.3794
   23MOL    C32 4476   4.199   0.088   0.991 -0.3616 -0.1502 -0.1497
   23MOL    O33 4477   4.158   7.779   0.918  0.2901 -0.3549  0.1702
   23MOL    C34 4478   4.344   0.070   1.041  0.1179 -0.0719  0.1625
   23MOL    C35 4479   4.372   7.732   1.136 -0.1761 -0.8075  0.4594
   23MOL    N36 4480   4.498   7.670   1.094 -0.1229  0.0017  0.3167
   23MOL    H37 4481   4.395   0.161   1.073  0.1826  0.1353 -0.5183
   23MOL    H38 4482   4.399   0.053   0.948  0.1840 -0.3924  0.2580
   23MOL    H39 4483   4.374   7.743   1.244  1.1067  1.8963  0.1947
   23MOL    H40 4484   4.291   7.660   1.122  0.6875 -1.9380  1.1584
   23MOL    H41 4485   4.491   7.572   1.071  0.5606  0.1827 -0.6922
   23MOL    C42 4486   4.623   7.715   1.113 -0.3399  0.3267  0.5121
   23MOL    O43 4487   4.638   0.054   1.131 -0.0425 -0.8615  0.0911
   23MOL    C44 4488   4.738   7.618   1.114 -0.1856  0.4314  0.6755
   23MOL    C45 4489   4.808   7.619   1.257 -0.3738 -0.4313  0.6735
   23MOL    N46 4490   4.929   7.531   1.267 -0.2831 -0.3275  0.0332
   23MOL    H47 4491   4.697   7.521   1.087  0.1815  0.6490 -0.6854
   23MOL    H48 4492   4.803   7.649   1.032 -1.4995 -1.8287 -1.2725
   23MOL    H49 4493   4.827   7.715   1.305 -0.2949 -0.6759  1.1284
   23MOL    H50 4494   4.734   7.573   1.322  1.6306 -4.6372  0.1526
   23MOL    H51 4495   4.915   7.438   1.231  0.0066 -0.3500 -0.0205
   23MOL    C52 4496   5.046   7.566   1.322 -0.7058 -0.0931  0.4901
   23MOL    O53 4497   5.067   7.664   1.389 -0.8655  0.1927  0.3281
   23MOL    C54 4498   5.161   7.472   1.304  0.3869  0.1897 -0.0361
   23MOL    C55 4499   5.300   7.538   1.334 -0.7809  0.3172 -0.3256
   23MOL    N56 4500   5.389   7.555   1.215 -0.3895 -0.6149 -0.1868
   23MOL    H57 4501   5.155   7.392   1.378 -0.8909 -0.8277 -1.2007
   23MOL    H58 4502   5.153   7.417   1.210 -0.1442  0.4332 -0.1325
   23MOL    H59 4503   5.349   7.474   1.407 -1.8923  0.2086  0.3524
   23MOL    H60 4504   5.294   7.630   1.393 -0.5912 -0.2149  0.5361
   23MOL    H61 4505   5.359   7.510   1.130  1.1410  0.9753 -1.6159
   23MOL    C62 4506   5.499   7.631   1.212 -0.1155 -0.0666  0.4011
   23MOL    O63 4507   5.548   7.679   1.309  0.5343 -0.0550 -0.6307
   23MOL    C64 4508   5.566   7.656   1.080  0.7549  0.3848  0.2214
   23MOL    C65 4509   5.636   0.010   1.063  0.5099  0.0419  0.1113
   23MOL    N66 4510   5.706   0.029   0.937  0.0800  0.1811 -0.0181
   23MOL    H67 4511   5.644   7.581   1.067 -1.1155 -1.5297 -0.2745
   23MOL    H68 4512   5.492   7.648   1.000  1.8832 -0.9594 -0.7181
   23MOL    H69 4513   5.558   0.086   1.065 -1.4322 -1.8945 -0.3402
   23MOL    H70 4514   5.707   0.034   1.142 -0.6121  0.3507  1.0493
   23MOL    H71 4515   5.656   0.091   0.875 -0.0708 -1.4268 -1.5630
   23MOL    C72 4516   5.823   7.762   0.898  0.2923  0.7279  0.1478
   23MOL    O73 4517   5.888   7.684   0.966 -0.2876  0.4359 -0.8652
   23MOL    C74 4518   5.868   0.005   0.753 -0.0065  0.3921 -0.4201
   23MOL    C75 4519   6.021   0.014   0.728 -0.1630  0.1673 -0.0034
   23MOL    N76 4520   6.085   7.662   0.722 -0.6247 -0.2866 -0.1626
   23MOL    H77 4521   5.821   7.707   0.693  1.5366  0.4076 -1.6905
   23MOL    H78 4522   5.828   0.100   0.717 -1.4040 -0.2554 -0.6016
   23MOL    H79 4523   6.029   0.053   0.627 -0.1396  1.1493  0.3792
   23MOL    H80 4524   6.071   0.087   0.791 -1.1493  0.3283  0.6100
   23MOL    H81 4525   6.118   7.623   0.809 -0.2568  0.9771  0.2844
   23MOL    C82 4526   6.120   7.595   0.611  0.6175 -0.0722  0.0280
   23MOL    O83 4527   6.104   7.634   0.494 -0.0121 -0.4391  0.6727
   23MOL    C84 4528   6.179   7.455   0.630 -0.7760 -0.1057  0.0246
   23MOL    C85 4529   6.132   7.346   0.531 -0.4147 -0.0038  0.3719
   23MOL    N86 4530   6.155   7.206   0.573 -0.2925 -0.6864 -0.9161
   23MOL    H87 4531   6.288   7.462   0.626 -0.6613 -1.6319  0.1215
   23MOL    H88 4532   6.144   7.427   0.729  3.4680 -4.8267  0.3962
   23MOL    H89 4533   6.023   7.355   0.532 -0.2489  2.7324 -0.8500
   23MOL    H90 4534   6.164   7.350   0.427 -1.2358  0.1826  0.1181
   23MOL    H91 4535   6.232   7.192   0.638 -0.5624 -0.1458 -0.4763
   23MOL    C92 4536   6.098   7.099   0.530  0.3928  0.4311  0.3748
   23MOL    O93 4537   6.013   7.101   0.442 -0.3210  0.6342 -0.3866
   23MOL    C94 4538   6.132   6.963   0.594  0.5988 -0.6815  0.0167
   23MOL    C95 4539   5.998   6.886   0.638  0.1902  0.4600  0.1626
   23MOL    N96 4540   5.900   6.967   0.712  0.3570 -0.1345  0.3766
   23MOL    H97 4541   6.178   6.908   0.512 -0.1839  0.1825 -1.0056
   23MOL    H98 4542   6.202   6.972   0.677  2.1372 -0.7824 -1.2690
   23MOL    H99 4543   5.951   6.843   0.550  2.4814  0.9295 -1.3449
   23MOL   H100 4544   6.028   6.800   0.698  1.1455  0.9527  0.4025
   23MOL   H101 4545   5.908   7.068   0.708  0.6998 -0.0608  2.3238
   23MOL   C102 4546   5.790   6.912   0.766  0.1440  0.2180  0.3582
   23MOL   O103 4547   5.774   6.786   0.775 -0.3500  0.1118  0.1004
   23MOL   C104 4548   5.693   7.012   0.835  0.0242  0.1297  0.0203
   23MOL   C105 4549   5.552   6.960   0.875 -0.3604 -0.4401 -0.1503
   23MOL   N106 4550   5.544   6.855   0.971  0.1737 -0.4342  0.3659
   23MOL   H107 4551   5.667   7.096   0.771 -0.5911 -0.0830 -0.0210
   23MOL   H108 4552   5.747   7.052   0.921  0.8901 -0.8568 -0.0488
   23MOL   H109 4553   5.487   7.039   0.912  1.0864 -0.1119  1.7386
   23MOL   H110 4554   5.496   6.943   0.783 -0.3200  1.1107 -0.4836
   23MOL   H111 4555   5.481   6.780   0.947  0.9842 -0.9380 -0.2144
   23MOL   C112 4556   5.582   6.868   1.098 -0.1447 -0.2451 -0.0725
   23MOL   O113 4557   5.656   6.960   1.137  0.1355  0.0011 -0.6800
   23MOL   C114 4558   5.533   6.763   1.194 -0.0624  0.0309 -0.0051
   23MOL   C115 4559   5.576   6.787   1.335  0.6442 -0.5066 -0.3151
   23MOL   N116 4560   5.509   6.697   1.428 -0.2401 -0.0354 -1.1008
   23MOL   H117 4561   5.566   6.665   1.159 -1.0152 -0.7568  1.2785
   23MOL   H118 4562   5.424   6.766   1.194 -0.0397  2.2942 -0.2380
   23MOL   H119 4563   5.683   6.770   1.347  0.8778 -0.0396 -1.6755
   23MOL   H120 4564   5.559   6.884   1.381  1.8491 -1.5679  2.5221
   23MOL   H121 4565   5.530   6.604   1.394  0.2473  0.4304 -2.1017
   23MOL   C122 4566   5.434   6.716   1.541  0.5790  0.5604 -0.3927
   23MOL   O123 4567   5.384   6.822   1.564  0.0176  0.5833  0.2228
   23MOL   C124 4568   5.398   6.595   1.630 -0.6768  0.3511  0.3437
   23MOL   C125 4569   5.495   6.582   1.747  0.3616  0.4865  0.0694
   23MOL   N126 4570   5.641   6.587   1.716 -0.1410 -0.0071 -0.1138
   23MOL   H127 4571   5.419   6.510   1.565  2.4131  1.1767  0.1580
   23MOL   H128 4572   5.292   6.597   1.654 -0.5431  0.3501  0.9419
   23MOL   H129 4573   5.461   6.657   1.818 -0.0937  0.0869  0.2788
   23MOL   H130 4574   5.466   6.490   1.799 -1.3966  1.8936  1.6764
   23MOL   H131 4575   5.685   6.677   1.709  0.3454 -0.0745  1.8631
   23MOL   C132 4576   5.717   6.480   1.729 -1.0317  0.7022 -0.5335
   23MOL   O133 4577   5.678   6.372   1.770  0.6302 -0.1952 -0.2655
   23MOL   C134 4578   5.864   6.500   1.690  0.9681  0.5478 -0.4924
   23MOL   C135 4579   5.950   6.377   1.701  0.0985  0.0421  0.6748
   23MOL   N136 4580   6.067   6.392   1.622  0.0927  0.2907 -0.7607
   23MOL   H137 4581   5.902   6.580   1.752 -0.9248  2.3434 -1.5807
   23MOL   H138 4582   5.862   6.536   1.587 -0.3902 -1.6902 -1.3069
   23MOL   H139 4583   5.976   6.356   1.805 -0.7224  2.0208  1.3074
   23MOL   H140 4584   5.897   6.288   1.670 -1.0453  1.2409 -0.8972
   23MOL   H141 4585   6.138   6.447   1.668 -0.6168  0.4351  0.1981
   23MOL   C142 4586   6.095   6.330   1.506 -0.0024 -0.3034 -0.2210
   23MOL   O143 4587   6.027   6.253   1.437  0.2425  0.2565 -0.0240
   23MOL   C144 4588   6.234   6.375   1.461 -0.5309  0.1961 -0.2854
   23MOL   C145 4589   6.235   6.471   1.342 -0.1614  0.2787  0.1000
   23MOL   N146 4590   6.194   6.605   1.376 -0.0786 -0.0876  0.2149
   23MOL   H147 4591   6.302   6.295   1.433 -0.1554  0.4393 -0.0772
   23MOL   H148 4592   6.289   6.415   1.546  1.9342 -0.8959 -1.3047
   23MOL   H149 4593   6.329   6.495   1.292  0.2541  2.5073  1.9122
   23MOL   H150 4594   6.174   6.426   1.263  1.3799 -0.7826 -0.5150
   23MOL   H151 4595   6.102   6.632   1.342 -0.3448 -0.7641  0.3797
   23MOL   C152 4596   6.252   6.691   1.461  0.0567 -0.4098 -0.1444
   23MOL   O153 4597   6.348   6.663   1.542  0.7652  0.2140  0.7642
   23MOL   C154 4598   6.222   6.835   1.439  0.4024 -0.3025 -0.2131
   23MOL   C155 4599   6.076   6.875   1.433  0.4315 -0.1910 -0.4030
   23MOL   N156 4600   6.035   6.897   1.297  0.1973  0.2921 -0.1607
   23MOL   H157 4601   6.270   6.866   1.346 -2.7078  0.7088 -1.5518
   23MOL   H158 4602   6.269   6.887   1.523  2.7567 -3.8352  0.7320
   23MOL   H159 4603   6.020   6.793   1.477  0.0984  0.7293  0.9495
   23MOL   H160 4604   6.052   6.967   1.488  1.1296  0.6764 -1.5383
   23MOL   H161 4605   6.070   6.978   1.248  1.7492 -0.2011  0.0979
   23MOL   C162 4606   5.969   6.803   1.230  0.1247  0.5051  0.4614
   23MOL   O163 4607   5.940   6.697   1.285 -0.1077 -0.2449  0.3647
   23MOL   C164 4608   5.945   6.826   1.083 -0.5511 -0.3838  0.1365
   23MOL   C165 4609   6.024   6.723   1.000  0.1099 -1.0871 -0.0456
   23MOL   N166 4610   6.164   6.771   1.004 -0.4148  0.0508  0.1681
   23MOL   H167 4611   5.962   6.927   1.047 -1.6307 -0.9329 -1.9748
   23MOL   H168 4612   5.839   6.803   1.072 -0.7335  0.7317 -0.5079
   23MOL   H169 4613   6.021   6.623   1.041 -1.1216 -0.6680  0.9286
   23MOL   H170 4614   5.975   6.716   0.903  0.2029 -0.4767 -0.1431
   23MOL   H171 4615   6.185   6.869   0.996 -1.1162  0.1227 -0.9431
   23MOL   C172 4616   6.277   6.686   0.982  0.2194  0.3991 -0.3421
   23MOL   O173 4617   6.264   6.567   0.980 -0.3517  0.2526 -0.0698
   23MOL   C174 4618   6.420   6.751   0.977 -0.4038 -1.0309  0.3953
   23MOL   C175 4619   6.482   6.730   1.113  0.3096 -1.0517  0.6317
   23MOL   N176 4620   6.625   6.747   1.110  0.0352 -0.3178  0.2158
   23MOL   H177 4621   6.411   6.860   0.966 -2.3031 -1.2571 -0.6684
   23MOL   H178 4622   6.469   6.709   0.889 -1.4294  0.8643 -1.1448
   23MOL   H179 4623   6.445   6.803   1.184 -0.2650  0.2331 -0.9514
   23MOL   H180 4624   6.462   6.629   1.147  1.6986 -1.3422  0.6346
   23MOL   H181 4625   6.656   6.782   1.021  1.5890  2.2524  1.7103
   23MOL   C182 4626   6.723   6.724   1.200  0.1581  0.1861  0.0558
   23MOL   O183 4627   6.841   6.724   1.153  1.1249  0.1046 -0.3970
   23MOL   C184 4628   6.687   6.700   1.346  0.1295  0.3679 -0.5113
   23MOL   C185 4629   6.766   6.594   1.440  0.2250 -0.5237 -0.0343
   23MOL   N186 4630   6.738   6.452   1.408 -0.6478  0.3862  0.0716
   23MOL   H187 4631   6.581   6.675   1.343  0.5996 -1.5779 -1.8960
   23MOL   H188 4632   6.698   6.790   1.405 -2.4616  1.2343 -1.2843
   23MOL   H189 4633   6.866   6.637   1.437  0.8628 -1.9498  0.1066
   23MOL   H190 4634   6.732   6.601   1.544 -0.9141 -1.7356 -0.3090
   23MOL   H191 4635   6.652   6.401   1.423  0.3004 -1.3113 -0.1420
   23MOL   C192 4636   6.806   6.369   1.336  0.5639  0.3536 -0.2140
   23MOL   O193 4637   6.917   6.396   1.283  0.2022 -0.2191 -0.0761
   23MOL   C194 4638   6.734   6.238   1.301  0.0721 -0.7180 -0.2910
   23MOL   C195 4639   6.783   6.107   1.378  0.0387  0.2768 -0.4750
   23MOL   N196 4640   6.729   6.092   1.514 -0.0854 -0.0725 -1.0226
   23MOL   H197 4641   6.625   6.251   1.303  0.1054 -0.5460  1.4204
   23MOL   H198 4642   6.761   6.203   1.202 -1.4596 -1.6056 -0.4109
   23MOL   H199 4643   6.757   6.013   1.330 -0.2740 -0.3174  0.8306
   23MOL   H200 4644   6.892   6.098   1.384 -0.0632 -0.7368  0.0505
   23MOL   H201 4645   6.773   6.007   1.545 -0.3569  0.6531  1.4676
   23MOL   H202 4646   6.781   6.153   1.576  1.0079 -1.6152 -0.4070
   24MOL     C1 4647   7.657   4.227   1.193 -0.3055  0.2548  0.5848
   24MOL     O2 4648   7.683   4.155   1.287  0.5240 -0.0238 -0.1960
   24MOL     C3 4649   7.527   4.212   1.117 -0.1410 -0.3703 -0.1959
   24MOL     C4 4650   7.396   4.229   1.198  0.0711 -0.5518 -0.2730
   24MOL     N5 4651   7.353   4.356   1.255  0.0801  0.5745 -0.7455
   24MOL     H6 4652   7.534   4.110   1.079 -1.0545 -0.2617 -0.6962
   24MOL     H7 4653   7.530   4.287   1.038  1.6530 -2.2518 -1.9767
   24MOL     H8 4654   7.395   4.155   1.279  0.6447 -2.6607 -2.1160
   24MOL     H9 4655   7.316   4.194   1.134 -1.6324 -2.5465  2.7782
   24MOL    H10 4656   7.278   4.405   1.208 -0.4468 -0.6029 -1.1623
   24MOL    H11 4657   7.725   4.301   1.151  1.1063  0.5723  3.2573
   24MOL    C12 4658   7.406   4.418   1.363  0.3461  0.7227 -0.2202
   24MOL    O13 4659   7.499   4.364   1.418  0.9001 -0.2875  0.0849
   24MOL    C14 4660   7.330   4.535   1.422 -1.1355 -0.2573 -1.3824
   24MOL    C15 4661   7.341   4.558   1.576 -0.4508  0.1180  0.5732
   24MOL    N16 4662   7.287   4.439   1.643 -0.4622  0.5499 -0.1173
   24MOL    H17 4663   7.224   4.537   1.398 -0.9982 -0.8760 -2.0447
   24MOL    H18 4664   7.379   4.611   1.361 -1.1254 -0.7586 -2.0007
   24MOL    H19 4665   7.444   4.556   1.612 -0.3022  0.4730  0.1705
   24MOL    H20 4666   7.294   4.654   1.596 -1.9855  0.2220 -3.1902
   24MOL    H21 4667   7.298   4.345   1.606  1.7676  0.4665  0.6444
   24MOL    C22 4668   7.240   4.432   1.768  0.0279  0.2798 -0.2271
   24MOL    O23 4669   7.248   4.529   1.847 -0.0284 -0.1532  0.9961
   24MOL    C24 4670   7.174   4.302   1.804  0.4222  0.1546  0.3392
   24MOL    C25 4671   7.172   4.264   1.959  0.6077 -0.0789  0.2862
   24MOL    N26 4672   7.053   4.311   2.032 -0.2056  0.4962 -0.1799
   24MOL    H27 4673   7.228   4.216   1.764 -0.3040  0.0080 -0.3422
   24MOL    H28 4674   7.076   4.298   1.756  0.1824  3.1851  0.4474
   24MOL    H29 4675   7.171   4.155   1.966 -0.7603 -0.0296  0.9354
   24MOL    H30 4676   7.261   4.307   2.004 -0.4343  0.8587  1.4816
   24MOL    H31 4677   6.971   4.290   1.978  0.2810  0.1780 -0.8045
   24MOL    C32 4678   7.057   4.401   2.130 -0.2422  0.3048 -0.1939
   24MOL    O33 4679   7.157   4.436   2.188 -0.4903  0.1365 -0.9127
   24MOL    C34 4680   6.923   4.465   2.164  0.0263  0.6764  0.6342
   24MOL    C35 4681   6.913   4.505   2.313  0.6190 -0.1025 -0.0401
   24MOL    N36 4682   6.953   4.646   2.340  0.6551 -0.2163 -0.0516
   24MOL    H37 4683   6.842   4.402   2.128  0.9507  0.4979 -1.2223
   24MOL    H38 4684   6.903   4.553   2.103 -0.9067  0.1674  0.1989
   24MOL    H39 4685   6.818   4.470   2.354  0.3866 -0.1113 -0.5891
   24MOL    H40 4686   6.977   4.435   2.367 -1.2137 -1.2414  0.7162
   24MOL    H41 4687   6.980   4.699   2.258 -0.1544  1.5261  0.7728
   24MOL    C42 4688   6.939   4.707   2.455  0.1326  0.3074 -0.4172
   24MOL    O43 4689   6.927   4.644   2.557 -0.1726  0.0082 -0.4745
   24MOL    C44 4690   6.944   4.864   2.447 -0.1016 -0.0901 -0.3057
   24MOL    C45 4691   7.070   4.935   2.397  0.4984  1.2117 -0.6194
   24MOL    N46 4692   7.171   4.951   2.500 -0.4471  0.8367  0.0196
   24MOL    H47 4693   6.858   4.899   2.390 -0.5694 -0.1482  0.3518
   24MOL    H48 4694   6.936   4.904   2.548  0.2336  0.5255 -0.5136
   24MOL    H49 4695   7.101   4.883   2.306  2.2147 -0.9854  1.1704
   24MOL    H50 4696   7.052   5.033   2.354  0.8173  1.3936 -0.3401
   24MOL    H51 4697   7.158   5.020   2.573 -0.6922 -2.2115  2.9590
   24MOL    C52 4698   7.295   4.903   2.513  0.9306 -0.4301  0.0250
   24MOL    O53 4699   7.342   4.830   2.426 -0.8535  0.7686  0.4203
   24MOL    C54 4700   7.383   4.950   2.627 -0.6880 -0.3883  0.2392
   24MOL    C55 4701   7.523   4.888   2.646  0.6608 -0.1602  0.1581
   24MOL    N56 4702   7.580   4.886   2.783  0.0389  0.2834  0.4639
   24MOL    H57 4703   7.392   5.059   2.629 -2.3000 -0.2076 -0.9890
   24MOL    H58 4704   7.321   4.931   2.715 -0.5641  0.1095  0.4355
   24MOL    H59 4705   7.588   4.935   2.573 -0.3164  0.6069 -0.2279
   24MOL    H60 4706   7.507   4.785   2.614 -3.5180  0.0011  1.2947
   24MOL    H61 4707   7.551   4.952   2.854  0.4335  0.6163  0.3175
   24MOL    C62 4708   7.677   4.811   2.824  0.7364  0.5581  0.1980
   24MOL    O63 4709   7.737   4.733   2.753  0.0470 -0.5833 -0.5517
   24MOL    C64 4710   7.720   4.830   2.962 -0.1420  0.4666  0.2468
   24MOL    C65 4711   0.092   4.867   2.987  0.1665  0.4787  0.2488
   24MOL    N66 4712   0.158   4.963   2.899  0.1220 -0.7663  0.1009
   24MOL    H67 4713   7.659   4.913   2.998  0.1659  0.8842 -0.1979
   24MOL    H68 4714   7.700   4.739   3.018 -2.4061  1.3105  0.8805
   24MOL    H69 4715   0.109   4.912   3.085  0.9498  2.4066 -0.7325
   24MOL    H70 4716   0.152   4.777   2.979 -0.8719 -0.2483  0.6744
   24MOL    H71 4717   0.251   4.949   2.862  0.7199 -0.0241  1.2821
   24MOL    C72 4718   0.120   5.088   2.881 -0.2695  0.0726  0.1064
   24MOL    O73 4719   0.022   5.148   2.930  0.3039 -0.4514  0.4267
   24MOL    C74 4720   0.215   5.168   2.798 -0.7587  0.1369  0.5332
   24MOL    C75 4721   0.143   5.220   2.674  0.4533  0.6119  0.2025
   24MOL    N76 4722   0.166   5.144   2.549 -0.3361  0.0595  0.0268
   24MOL    H77 4723   0.242   5.251   2.863 -0.7033  0.4888  0.0639
   24MOL    H78 4724   0.307   5.117   2.771 -0.9433  0.5559 -0.9120
   24MOL    H79 4725   0.035   5.220   2.685  0.5872  3.7416  1.8636
   24MOL    H80 4726   0.176   5.323   2.658  1.1108  0.2053 -1.1951
   24MOL    H81 4727   0.086   5.102   2.505 -0.5604  2.6647 -2.2162
   24MOL    C82 4728   0.279   5.146   2.479 -0.4520  0.3324  0.0752
   24MOL    O83 4729   0.375   5.211   2.519 -0.1651 -0.2626  0.2368
   24MOL    C84 4730   0.291   5.075   2.345  0.4869  0.0282  0.0382
   24MOL    C85 4731   0.431   5.018   2.310 -0.1466 -0.2281  0.0907
   24MOL    N86 4732   0.445   4.990   2.170  0.7329 -0.1132 -0.0766
   24MOL    H87 4733   0.209   5.003   2.344  1.2759 -0.8746 -0.8384
   24MOL    H88 4734   0.271   5.159   2.279 -1.0190  0.4579  1.0261
   24MOL    H89 4735   0.508   5.092   2.333  2.1594 -2.1747 -1.1930
   24MOL    H90 4736   0.448   4.929   2.370  1.1182 -1.0708 -1.4871
   24MOL    H91 4737   0.501   5.054   2.114 -2.7328  1.4073 -1.9991
   24MOL    C92 4738   0.384   4.880   2.105 -0.8133  0.1360 -0.0940
   24MOL    O93 4739   0.312   4.799   2.167 -0.1403 -0.4935 -0.1595
   24MOL    C94 4740   0.425   4.851   1.962 -0.6556  0.6154 -0.6205
   24MOL    C95 4741   0.304   4.847   1.865 -0.2090  0.6344 -0.4158
   24MOL    N96 4742   0.204   4.745   1.900  0.5501 -0.1229  0.4468
   24MOL    H97 4743   0.497   4.931   1.940 -0.2996  0.6977  0.7800
   24MOL    H98 4744   0.475   4.754   1.965  0.3386  1.1317 -0.0499
   24MOL    H99 4745   0.247   4.940   1.869  1.0552  1.4572 -1.1362
   24MOL   H100 4746   0.348   4.828   1.767  1.7013  0.0459  0.5337
   24MOL   H101 4747   0.235   4.681   1.972 -1.1601  0.1797  1.4671
   24MOL   C102 4748   0.077   4.747   1.856  0.2131  0.8472 -0.2512
   24MOL   O103 4749   0.035   4.843   1.792 -0.0913  0.6051  0.0477
   24MOL   C104 4750   7.774   4.623   1.894  0.1196 -0.2374  0.2592
   24MOL   C105 4751   7.639   4.640   1.828 -0.1913  0.4672  0.4258
   24MOL   N106 4752   7.531   4.616   1.919 -0.1365  0.1819  0.7009
   24MOL   H107 4753   7.774   4.628   2.003 -0.8914 -0.4335  0.2710
   24MOL   H108 4754   0.037   4.526   1.870 -2.2903 -1.4112  0.4642
   24MOL   H109 4755   7.614   4.740   1.793  2.9286  0.3142 -2.5379
   24MOL   H110 4756   7.633   4.569   1.746  0.9634 -1.5943  2.0797
   24MOL   H111 4757   7.476   4.531   1.919  0.6034 -0.3483 -1.7546
   24MOL   C112 4758   7.498   4.695   2.026 -0.4712 -0.0464 -0.1929
   24MOL   O113 4759   7.548   4.804   2.047 -0.4545  0.2242 -0.4067
   24MOL   C114 4760   7.399   4.631   2.114  0.2081 -0.0324 -0.2690
   24MOL   C115 4761   7.279   4.719   2.154 -0.3911  0.2132 -0.0087
   24MOL   N116 4762   7.181   4.713   2.048  0.2829  0.1227 -0.8280
   24MOL   H117 4763   7.459   4.605   2.201  0.0406 -0.9561 -0.4209
   24MOL   H118 4764   7.371   4.535   2.072  0.3981 -0.8584  1.4216
   24MOL   H119 4765   7.221   4.683   2.240 -0.8028  1.3112  0.1781
   24MOL   H120 4766   7.317   4.819   2.174  1.3643 -0.4055 -0.1755
   24MOL   H121 4767   7.207   4.643   1.980  0.4340 -0.6694  0.0379
   24MOL   C122 4768   7.081   4.795   2.016  0.5335  0.2219  0.2545
   24MOL   O123 4769   7.050   4.900   2.070 -0.3672  0.3551 -0.6181
   24MOL   C124 4770   6.993   4.753   1.901 -0.5126  0.1368 -0.1487
   24MOL   C125 4771   7.024   4.849   1.787  0.5235 -0.0030 -0.3734
   24MOL   N126 4772   7.163   4.837   1.742 -0.2882  0.0945 -0.1131
   24MOL   H127 4773   6.889   4.757   1.933 -0.7079  0.4336 -0.8144
   24MOL   H128 4774   7.027   4.655   1.871  1.1851  0.3087  1.1366
   24MOL   H129 4775   6.958   4.813   1.708 -0.0897  0.4309 -0.0676
   24MOL   H130 4776   7.007   4.952   1.820 -0.7747 -0.0353 -0.9091
   24MOL   H131 4777   7.199   4.747   1.768  1.7749 -0.0776 -3.2375
   24MOL   C132 4778   7.242   4.936   1.700 -0.6137  0.0230 -0.1183
   24MOL   O133 4779   7.191   5.032   1.641  0.1303  0.3119 -0.4905
   24MOL   C134 4780   7.384   4.930   1.752  0.2244  0.6296 -0.2365
   24MOL   C135 4781   7.460   5.060   1.729  0.9591 -0.4107 -0.1663
   24MOL   N136 4782   7.588   5.060   1.804 -0.3763  0.1189 -0.0502
   24MOL   H137 4783   7.433   4.843   1.709 -2.8423  0.1492 -2.9076
   24MOL   H138 4784   7.366   4.919   1.859 -0.4007 -0.0861 -0.4144
   24MOL   H139 4785   7.479   5.072   1.623 -1.6280 -1.5703 -0.7972
   24MOL   H140 4786   7.395   5.142   1.760  0.3584 -1.2631  0.8808
   24MOL   H141 4787   7.656   4.992   1.776  1.4149  1.5582  0.7391
   24MOL   C142 4788   7.629   5.147   1.901 -0.2684  0.2276 -0.0364
   24MOL   O143 4789   7.552   5.237   1.937  0.3266  0.3802 -0.6125
   24MOL   C144 4790   7.763   5.129   1.968  0.9317  0.0678  0.2890
   24MOL   C145 4791   7.764   5.133   2.121 -0.2138  0.3759  0.1091
   24MOL   N146 4792   7.706   5.012   2.181  0.3457 -0.5347 -0.0700
   24MOL   H147 4793   0.057   5.199   1.929  0.8998 -0.2222 -0.2894
   24MOL   H148 4794   0.025   5.033   1.939  0.1484 -0.1849 -0.0158
   24MOL   H149 4795   0.082   5.138   2.170  0.3916  1.4105 -1.2000
   24MOL   H150 4796   7.712   5.226   2.141  2.3803  1.8142  0.4297
   24MOL   H151 4797   7.681   4.937   2.118  1.1759 -0.3984 -0.5707
   24MOL   C152 4798   7.698   4.980   2.315  0.5060  0.1382  0.4677
   24MOL   O153 4799   7.710   5.060   2.411  0.5378 -0.4461 -0.5281
   24MOL   C154 4800   7.677   4.831   2.342 -0.2654 -0.2577  0.9606
   24MOL   C155 4801   0.018   4.770   2.406 -0.5193 -0.2525  0.6069
   24MOL   N156 4802   0.014   4.637   2.454  0.2875  0.1103 -0.3330
   24MOL   H157 4803   7.658   4.772   2.252 -0.7751  2.0870 -0.5017
   24MOL   H158 4804   7.586   4.810   2.399  0.6435  1.0147  2.8970
   24MOL   H159 4805   0.101   4.765   2.336  0.0230 -3.6679  1.4243
   24MOL   H160 4806   0.064   4.835   2.481  0.9203 -1.2969  0.6444
   24MOL   H161 4807   0.007   4.630   2.554 -0.9720 -0.5446 -0.4601
   24MOL   C162 4808   0.020   4.523   2.380 -0.1872 -0.4940  0.0536
   24MOL   O163 4809   0.027   4.518   2.260  0.8893  0.4748 -0.2199
   24MOL   C164 4810   0.008   4.393   2.460  1.0178 -0.3990  0.3879
   24MOL   C165 4811   7.701   4.291   2.381 -0.4537  0.2215 -0.7835
   24MOL   N166 4812   7.663   4.170   2.450  0.7171 -0.5197 -0.3728
   24MOL   H167 4813   7.753   4.411   2.562  1.4380 -1.7213  0.7807
   24MOL   H168 4814   0.109   4.350   2.460  0.3957 -1.8774 -0.3542
   24MOL   H169 4815   7.613   4.341   2.340 -0.8001  0.1654 -0.1182
   24MOL   H170 4816   7.756   4.258   2.292  2.1703 -0.3662  0.9856
   24MOL   H171 4817   7.570   4.160   2.489  0.8517  0.9589  0.3795
   24MOL   C172 4818   7.736   4.062   2.445 -0.3965  0.2973  0.3300
   24MOL   O173 4819   0.056   4.057   2.379 -0.0754  0.1425  0.1317
   24MOL   C174 4820   7.687   3.940   2.526 -0.0852  0.0086  0.4300
   24MOL   C175 4821   7.768   3.813   2.487  0.4105  0.5215 -0.5246
   24MOL   N176 4822   0.128   3.819   2.538 -0.6936  0.2477 -0.5398
   24MOL   H177 4823   7.582   3.924   2.500 -0.3183  0.7264  0.9349
   24MOL   H178 4824   7.681   3.958   2.633  1.2065  2.9328  0.0575
   24MOL   H179 4825   7.724   3.724   2.531  0.3615 -0.0778 -1.7651
   24MOL   H180 4826   0.002   3.802   2.380  1.3606  1.2744 -0.4838
   24MOL   H181 4827   0.201   3.845   2.474 -0.3408  2.1074  0.6035
   24MOL   C182 4828   0.159   3.793   2.663  0.4903  0.4098 -0.5990
   24MOL   O183 4829   0.072   3.753   2.738  0.3815 -0.1533 -0.9370
   24MOL   C184 4830   0.303   3.790   2.715  0.1558  0.0878 -0.1264
   24MOL   C185 4831   0.336   3.649   2.774 -0.3201 -0.7926 -0.1898
   24MOL   N186 4832   0.271   3.631   2.905 -0.3048  0.8237 -0.7677
   24MOL   H187 4833   0.318   3.876   2.780  0.7323 -0.1172  0.0125
   24MOL   H188 4834   0.377   3.813   2.638  1.4206  0.6904  1.2296
   24MOL   H189 4835   0.299   3.568   2.711  0.9750 -1.1420 -0.5107
   24MOL   H190 4836   0.443   3.641   2.792  0.2519  3.6079 -1.1407
   24MOL   H191 4837   0.184   3.677   2.928 -0.5341 -0.2366  0.5386
   24MOL   C192 4838   0.320   3.536   2.992 -0.4536 -0.0196 -0.0278
   24MOL   O193 4839   0.421   3.474   2.972  0.0509 -0.7964 -0.0522
   24MOL   C194 4840   0.243   3.513   3.121  0.2254  1.1522  0.2703
   24MOL   C195 4841   0.217   3.365   3.155 -0.5638 -0.5541  0.0126
   24MOL   N196 4842   0.110   3.305   3.083 -0.3967 -0.5581 -0.1756
   24MOL   H197 4843   0.291   3.559   3.208 -0.2147 -0.7586  1.5422
   24MOL   H198 4844   0.144   3.558   3.117  0.4630  1.7134  0.6337
   24MOL   H199 4845   0.312   3.316   3.132 -0.7371 -0.9965  0.2373
   24MOL   H200 4846   0.203   3.351   3.262 -1.8642 -0.0527 -0.0839
   24MOL   H201 4847   0.029   3.364   3.075 -0.7464 -1.0558 -0.2834
   24MOL   H202 4848   0.072   3.226   3.132 -0.2544  0.1218  1.0674
   25MOL     C1 4849   5.376   0.220   7.534 -0.8171  0.4085 -0.3428
   25MOL     O2 4850   5.360   0.313   7.454 -0.5132  0.0292 -0.0074
   25MOL     C3 4851   5.354   0.084   7.488 -0.5638  0.1484 -0.2026
   25MOL     C4 4852   5.308   0.071   7.344 -0.6836  0.2414  0.4996
   25MOL     N5 4853   5.329   7.713   7.302 -0.8962  0.0599  0.3927
   25MOL     H6 4854   5.283   0.043   7.560  0.6060  0.3035  1.0506
   25MOL     H7 4855   5.448   0.030   7.500 -0.7679 -0.8757 -2.8527
   25MOL     H8 4856   5.381   0.122   7.281  0.8432  0.5778  2.4931
   25MOL     H9 4857   5.209   0.106   7.316 -0.7381 -0.7165 -0.5915
   25MOL    H10 4858   5.247   7.665   7.267  0.1829 -0.9174 -0.8290
   25MOL    H11 4859   5.412   0.244   7.634  0.9596 -1.4561 -0.4911
   25MOL    C12 4860   5.447   7.649   7.269 -0.2938  0.4287  0.1107
   25MOL    O13 4861   5.553   7.702   7.293 -0.6824  0.3363 -0.0524
   25MOL    C14 4862   5.436   7.503   7.219 -0.3361 -0.0449  0.2919
   25MOL    C15 4863   5.528   7.468   7.099  0.1751  0.4704  0.2196
   25MOL    N16 4864   5.483   7.510   6.968 -0.1042  0.4899 -0.1700
   25MOL    H17 4865   5.330   7.478   7.215  0.2815 -2.6058 -1.3238
   25MOL    H18 4866   5.476   7.446   7.303 -2.2367 -2.6314 -0.4835
   25MOL    H19 4867   5.624   7.506   7.134  0.2030 -1.0906  1.9789
   25MOL    H20 4868   5.541   7.359   7.099  1.9277  0.6476  1.3814
   25MOL    H21 4869   5.388   7.544   6.955 -0.2144  0.1676 -0.2055
   25MOL    C22 4870   5.548   7.480   6.860  0.3454 -0.1659 -0.1167
   25MOL    O23 4871   5.671   7.456   6.861 -0.7112 -0.2409 -0.0050
   25MOL    C24 4872   5.472   7.482   6.730 -0.4598  0.0151  0.6321
   25MOL    C25 4873   5.514   7.370   6.626 -0.0446  0.3974  0.1264
   25MOL    N26 4874   5.485   7.416   6.487 -0.3701  0.1786  0.5046
   25MOL    H27 4875   5.484   7.584   6.693  0.0284 -0.1581  0.3039
   25MOL    H28 4876   5.365   7.470   6.746 -0.6255 -0.7941 -0.9943
   25MOL    H29 4877   5.622   7.359   6.633  0.4195  3.7697 -0.6161
   25MOL    H30 4878   5.466   7.275   6.649  0.1056  0.3428  0.2118
   25MOL    H31 4879   5.398   7.383   6.449 -0.4819  1.8662 -0.7820
   25MOL    C32 4880   5.569   7.501   6.417 -0.1961 -0.1248  0.9386
   25MOL    O33 4881   5.663   7.555   6.470 -0.6786 -0.5321 -0.1615
   25MOL    C34 4882   5.543   7.509   6.266 -0.1464 -0.1179 -0.2890
   25MOL    C35 4883   5.617   7.624   6.187 -0.3512  0.7003 -0.4086
   25MOL    N36 4884   5.559   7.759   6.204  0.1737  0.7464  0.0688
   25MOL    H37 4885   5.436   7.525   6.256 -0.3379 -1.3947 -0.3297
   25MOL    H38 4886   5.544   7.411   6.220 -0.7205  0.3475 -1.3035
   25MOL    H39 4887   5.722   7.624   6.213 -0.7669  1.3947  1.3554
   25MOL    H40 4888   5.620   7.593   6.082  0.8341  1.3197 -0.5553
   25MOL    H41 4889   5.459   7.758   6.222 -0.0960  1.3386 -1.3223
   25MOL    C42 4890   5.619   0.093   6.193 -0.0809 -0.5494  0.1699
   25MOL    O43 4891   5.743   0.098   6.170  0.3180 -0.4573 -0.5367
   25MOL    C44 4892   5.547   0.222   6.216 -0.1055 -0.1193  0.4320
   25MOL    C45 4893   5.469   0.265   6.090 -0.3089  0.6325 -0.4871
   25MOL    N46 4894   5.449   0.415   6.090  0.4464 -0.0330 -0.2218
   25MOL    H47 4895   5.482   0.193   6.299 -0.0266 -0.4771  0.3731
   25MOL    H48 4896   5.619   0.296   6.251  0.5787 -0.4598 -0.2184
   25MOL    H49 4897   5.517   0.237   5.996 -0.5986 -2.3697  0.2157
   25MOL    H50 4898   5.371   0.217   6.087 -1.1356  2.2455  0.0892
   25MOL    H51 4899   5.512   0.468   6.031  0.2597  1.0617  0.5446
   25MOL    C52 4900   5.337   0.476   6.126  0.3085 -0.2515  1.0557
   25MOL    O53 4901   5.238   0.414   6.156  0.2523  0.1541  0.2509
   25MOL    C54 4902   5.343   0.627   6.127  0.5148  0.0484 -0.1531
   25MOL    C55 4903   5.231   0.694   6.206 -0.9376 -0.4119  0.0844
   25MOL    N56 4904   5.205   0.831   6.179  0.6170 -0.3012 -0.1798
   25MOL    H57 4905   5.438   0.667   6.163  0.7621  2.0717 -2.8389
   25MOL    H58 4906   5.333   0.660   6.023 -1.5232 -0.4864 -0.1481
   25MOL    H59 4907   5.255   0.686   6.312  1.9812 -1.0573 -0.5671
   25MOL    H60 4908   5.142   0.634   6.187 -0.9852 -0.4032  0.2859
   25MOL    H61 4909   5.266   0.904   6.214 -1.3921  0.8452  1.0871
   25MOL    C62 4910   5.112   0.884   6.100  0.6921  0.8059 -0.0267
   25MOL    O63 4911   5.027   0.812   6.045  0.0072  0.5812  0.4880
   25MOL    C64 4912   5.119   1.040   6.092  0.6722  0.1384 -0.6877
   25MOL    C65 4913   4.985   1.101   6.061  0.3317  0.0796  0.0369
   25MOL    N66 4914   4.945   1.099   5.922  0.3468 -0.5061  0.2346
   25MOL    H67 4915   5.159   1.066   6.190  1.2586 -0.2292 -0.8270
   25MOL    H68 4916   5.192   1.080   6.021  0.2233  1.3859 -0.4614
   25MOL    H69 4917   4.918   1.041   6.123 -0.6761 -1.0709 -2.1091
   25MOL    H70 4918   4.977   1.201   6.105 -0.0253  0.0799 -0.0219
   25MOL    H71 4919   5.015   1.096   5.850 -0.1475 -1.3511 -0.2273
   25MOL    C72 4920   4.828   1.059   5.879  0.4743 -0.0898  0.5939
   25MOL    O73 4921   4.738   1.035   5.955 -0.0946  0.2457 -0.0904
   25MOL    C74 4922   4.799   1.060   5.734 -0.6548 -0.4859 -0.4223
   25MOL    C75 4923   4.773   0.919   5.679  0.2286 -0.0334  0.2250
   25MOL    N76 4924   4.647   0.865   5.713  0.2583  0.1401  0.4270
   25MOL    H77 4925   4.708   1.115   5.710 -1.0037  0.8936  3.5964
   25MOL    H78 4926   4.881   1.107   5.679  0.4127 -0.9092  0.7852
   25MOL    H79 4927   4.783   0.926   5.571 -1.3086  1.7128  0.1752
   25MOL    H80 4928   4.847   0.845   5.711  0.0773  0.5584  1.9708
   25MOL    H81 4929   4.633   0.867   5.813 -0.8857 -2.6653  0.3828
   25MOL    C82 4930   4.560   0.803   5.634  0.2606 -0.5088 -0.1348
   25MOL    O83 4931   4.464   0.749   5.684  0.5236  0.5126  0.0174
   25MOL    C84 4932   4.597   0.777   5.484  0.2659 -0.2978 -0.1583
   25MOL    C85 4933   4.487   0.721   5.392  0.1924  0.3187 -0.6485
   25MOL    N86 4934   4.543   0.626   5.296  0.3432  0.0804 -0.1276
   25MOL    H87 4935   4.624   0.870   5.435 -0.3320  1.0890  2.0374
   25MOL    H88 4936   4.697   0.733   5.482  0.0865 -0.6590 -3.4760
   25MOL    H89 4937   4.406   0.676   5.449  0.2940  1.6049  0.5121
   25MOL    H90 4938   4.441   0.794   5.326  0.8912  0.4292 -1.0262
   25MOL    H91 4939   4.590   0.669   5.217 -0.4014 -2.0925 -1.8054
   25MOL    C92 4940   4.542   0.490   5.306  0.6414 -0.0932  0.0423
   25MOL    O93 4941   4.575   0.420   5.210  0.4554 -0.2485 -0.1085
   25MOL    C94 4942   4.502   0.422   5.431 -0.6335 -0.6696 -0.0636
   25MOL    C95 4943   4.608   0.432   5.536 -0.1414 -0.2076 -0.2096
   25MOL    N96 4944   4.587   0.347   5.652  0.3906  0.8158  0.2800
   25MOL    H97 4945   4.404   0.450   5.468 -0.0826  2.2926 -0.7302
   25MOL    H98 4946   4.496   0.317   5.401  2.4732 -0.6437 -0.9229
   25MOL    H99 4947   4.711   0.416   5.503  0.1721 -1.0106  1.0802
   25MOL   H100 4948   4.597   0.532   5.578  1.0597 -0.6854  1.2889
   25MOL   H101 4949   4.540   0.388   5.731  0.2711  1.9391 -0.3767
   25MOL   C102 4950   4.644   0.224   5.668  0.3810 -0.0696  0.2205
   25MOL   O103 4951   4.689   0.160   5.578  0.2392 -0.0554  0.0683
   25MOL   C104 4952   4.660   0.181   5.814 -0.3323 -0.4564  0.3015
   25MOL   C105 4953   4.536   0.133   5.892  0.3362  0.1806 -0.1707
   25MOL   N106 4954   4.468   0.257   5.944 -0.6627  0.3014  0.1078
   25MOL   H107 4955   4.715   0.255   5.872 -0.1193 -0.0658 -0.3982
   25MOL   H108 4956   4.737   0.106   5.830  1.2282  1.1408  0.4803
   25MOL   H109 4957   4.469   0.068   5.836  1.0169  0.4872 -1.3833
   25MOL   H110 4958   4.582   0.077   5.973  0.4162 -0.0778 -0.3909
   25MOL   H111 4959   4.512   0.348   5.933 -0.4196  0.0618 -0.9063
   25MOL   C112 4960   4.362   0.260   6.025 -0.4371  0.4413  0.1058
   25MOL   O113 4961   4.328   0.151   6.064  0.7443 -0.3484  0.0229
   25MOL   C114 4962   4.287   0.391   6.060  0.4381 -0.1554  0.2055
   25MOL   C115 4963   4.229   0.414   6.203 -0.1331 -0.0140 -0.8064
   25MOL   N116 4964   4.324   0.503   6.271  0.4988  0.6958  0.6457
   25MOL   H117 4965   4.210   0.411   5.985 -1.1087  0.8254  2.0166
   25MOL   H118 4966   4.359   0.467   6.030 -0.7790  0.4470 -1.2586
   25MOL   H119 4967   4.142   0.479   6.197 -1.7262 -1.9880  0.2100
   25MOL   H120 4968   4.217   0.321   6.259  0.7313 -0.6669 -1.7069
   25MOL   H121 4969   4.305   0.602   6.266 -1.1992  0.3900  0.4409
   25MOL   C122 4970   4.429   0.472   6.346 -0.5047 -0.2463 -0.2305
   25MOL   O123 4971   4.471   0.361   6.367 -0.1401  0.4789 -0.2237
   25MOL   C124 4972   4.502   0.587   6.408 -1.1407 -0.3510 -1.0308
   25MOL   C125 4973   4.529   0.572   6.556  0.4096  0.2764 -0.2003
   25MOL   N126 4974   4.414   0.564   6.645 -0.9456 -0.8094 -0.4123
   25MOL   H127 4975   4.451   0.681   6.387 -0.2042  0.4094  0.0446
   25MOL   H128 4976   4.603   0.584   6.369 -0.7986 -0.4513 -0.1526
   25MOL   H129 4977   4.594   0.486   6.571 -0.3148 -0.2908 -0.2802
   25MOL   H130 4978   4.589   0.655   6.593  3.0061 -0.3502 -2.7810
   25MOL   H131 4979   4.343   0.631   6.619 -0.5799 -0.6294 -0.9480
   25MOL   C132 4980   4.408   0.508   6.767 -0.5248  0.0235  0.3553
   25MOL   O133 4981   4.503   0.456   6.823 -0.1133 -0.1684 -0.2428
   25MOL   C134 4982   4.273   0.510   6.835  0.8588 -0.0612  0.4134
   25MOL   C135 4983   4.252   0.639   6.913 -0.1458 -0.5031  0.7053
   25MOL   N136 4984   4.332   0.653   7.032  0.0227 -0.5707 -0.0229
   25MOL   H137 4985   4.256   0.413   6.881  2.3361 -0.3997  0.2964
   25MOL   H138 4986   4.203   0.504   6.752 -0.4187  0.1701  1.4622
   25MOL   H139 4987   4.260   0.726   6.849 -1.4092 -2.0783 -1.6505
   25MOL   H140 4988   4.145   0.635   6.935 -0.7098 -0.2155 -1.9232
   25MOL   H141 4989   4.393   0.580   7.065 -0.4481 -0.2098  1.7335
   25MOL   C142 4990   4.351   0.769   7.095  0.1579  0.0645 -0.0912
   25MOL   O143 4991   4.285   0.866   7.064  0.6008 -0.3345 -0.7520
   25MOL   C144 4992   4.468   0.772   7.187 -0.1979 -0.7145 -0.4326
   25MOL   C145 4993   4.471   0.910   7.266  0.0096  0.1449  0.2576
   25MOL   N146 4994   4.569   0.904   7.374 -0.1671  0.6466 -0.7145
   25MOL   H147 4995   4.561   0.752   7.132  0.5455 -4.0548  1.9248
   25MOL   H148 4996   4.459   0.693   7.261 -2.0258 -0.3732 -0.2659
   25MOL   H149 4997   4.505   0.984   7.194  2.3878 -1.5530 -0.4505
   25MOL   H150 4998   4.369   0.927   7.299 -0.1957  1.2707 -0.9224
   25MOL   H151 4999   4.532   0.884   7.466  0.7865  0.2875 -0.4097
   25MOL   C152 5000   4.698   0.913   7.356  0.4681  0.5169  0.1551
   25MOL   O153 5001   4.751   0.936   7.252  0.1973  0.5573 -0.1402
   25MOL   C154 5002   4.776   0.856   7.478  0.3605 -0.0451 -0.5151
   25MOL   C155 5003   4.922   0.911   7.483  0.3070 -0.9136  0.2814
   25MOL   N156 5004   4.937   1.008   7.586 -0.0222  0.9347 -0.5137
   25MOL   H157 5005   4.791   0.749   7.465  2.1012  0.0113  0.9207
   25MOL   H158 5006   4.719   0.856   7.571  3.1616  1.1807  1.2606
   25MOL   H159 5007   4.980   0.831   7.528 -1.7283 -1.7921  1.4193
   25MOL   H160 5008   4.963   0.940   7.386  0.8397  0.5062  0.9215
   25MOL   H161 5009   4.916   0.976   7.679  1.4289 -0.3037 -0.6001
   25MOL   C162 5010   4.992   1.130   7.560  0.5357  0.5141 -0.8632
   25MOL   O163 5011   5.019   1.167   7.450 -0.2897  0.3387 -0.3599
   25MOL   C164 5012   5.010   1.227   7.675 -0.0725  0.0969  0.0002
   25MOL   C165 5013   5.107   1.344   7.641  0.6445  0.3723 -0.3602
   25MOL   N166 5014   5.122   1.440   7.754  0.2080 -0.2277  0.6605
   25MOL   H167 5015   5.042   1.163   7.757  0.7716  0.7622  0.2011
   25MOL   H168 5016   4.911   1.273   7.689 -0.1913 -0.5781  1.4668
   25MOL   H169 5017   5.207   1.315   7.610 -0.6905  1.5192 -6.4229
   25MOL   H170 5018   5.079   1.396   7.549 -0.9642  1.8334  0.9153
   25MOL   H171 5019   5.058   1.518   7.761  0.2727 -0.1077 -0.0873
   25MOL   C172 5020   5.211   1.419   0.066  0.6061  0.1965 -0.9492
   25MOL   O173 5021   5.283   1.322   0.062  0.0683  0.1233 -0.0083
   25MOL   C174 5022   5.201   1.504   0.193 -0.5520  0.4131  0.1169
   25MOL   C175 5023   5.331   1.578   0.214  0.9729 -0.2493 -0.8797
   25MOL   N176 5024   5.434   1.486   0.268 -0.5080  0.2142 -0.1179
   25MOL   H177 5025   5.169   1.451   0.283 -2.3428  0.7046 -0.3227
   25MOL   H178 5026   5.130   1.586   0.179 -2.7841 -1.5902 -0.5378
   25MOL   H179 5027   5.360   1.635   0.126 -0.1022  1.3907 -0.1932
   25MOL   H180 5028   5.309   1.655   0.288  0.4618 -0.1745 -1.1080
   25MOL   H181 5029   5.420   1.395   0.226  0.7789  0.7821 -1.8341
   25MOL   C182 5030   5.537   1.521   0.344 -0.2313  0.0161  0.3214
   25MOL   O183 5031   5.549   1.636   0.390 -0.2522  0.1238 -0.2400
   25MOL   C184 5032   5.631   1.413   0.393 -1.0352  0.3942 -0.2008
   25MOL   C185 5033   5.779   1.440   0.357  0.4171  0.0220 -0.0948
   25MOL   N186 5034   5.816   1.403   0.223 -0.3397 -0.4658  0.5875
   25MOL   H187 5035   5.599   1.314   0.360  2.2895 -1.1215  0.9331
   25MOL   H188 5036   5.630   1.419   0.502 -1.3438  0.2087 -0.1932
   25MOL   H189 5037   5.785   1.547   0.376 -0.8512  0.3192 -1.3656
   25MOL   H190 5038   5.857   1.389   0.415  0.9195  2.0610  1.0768
   25MOL   H191 5039   5.748   1.352   0.169 -1.4519 -0.4407  1.9476
   25MOL   C192 5040   5.916   1.464   0.152 -0.0335  0.2913 -0.3877
   25MOL   O193 5041   6.001   1.530   0.204 -0.4346 -0.2462 -0.4907
   25MOL   C194 5042   5.908   1.438   7.776  0.6699 -1.0410 -0.3891
   25MOL   C195 5043   6.038   1.375   7.724 -0.0169  0.0634  0.1019
   25MOL   N196 5044   6.143   1.472   7.713  0.9613 -0.4817  0.3903
   25MOL   H197 5045   5.822   1.375   7.753  0.9677 -1.6844  0.2421
   25MOL   H198 5046   5.894   1.532   7.721  0.4035 -0.2455  1.0231
   25MOL   H199 5047   6.070   1.297   0.013 -0.8629  0.1053  0.5477
   25MOL   H200 5048   6.017   1.334   7.626 -0.5873 -0.5140  0.4618
   25MOL   H201 5049   6.235   1.433   7.698  1.0908  0.3450 -1.1097
   25MOL   H202 5050   6.152   1.522   0.020  1.7357 -1.6457  0.9976
   26MOL     C1 5051   4.174   6.300   5.077  0.2191  0.0901 -0.9854
   26MOL     O2 5052   4.071   6.267   5.134  0.1244  0.4505  0.0017
   26MOL     C3 5053   4.222   6.443   5.094 -0.1316  0.3567 -0.1312
   26MOL     C4 5054   4.121   6.561   5.096  0.5651  0.0196 -0.0888
   26MOL     N5 5055   4.184   6.690   5.128 -0.0984  0.1191  0.0736
   26MOL     H6 5056   4.300   6.470   5.023 -0.0948 -1.2014 -0.7156
   26MOL     H7 5057   4.279   6.440   5.187 -0.1351  3.3251  0.0051
   26MOL     H8 5058   4.041   6.537   5.166 -0.6551  2.0079 -0.7638
   26MOL     H9 5059   4.066   6.552   5.002  0.8996 -2.7802 -0.0326
   26MOL    H10 5060   4.179   6.755   5.051  2.5058 -0.2552 -0.4622
   26MOL    H11 5061   4.240   6.231   5.025 -0.1182 -1.8252  1.0495
   26MOL    C12 5062   4.252   6.734   5.234 -0.1882  1.1037  0.0182
   26MOL    O13 5063   4.285   6.668   5.331 -0.6692 -0.4194 -0.0734
   26MOL    C14 5064   4.291   6.883   5.238 -0.2148 -0.3248  0.6668
   26MOL    C15 5065   4.189   6.973   5.301 -0.0121  0.3913  0.3960
   26MOL    N16 5066   4.238   7.112   5.307 -0.3212  0.8307 -0.3193
   26MOL    H17 5067   4.310   6.915   5.135 -1.7041  0.7288  0.7111
   26MOL    H18 5068   4.385   6.888   5.292  0.5192  1.6718 -0.7412
   26MOL    H19 5069   4.107   6.970   5.229  1.4885  0.0448 -1.3327
   26MOL    H20 5070   4.151   6.945   5.400  0.6650  0.8374  0.7835
   26MOL    H21 5071   4.334   7.113   5.339  0.0395  0.0635 -1.3198
   26MOL    C22 5072   4.177   7.222   5.275 -0.3558  0.1206  0.3268
   26MOL    O23 5073   4.062   7.217   5.235 -0.7274 -0.6010  0.5510
   26MOL    C24 5074   4.258   7.357   5.278 -0.0975  0.2413 -0.2167
   26MOL    C25 5075   4.236   7.461   5.166 -0.5855 -0.6912 -0.2306
   26MOL    N26 5076   4.091   7.504   5.144  0.3613  1.0134 -0.6011
   26MOL    H27 5077   4.366   7.343   5.289 -0.1866 -1.5622 -1.4098
   26MOL    H28 5078   4.227   7.397   5.374 -0.3235  1.0170 -0.6076
   26MOL    H29 5079   4.289   7.552   5.194 -0.0042 -1.4134  1.0511
   26MOL    H30 5080   4.284   7.435   5.072 -2.7576  1.6289 -2.0401
   26MOL    H31 5081   4.031   7.423   5.145  0.9237  0.5575 -2.2702
   26MOL    C32 5082   4.046   7.619   5.100  0.0778  0.1726 -0.4122
   26MOL    O33 5083   4.127   7.703   5.060  0.3940  0.1368 -0.1859
   26MOL    C34 5084   3.897   7.635   5.112 -0.0720 -0.2332  0.7113
   26MOL    C35 5085   3.839   7.638   4.975 -0.3077  0.3565 -0.2432
   26MOL    N36 5086   3.806   7.499   4.933  0.1552  0.2979 -0.1819
   26MOL    H37 5087   3.883   7.731   5.162  1.6997  0.0385  0.7289
   26MOL    H38 5088   3.851   7.564   5.180 -0.0030  0.1145  1.1279
   26MOL    H39 5089   3.748   7.697   4.981 -1.8358 -2.0067  0.7436
   26MOL    H40 5090   3.900   7.684   4.897  2.0164  1.2424  2.0462
   26MOL    H41 5091   3.866   7.449   4.868 -0.2841 -0.1260 -0.2681
   26MOL    C42 5092   3.695   7.431   4.959  1.0245 -0.0341  0.3048
   26MOL    O43 5093   3.620   7.464   5.050  0.1085 -0.1719  0.0937
   26MOL    C44 5094   3.663   7.296   4.884  0.0134  0.0992  0.7302
   26MOL    C45 5095   3.573   7.312   4.761  0.5777 -0.0591  0.2305
   26MOL    N46 5096   3.637   7.357   4.640 -0.0628 -0.0644  0.2158
   26MOL    H47 5097   3.754   7.243   4.855  0.5515  0.6306  1.4061
   26MOL    H48 5098   3.608   7.235   4.956  0.8113 -3.0744 -1.2595
   26MOL    H49 5099   3.523   7.220   4.731 -0.3276  0.2035  0.8927
   26MOL    H50 5100   3.503   7.394   4.779  0.8522  0.2543 -0.1253
   26MOL    H51 5101   3.657   7.456   4.627 -1.7081  0.2570  0.0158
   26MOL    C52 5102   3.701   7.283   4.549 -0.3268 -0.1339 -0.5661
   26MOL    O53 5103   3.692   7.155   4.552  0.4174  0.3537 -0.2002
   26MOL    C54 5104   3.802   7.344   4.452  0.1603 -0.3058 -0.1712
   26MOL    C55 5105   3.918   7.251   4.408  0.5077  1.1210  0.2642
   26MOL    N56 5106   4.004   7.332   4.321 -0.4500 -0.3448 -0.6967
   26MOL    H57 5107   3.735   7.377   4.372  0.5413 -1.2374 -0.8910
   26MOL    H58 5108   3.844   7.430   4.503  1.5384 -0.8839 -0.3079
   26MOL    H59 5109   3.877   7.175   4.342  0.8819  0.9787  0.1982
   26MOL    H60 5110   3.977   7.211   4.489 -0.2680  0.1281  0.3437
   26MOL    H61 5111   3.965   7.400   4.257  1.3457  0.9786 -0.4305
   26MOL    C62 5112   4.136   7.313   4.301  0.0596  0.2414  0.6369
   26MOL    O63 5113   4.195   7.214   4.350  0.1905  0.6304  0.5153
   26MOL    C64 5114   4.208   7.420   4.227 -0.0991  0.1582  0.2756
   26MOL    C65 5115   4.303   7.502   4.319 -0.1949  0.1250  0.1560
   26MOL    N66 5116   4.425   7.418   4.357  0.1032  0.4742  0.0366
   26MOL    H67 5117   4.262   7.371   4.146  0.5982  2.1456 -0.4905
   26MOL    H68 5118   4.137   7.482   4.172 -2.0785  0.2850  2.8543
   26MOL    H69 5119   4.330   7.598   4.276 -2.6547  0.8751  0.1979
   26MOL    H70 5120   4.258   7.530   4.414  0.4896  2.7918 -0.2823
   26MOL    H71 5121   4.399   7.346   4.423  2.2950 -1.8905 -1.5999
   26MOL    C72 5122   4.554   7.414   4.318  0.1401  0.6547  0.6517
   26MOL    O73 5123   4.606   7.511   4.253 -0.1093  0.6548  0.3854
   26MOL    C74 5124   4.634   7.292   4.344  0.2963 -0.4153  0.4305
   26MOL    C75 5125   4.768   7.338   4.407 -0.2050 -0.0909 -0.3531
   26MOL    N76 5126   4.867   7.231   4.417 -0.1228  0.2279  0.4020
   26MOL    H77 5127   4.582   7.236   4.422  1.7038  0.4664  2.0106
   26MOL    H78 5128   4.646   7.234   4.253  0.3331  0.2320  0.0169
   26MOL    H79 5129   4.811   7.406   4.333  0.2703  0.7406  0.6717
   26MOL    H80 5130   4.746   7.400   4.494 -2.3488 -0.4741 -0.5970
   26MOL    H81 5131   4.853   7.141   4.372  1.3635 -0.7612  1.8539
   26MOL    C82 5132   4.994   7.228   4.456 -0.3266 -0.3030  0.0718
   26MOL    O83 5133   5.057   7.119   4.458  0.0626  0.2894  0.6076
   26MOL    C84 5134   5.054   7.344   4.535 -0.2940 -0.4764 -0.2640
   26MOL    C85 5135   5.161   7.430   4.458 -0.1287 -0.7197  0.0137
   26MOL    N86 5136   5.288   7.356   4.428 -0.3318  0.5046 -0.2967
   26MOL    H87 5137   4.973   7.404   4.576 -0.2316 -1.2774  1.0664
   26MOL    H88 5138   5.096   7.300   4.626 -0.4457 -2.2535 -1.0269
   26MOL    H89 5139   5.121   7.477   4.368 -0.5518 -0.9738  0.0664
   26MOL    H90 5140   5.184   7.513   4.524 -0.8250 -0.8696  0.4538
   26MOL    H91 5141   5.349   7.354   4.508  2.0863  0.8443 -2.0643
   26MOL    C92 5142   5.320   7.280   4.319  0.2073 -0.4954 -0.4287
   26MOL    O93 5143   5.243   7.265   4.218  0.0150  0.0859  0.4599
   26MOL    C94 5144   5.464   7.230   4.303 -0.0008  0.1155  0.4597
   26MOL    C95 5145   5.476   7.077   4.328  0.0395  0.2329 -0.1018
   26MOL    N96 5146   5.610   7.030   4.297  0.2708  0.9543  0.2346
   26MOL    H97 5147   5.489   7.249   4.199  0.9720 -0.2367  0.6223
   26MOL    H98 5148   5.524   7.272   4.383 -1.3868  0.3069  1.4272
   26MOL    H99 5149   5.447   7.059   4.431 -0.8546 -0.2127 -0.4159
   26MOL   H100 5150   5.404   7.031   4.259 -1.3608  3.0617 -0.5833
   26MOL   H101 5151   5.675   7.083   4.242 -0.4008  0.4133 -1.1017
   26MOL   C102 5152   5.657   6.910   4.324 -0.3016  0.0329  0.0714
   26MOL   O103 5153   5.601   6.829   4.395 -0.3630  0.7069  0.5126
   26MOL   C104 5154   5.794   6.879   4.259  0.5705 -0.6363  0.3023
   26MOL   C105 5155   5.855   6.740   4.270 -1.3930  0.6105 -0.4052
   26MOL   N106 5156   6.000   6.735   4.235 -0.6019 -0.2910 -0.2506
   26MOL   H107 5157   5.851   6.956   4.312  2.3845 -0.3224 -2.0040
   26MOL   H108 5158   5.783   6.906   4.154  0.0572 -1.5938  0.1126
   26MOL   H109 5159   5.845   6.709   4.374  0.1341 -1.9681 -0.9748
   26MOL   H110 5160   5.798   6.664   4.217  0.0317 -0.7878  0.0170
   26MOL   H111 5161   6.067   6.731   4.311  0.1016  1.0466 -0.7819
   26MOL   C112 5162   6.049   6.766   4.112  0.3516  0.1169  0.1903
   26MOL   O113 5163   5.975   6.802   4.019 -0.3096  0.0957 -0.1476
   26MOL   C114 5164   6.202   6.772   4.091  0.6568 -0.2375  0.2222
   26MOL   C115 5165   6.257   6.696   3.972 -0.0570 -0.0312 -0.6416
   26MOL   N116 5166   6.228   6.552   3.986  0.0493 -0.2572  0.0012
   26MOL   H117 5167   6.252   6.729   4.178 -2.7929 -1.4531  1.6812
   26MOL   H118 5168   6.233   6.876   4.081 -1.1155  0.2857 -0.0407
   26MOL   H119 5169   6.210   6.742   3.885 -0.9993  1.0158  0.4014
   26MOL   H120 5170   6.365   6.703   3.955  0.0448  0.0358  0.0035
   26MOL   H121 5171   6.238   6.514   4.079 -1.3503  1.5122  0.9225
   26MOL   C122 5172   6.218   6.473   3.876 -0.1750  0.2405  0.6010
   26MOL   O123 5173   6.211   6.526   3.765  0.7633  0.3570  0.1048
   26MOL   C124 5174   6.203   6.319   3.890  0.1924  0.3648 -0.3295
   26MOL   C125 5175   6.332   6.247   3.860  0.0172 -0.1970  0.1579
   26MOL   N126 5176   6.429   6.284   3.958 -0.3385  0.4698  0.2598
   26MOL   H127 5177   6.121   6.280   3.831 -0.5184 -0.1467  0.9779
   26MOL   H128 5178   6.178   6.304   3.995 -1.9693  0.4573 -0.8110
   26MOL   H129 5179   6.328   6.139   3.870  1.5179 -0.3089 -0.3166
   26MOL   H130 5180   6.360   6.279   3.760  4.8870  2.5681  2.1745
   26MOL   H131 5181   6.404   6.275   4.056  0.1602 -0.2001  0.3341
   26MOL   C132 5182   6.553   6.325   3.934 -0.1299 -1.4430 -0.1091
   26MOL   O133 5183   6.602   6.316   3.823 -0.6645  0.6733  0.3331
   26MOL   C134 5184   6.630   6.378   4.053 -0.2183 -0.7433  0.2919
   26MOL   C135 5185   6.782   6.392   4.029  0.5233  0.1855  0.1587
   26MOL   N136 5186   6.863   6.373   4.146 -0.6122  0.3820  0.1047
   26MOL   H137 5187   6.617   6.312   4.139  2.0525 -0.1168  1.1628
   26MOL   H138 5188   6.590   6.475   4.083  1.2416  0.1809 -0.6687
   26MOL   H139 5189   6.808   6.315   3.957  1.7085  0.4971  0.2402
   26MOL   H140 5190   6.819   6.480   3.977  2.5422 -1.6477 -1.6203
   26MOL   H141 5191   6.817   6.362   4.235 -2.2056 -1.2032 -0.8757
   26MOL   C142 5192   6.993   6.371   4.147  0.5566  0.3310  0.2922
   26MOL   O143 5193   7.063   6.397   4.051  0.1512 -0.3090 -0.1102
   26MOL   C144 5194   7.059   6.327   4.284  0.5631  0.0694  0.5527
   26MOL   C145 5195   7.196   6.258   4.274 -0.2473 -0.4668 -0.0790
   26MOL   N146 5196   7.181   6.130   4.212  0.0949  0.4117  0.4576
   26MOL   H147 5197   6.982   6.263   4.329  0.7586 -0.6086 -0.0577
   26MOL   H148 5198   7.071   6.411   4.352 -0.1186 -0.2832  1.1208
   26MOL   H149 5199   7.275   6.310   4.219 -0.4043 -1.4661 -1.2871
   26MOL   H150 5200   7.233   6.245   4.375 -0.8596  0.8989  0.3343
   26MOL   H151 5201   7.096   6.108   4.163 -0.2459  0.4805  1.0157
   26MOL   C152 5202   7.274   6.040   4.214  0.2767  0.0654  0.3166
   26MOL   O153 5203   7.385   6.063   4.252 -0.7043 -0.5144 -0.0681
   26MOL   C154 5204   7.245   5.906   4.141 -0.0716  0.5154  0.1013
   26MOL   C155 5205   7.244   5.784   4.239 -0.6104 -0.6885  0.3389
   26MOL   N156 5206   7.228   5.657   4.175 -0.6352 -0.6316 -0.4522
   26MOL   H157 5207   7.328   5.894   4.071 -0.2738  4.4615 -0.9220
   26MOL   H158 5208   7.154   5.910   4.081  0.0322  2.7235  0.0630
   26MOL   H159 5209   7.342   5.787   4.286 -0.3572  0.5253 -0.2508
   26MOL   H160 5210   7.164   5.801   4.311 -0.2233  0.3956  0.5273
   26MOL   H161 5211   7.308   5.597   4.160 -0.2285 -0.1897 -0.0692
   26MOL   C162 5212   7.113   5.620   4.117 -0.4981 -1.5575 -0.4874
   26MOL   O163 5213   7.003   5.677   4.134 -0.3857 -0.4433 -0.0489
   26MOL   C164 5214   7.117   5.500   4.025 -0.0005 -0.3146 -0.4302
   26MOL   C165 5215   6.983   5.464   3.951  0.5257 -0.3300  0.2678
   26MOL   N166 5216   7.008   5.388   3.828 -0.3190 -0.1267  0.3257
   26MOL   H167 5217   7.160   5.418   4.082  0.2007 -0.0766 -0.2405
   26MOL   H168 5218   7.189   5.540   3.953 -0.3678 -2.4154 -2.0302
   26MOL   H169 5219   6.910   5.415   4.016 -0.0364 -0.4104 -0.4125
   26MOL   H170 5220   6.940   5.561   3.926  2.1975  1.1032  2.8165
   26MOL   H171 5221   6.987   5.290   3.838 -2.7482  0.3033 -0.3648
   26MOL   C172 5222   7.070   5.440   3.720  0.6232  0.0409  0.1346
   26MOL   O173 5223   7.111   5.555   3.715  0.8832 -0.4927  0.2464
   26MOL   C174 5224   7.096   5.357   3.599 -0.2284  0.1062 -0.6606
   26MOL   C175 5225   7.000   5.363   3.476 -0.3548  0.5801 -0.1433
   26MOL   N176 5226   6.978   5.490   3.412  0.4061 -0.7547 -0.0638
   26MOL   H177 5227   7.093   5.252   3.626  3.1548 -0.4413 -2.0925
   26MOL   H178 5228   7.199   5.377   3.567  0.5653  0.6144  2.0676
   26MOL   H179 5229   7.030   5.289   3.402  0.5121 -1.4653  2.1978
   26MOL   H180 5230   6.903   5.327   3.510  1.3544 -3.8934  0.2879
   26MOL   H181 5231   7.055   5.530   3.361  0.0594  0.1486  0.1090
   26MOL   C182 5232   6.864   5.566   3.425 -0.9042  0.1488 -0.3099
   26MOL   O183 5233   6.762   5.521   3.475  0.2552  0.2734 -0.3106
   26MOL   C184 5234   6.883   5.709   3.381 -0.2839 -0.2047 -0.3969
   26MOL   C185 5235   6.852   5.815   3.489 -0.7191 -0.4035 -1.8433
   26MOL   N186 5236   6.943   5.814   3.603 -0.0944  0.2730  0.4418
   26MOL   H187 5237   6.828   5.730   3.290 -1.8573  0.2855  0.6308
   26MOL   H188 5238   6.986   5.735   3.357 -0.5162 -0.3330 -1.5566
   26MOL   H189 5239   6.859   5.910   3.437  2.0217  0.5449  0.1457
   26MOL   H190 5240   6.748   5.804   3.521 -0.5709 -0.0864 -1.2551
   26MOL   H191 5241   6.962   5.719   3.633 -0.3534  0.5998  1.6641
   26MOL   C192 5242   6.980   5.921   3.676  0.4916 -0.2683  0.3709
   26MOL   O193 5243   6.924   6.031   3.658  0.7417  0.5107  0.4049
   26MOL   C194 5244   7.098   5.908   3.774 -0.2501  0.2857 -0.2320
   26MOL   C195 5245   7.183   6.029   3.798 -0.0729 -0.4423 -0.6667
   26MOL   N196 5246   7.252   6.073   3.677 -0.2609  0.2690  0.4608
   26MOL   H197 5247   7.062   5.871   3.869  1.1862 -0.4358  0.0523
   26MOL   H198 5248   7.158   5.824   3.738 -2.0357 -1.3995  0.6241
   26MOL   H199 5249   7.125   6.115   3.830 -0.9885 -1.7162  1.1657
   26MOL   H200 5250   7.254   6.012   3.879  0.4108 -0.3386 -1.0693
   26MOL   H201 5251   7.185   6.087   3.602 -2.9795  0.6587  2.8672
   26MOL   H202 5252   7.290   6.166   3.674  1.4486 -0.4540 -3.1977
   27MOL     C1 5253   5.018   1.760   3.052  0.4808 -0.3362  0.0927
   27MOL     O2 5254   5.120   1.789   2.986 -0.3997  0.1022 -0.5517
   27MOL     C3 5255   4.929   1.645   2.998  0.3153 -0.0119 -0.5060
   27MOL     C4 5256   4.908   1.530   3.103  0.0352 -0.4410 -0.4855
   27MOL     N5 5257   4.808   1.566   3.206 -0.3462 -0.2271  0.5312
   27MOL     H6 5258   4.985   1.603   2.915 -0.5372 -2.2968  0.0348
   27MOL     H7 5259   4.842   1.696   2.958  0.3107 -0.0020 -0.4833
   27MOL     H8 5260   5.007   1.502   3.139  0.3685  0.1015 -0.9498
   27MOL     H9 5261   4.891   1.432   3.059  1.6864 -1.3418  0.8381
   27MOL    H10 5262   4.761   1.653   3.187  1.1626  0.2386 -1.2436
   27MOL    H11 5263   4.987   1.818   3.138 -2.1265  0.8461 -1.5920
   27MOL    C12 5264   4.751   1.478   3.288  0.2692 -0.5313 -0.7527
   27MOL    O13 5265   4.796   1.363   3.294 -0.2984  0.3366 -0.8130
   27MOL    C14 5266   4.627   1.524   3.363 -0.9002 -0.2104 -0.2527
   27MOL    C15 5267   4.587   1.671   3.352  0.7649 -0.6271  0.4178
   27MOL    N16 5268   4.511   1.709   3.235  0.3410  0.2012 -0.0132
   27MOL    H17 5269   4.657   1.495   3.464 -1.9817 -1.7865 -0.3563
   27MOL    H18 5270   4.545   1.453   3.347 -0.4689 -0.4706 -1.3321
   27MOL    H19 5271   4.519   1.692   3.435 -0.9917 -1.0496 -0.8918
   27MOL    H20 5272   4.671   1.738   3.366  0.2923  0.3193 -1.1439
   27MOL    H21 5273   4.413   1.686   3.238  0.2770  0.5432  0.5514
   27MOL    C22 5274   4.561   1.778   3.132 -0.2033  0.5627  0.3589
   27MOL    O23 5275   4.673   1.824   3.124 -0.1200  0.2213  0.3899
   27MOL    C24 5276   4.456   1.808   3.020  0.2858 -0.2365 -0.7328
   27MOL    C25 5277   4.386   1.673   2.974  1.9503 -0.0785  0.3169
   27MOL    N26 5278   4.487   1.584   2.913  0.6336 -0.1216 -0.1325
   27MOL    H27 5279   4.494   1.869   2.939  0.4465 -1.5962 -1.6902
   27MOL    H28 5280   4.384   1.863   3.082  1.4530 -1.5228  1.8548
   27MOL    H29 5281   4.322   1.634   3.053 -0.8395  1.8651 -0.9061
   27MOL    H30 5282   4.314   1.692   2.894  1.5759 -1.7264  0.2518
   27MOL    H31 5283   4.550   1.615   2.840  1.0647  0.0566  0.3108
   27MOL    C32 5284   4.513   1.468   2.966  0.0135 -0.8395 -0.1268
   27MOL    O33 5285   4.457   1.414   3.065 -0.0449  0.4693 -0.0595
   27MOL    C34 5286   4.612   1.376   2.898 -0.0960 -0.2961  0.9145
   27MOL    C35 5287   4.653   1.252   2.981  0.0794 -0.5918 -0.0168
   27MOL    N36 5288   4.765   1.179   2.917 -0.1956 -0.1938  0.3718
   27MOL    H37 5289   4.694   1.443   2.871 -1.8338  0.2313 -3.6246
   27MOL    H38 5290   4.571   1.355   2.799 -0.9990  0.4670  1.1189
   27MOL    H39 5291   4.678   1.288   3.081 -2.1898  0.5748  0.1775
   27MOL    H40 5292   4.574   1.177   2.993  0.4336 -0.5977  2.7000
   27MOL    H41 5293   4.838   1.230   2.869 -0.8797 -0.4129 -0.9263
   27MOL    C42 5294   4.805   1.052   2.944 -0.0968 -0.2918 -0.0939
   27MOL    O43 5295   4.738   0.987   3.020 -0.8584 -0.2179 -0.3396
   27MOL    C44 5296   4.927   1.002   2.860 -0.2126 -0.5108 -0.3942
   27MOL    C45 5297   4.960   0.849   2.848 -0.3044  0.7163  0.6369
   27MOL    N46 5298   4.956   0.802   2.985 -0.2825  0.1066  0.5147
   27MOL    H47 5299   4.931   1.050   2.762 -0.2791 -0.3051 -0.2952
   27MOL    H48 5300   5.017   1.045   2.905 -0.3730  0.8356 -1.3233
   27MOL    H49 5301   4.885   0.806   2.782  1.7773 -1.6586 -0.3002
   27MOL    H50 5302   5.057   0.827   2.802 -0.1742  0.1331  1.1998
   27MOL    H51 5303   4.977   0.859   3.065  2.1544 -0.8241  0.6015
   27MOL    C52 5304   4.905   0.681   3.014  0.6880  0.2819 -0.2952
   27MOL    O53 5305   4.885   0.593   2.930 -0.0633  0.2693 -0.4487
   27MOL    C54 5306   4.886   0.659   3.165 -0.1704 -0.2827  0.0555
   27MOL    C55 5307   4.746   0.687   3.223  0.2604 -0.0969  0.6626
   27MOL    N56 5308   4.729   0.829   3.259  0.0931  0.0045  0.9592
   27MOL    H57 5309   4.905   0.553   3.182  0.0324 -0.4584 -1.2591
   27MOL    H58 5310   4.971   0.702   3.218 -0.4875 -0.5764  0.8072
   27MOL    H59 5311   4.719   0.613   3.299 -1.5127 -1.2513 -1.0360
   27MOL    H60 5312   4.673   0.656   3.148 -0.3582 -0.7258  1.4914
   27MOL    H61 5313   4.716   0.893   3.183 -0.4347  1.0120  1.8740
   27MOL    C62 5314   4.763   0.876   3.377  0.6188  0.1974 -0.2689
   27MOL    O63 5315   4.796   0.797   3.465  0.5348 -0.1135 -0.2489
   27MOL    C64 5316   4.745   1.027   3.401 -0.1401  0.7430  0.4607
   27MOL    C65 5317   4.806   1.075   3.538 -0.7586  0.4673 -0.1471
   27MOL    N66 5318   4.850   1.209   3.539  0.5638 -0.2762  0.5045
   27MOL    H67 5319   4.789   1.078   3.315 -1.3321 -1.0672 -1.2561
   27MOL    H68 5320   4.638   1.049   3.406 -0.2747  0.0968  0.4320
   27MOL    H69 5321   4.735   1.056   3.618 -0.1560  0.2860  0.3523
   27MOL    H70 5322   4.890   1.006   3.546  0.2442  1.4968 -1.4916
   27MOL    H71 5323   4.831   1.257   3.452 -0.0116  1.6204  1.6549
   27MOL    C72 5324   4.919   1.261   3.638 -0.2425  0.4099 -0.0976
   27MOL    O73 5325   4.939   1.199   3.745  0.2655  0.2207  0.0062
   27MOL    C74 5326   4.956   1.409   3.630 -0.0179  0.4123  0.0980
   27MOL    C75 5327   4.960   1.478   3.762  0.7180 -0.8845  0.1235
   27MOL    N76 5328   4.838   1.487   3.840 -0.1773 -0.3093  0.0176
   27MOL    H77 5329   5.056   1.413   3.586 -0.1910 -1.5291 -0.5373
   27MOL    H78 5330   4.896   1.465   3.558  0.6234 -0.4253 -1.1289
   27MOL    H79 5331   5.027   1.429   3.833  0.3972  0.3642  1.2897
   27MOL    H80 5332   4.995   1.578   3.738  0.1720 -0.5700  0.6362
   27MOL    H81 5333   4.823   1.426   3.919 -0.5361  0.2698  0.4061
   27MOL    C82 5334   4.729   1.562   3.808 -0.0710 -0.1345 -0.5177
   27MOL    O83 5335   4.715   1.623   3.707  0.2187 -0.5603  0.1795
   27MOL    C84 5336   4.625   1.556   3.916 -0.2430 -0.0789 -0.0198
   27MOL    C85 5337   4.634   1.676   4.022  0.3730  0.3122  0.3228
   27MOL    N86 5338   4.634   1.808   3.960  0.3472  0.0199 -0.0181
   27MOL    H87 5339   4.528   1.567   3.868 -0.7406  0.4440  1.0957
   27MOL    H88 5340   4.619   1.458   3.965 -0.6296 -0.2830 -0.4799
   27MOL    H89 5341   4.547   1.674   4.087 -1.2849 -0.9664 -1.8511
   27MOL    H90 5342   4.725   1.662   4.080  1.9412 -0.7965 -2.3173
   27MOL    H91 5343   4.726   1.849   3.955  0.9496 -1.2871  0.1089
   27MOL    C92 5344   4.535   1.861   3.886  0.4690 -0.2612  0.4839
   27MOL    O93 5345   4.431   1.799   3.864 -0.2003 -0.1673  0.1499
   27MOL    C94 5346   4.563   1.984   3.800  0.0694  0.0612 -0.2253
   27MOL    C95 5347   4.596   1.942   3.658 -0.4550 -0.0451  0.5150
   27MOL    N96 5348   4.729   1.884   3.641  0.0281  0.0481  0.5203
   27MOL    H97 5349   4.479   2.053   3.802 -0.4390 -0.5799  1.3698
   27MOL    H98 5350   4.651   2.039   3.834  0.8140 -0.6622 -0.9856
   27MOL    H99 5351   4.518   1.873   3.627 -1.3159  1.2815 -0.2696
   27MOL   H100 5352   4.585   2.027   3.591  3.7049  1.6528  1.7774
   27MOL   H101 5353   4.731   1.785   3.658 -3.0393 -0.3179 -0.9271
   27MOL   C102 5354   4.843   1.931   3.605  0.1840  0.6723  0.2939
   27MOL   O103 5355   4.852   2.047   3.564  0.8956 -0.6652 -0.1045
   27MOL   C104 5356   4.957   1.833   3.586 -0.5524 -0.6756 -0.1879
   27MOL   C105 5357   5.076   1.898   3.510 -0.2457  0.3522 -0.2146
   27MOL   N106 5358   5.191   1.815   3.528  0.5776 -0.0365  0.4981
   27MOL   H107 5359   4.927   1.747   3.526  0.1631 -0.3590 -1.0171
   27MOL   H108 5360   4.989   1.799   3.684  0.7506  1.8614  0.3129
   27MOL   H109 5361   5.059   1.921   3.404  0.4218  0.5688 -0.2794
   27MOL   H110 5362   5.100   1.998   3.546 -0.1812 -0.2781  1.4986
   27MOL   H111 5363   5.249   1.830   3.609 -2.5199 -0.7160  2.9053
   27MOL   C112 5364   5.229   1.724   3.430  0.3757  0.7219 -0.4575
   27MOL   O113 5365   5.174   1.703   3.325 -0.0387 -0.5604  0.9333
   27MOL   C114 5366   5.356   1.641   3.467 -0.3040  0.5149 -0.7874
   27MOL   C115 5367   5.334   1.483   3.466  0.4646  0.5150  0.4764
   27MOL   N116 5368   5.327   1.417   3.596 -0.3670  0.4731  0.4548
   27MOL   H117 5369   5.389   1.681   3.563 -0.9094 -0.3314 -0.2209
   27MOL   H118 5370   5.436   1.649   3.393 -0.3832  2.5089 -0.6797
   27MOL   H119 5371   5.244   1.462   3.409  1.6452  0.4579 -1.4406
   27MOL   H120 5372   5.410   1.444   3.398  0.0217  1.6965 -0.6987
   27MOL   H121 5373   5.324   1.479   3.676  0.7975  2.2337 -0.8046
   27MOL   C122 5374   5.313   1.289   3.626  0.0330 -0.4790 -0.7013
   27MOL   O123 5375   5.289   1.202   3.541 -0.0803  0.5320 -0.3815
   27MOL   C124 5376   5.324   1.255   3.773  0.0785  0.2897 -0.4244
   27MOL   C125 5377   5.277   1.114   3.813  0.3807 -0.7740 -0.4305
   27MOL   N126 5378   5.379   1.008   3.830  0.0352 -0.2911 -0.5822
   27MOL   H127 5379   5.284   1.338   3.831 -0.1524  0.4075 -0.7491
   27MOL   H128 5380   5.429   1.261   3.799 -0.1325  1.7722  0.1486
   27MOL   H129 5381   5.226   1.119   3.909 -1.2995  2.2505 -1.4327
   27MOL   H130 5382   5.206   1.079   3.739 -0.5206 -3.2195  1.5025
   27MOL   H131 5383   5.451   1.002   3.760 -0.1118 -2.2347 -0.6101
   27MOL   C132 5384   5.392   0.913   3.925  0.5312  0.7606  0.4541
   27MOL   O133 5385   5.318   0.901   4.023  0.0964 -0.4120 -0.5582
   27MOL   C134 5386   5.504   0.811   3.915  0.3937  0.2309  0.3174
   27MOL   C135 5387   5.465   0.664   3.952  0.0699  0.0256  0.2074
   27MOL   N136 5388   5.385   0.603   3.844 -0.1111 -0.2537  0.3700
   27MOL   H137 5389   5.573   0.842   3.993 -0.8707  2.8256  0.4876
   27MOL   H138 5390   5.551   0.839   3.820  0.3030  1.3016  0.5795
   27MOL   H139 5391   5.557   0.609   3.972 -0.1140 -0.8272 -1.1982
   27MOL   H140 5392   5.404   0.669   4.042 -0.4189  1.5675 -0.1984
   27MOL   H141 5393   5.285   0.591   3.854 -0.0116 -0.6337  0.9230
   27MOL   C142 5394   5.450   0.552   3.740 -0.9446 -0.2661 -0.7478
   27MOL   O143 5395   5.572   0.552   3.728  0.1958 -0.0020 -0.3627
   27MOL   C144 5396   5.360   0.506   3.625  0.9222  0.0958 -0.1805
   27MOL   C145 5397   5.432   0.407   3.523 -0.1568 -0.2308 -0.6888
   27MOL   N146 5398   5.466   0.278   3.572 -0.3967  0.2544 -0.5317
   27MOL   H147 5399   5.327   0.598   3.577 -2.7382 -0.9179  0.2931
   27MOL   H148 5400   5.268   0.466   3.666  0.8486 -0.3970 -0.8283
   27MOL   H149 5401   5.358   0.405   3.443 -0.3165  1.2776 -0.5765
   27MOL   H150 5402   5.515   0.459   3.475  1.8354 -0.6075  2.1862
   27MOL   H151 5403   5.563   0.254   3.590 -0.4675 -0.3940 -0.9874
   27MOL   C152 5404   5.382   0.182   3.588 -0.6514 -0.0754 -0.7053
   27MOL   O153 5405   5.258   0.205   3.569  0.5410  0.1805  0.2386
   27MOL   C154 5406   5.441   0.054   3.632 -0.2288  0.4933 -0.5163
   27MOL   C155 5407   5.441   0.037   3.789 -0.3790  0.1067 -0.5066
   27MOL   N156 5408   5.497   0.140   3.875  0.0215 -0.6640  0.1238
   27MOL   H157 5409   5.539   0.038   3.588 -0.9537  2.6792 -3.0389
   27MOL   H158 5410   5.385   7.752   3.587  1.5786 -0.8517 -0.3476
   27MOL   H159 5411   5.344   0.002   3.825 -0.1450 -1.4668 -1.3462
   27MOL   H160 5412   5.492   7.725   3.816 -1.0655 -0.1933 -0.2080
   27MOL   H161 5413   5.444   0.186   3.947  0.3097  0.0241 -0.1056
   27MOL   C162 5414   5.631   0.167   3.876 -0.1820  0.2435  0.6742
   27MOL   O163 5415   5.704   0.108   3.795  0.1545  0.3892  0.1776
   27MOL   C164 5416   5.689   0.246   3.992  0.0869  0.7122 -0.1120
   27MOL   C165 5417   5.778   0.359   3.944  0.0902 -0.5683 -0.6030
   27MOL   N166 5418   5.850   0.425   4.054 -0.3534  0.7190 -0.6985
   27MOL   H167 5419   5.732   0.180   4.067 -0.2300 -0.2565 -0.7646
   27MOL   H168 5420   5.605   0.300   4.036 -0.9021  0.4063 -1.5797
   27MOL   H169 5421   5.853   0.337   3.868 -1.2381  1.0693 -2.4176
   27MOL   H170 5422   5.718   0.434   3.893  1.3744  0.1222 -1.1165
   27MOL   H171 5423   5.842   0.377   4.143 -2.6973 -0.2325 -1.4081
   27MOL   C172 5424   5.907   0.548   4.039  0.4275  0.3613  0.5388
   27MOL   O173 5425   5.889   0.618   3.940 -0.5979 -0.0773  0.0286
   27MOL   C174 5426   5.997   0.603   4.146  0.6011 -0.2316 -0.5388
   27MOL   C175 5427   6.142   0.572   4.143 -0.0578 -0.5882 -0.1023
   27MOL   N176 5428   6.173   0.425   4.158  0.2630  0.3578 -0.3085
   27MOL   H177 5429   5.942   0.591   4.239 -2.2117  0.7966 -2.0183
   27MOL   H178 5430   5.990   0.711   4.128  0.7835 -0.0276  0.5711
   27MOL   H179 5431   6.186   0.609   4.050 -1.0325  0.0379 -0.3223
   27MOL   H180 5432   6.200   0.629   4.215 -1.9952  1.5932 -0.2138
   27MOL   H181 5433   6.121   0.380   4.232 -0.4396 -0.4019 -1.2569
   27MOL   C182 5434   6.267   0.358   4.095  0.1548  0.5298 -0.2666
   27MOL   O183 5435   6.335   0.401   4.000  0.1579 -0.3621 -0.5076
   27MOL   C184 5436   6.285   0.215   4.141  0.2144 -0.3486 -0.6206
   27MOL   C185 5437   6.422   0.149   4.098 -0.0463  0.3468  0.3858
   27MOL   N186 5438   6.416   0.007   4.123  0.4519  0.3539  0.3128
   27MOL   H187 5439   6.202   0.165   4.092 -1.2427 -1.9328  3.2866
   27MOL   H188 5440   6.271   0.217   4.249 -1.6714  2.3237 -0.8591
   27MOL   H189 5441   6.421   0.148   3.989  2.2315 -3.3858  0.3276
   27MOL   H190 5442   6.507   0.202   4.140  0.2748  1.0754 -1.1703
   27MOL   H191 5443   6.392   7.722   4.050  1.4958 -0.9731  1.1426
   27MOL   C192 5444   6.422   7.736   4.245  0.2085  0.7704  0.1957
   27MOL   O193 5445   6.433   0.012   4.353  0.2694 -0.1785 -0.9623
   27MOL   C194 5446   6.388   7.591   4.249 -0.0596  0.3340 -0.7067
   27MOL   C195 5447   6.429   7.509   4.375 -0.2894 -0.3444 -0.1885
   27MOL   N196 5448   6.564   7.460   4.395 -0.4102 -0.0408 -0.0981
   27MOL   H197 5449   6.279   7.598   4.244 -0.0236  0.7017 -0.9824
   27MOL   H198 5450   6.413   7.533   4.160  1.9038 -0.4525  0.3253
   27MOL   H199 5451   6.407   7.567   4.464  1.5492  1.9879 -1.1845
   27MOL   H200 5452   6.364   7.422   4.373 -0.8977  0.0977 -0.0814
   27MOL   H201 5453   6.585   7.487   4.490  0.4770 -0.1133 -0.2721
   27MOL   H202 5454   6.558   7.360   4.396 -0.0316 -0.0655 -0.0098
   28MOL     C1 5455   5.558   1.201   7.770 -0.3823 -0.3722 -0.3219
   28MOL     O2 5456   5.620   1.268   0.072  0.3384  0.1056  0.0133
   28MOL     C3 5457   5.604   1.202   7.623  0.4737 -0.6709  0.2078
   28MOL     C4 5458   5.733   1.118   7.590 -0.4223  0.0006 -0.2879
   28MOL     N5 5459   5.754   1.127   7.445  0.3499  0.1500  0.1719
   28MOL     H6 5460   5.629   1.306   7.602 -0.5289 -0.3291  0.7027
   28MOL     H7 5461   5.529   1.169   7.551  2.7861 -0.7935 -2.2399
   28MOL     H8 5462   5.720   1.019   7.633 -0.7380 -0.1394 -0.6934
   28MOL     H9 5463   5.819   1.150   7.648 -0.7410 -2.8720  1.8778
   28MOL    H10 5464   5.682   1.101   7.380  2.4438 -0.6138 -1.9276
   28MOL    H11 5465   5.473   1.136   0.012  0.7589 -1.8661 -0.2557
   28MOL    C12 5466   5.875   1.146   7.387 -0.5678  0.3541  0.2842
   28MOL    O13 5467   5.979   1.141   7.455 -0.0714  0.5887 -0.7321
   28MOL    C14 5468   5.884   1.175   7.232  0.1430  0.6521  0.0191
   28MOL    C15 5469   5.966   1.074   7.142  0.1923 -0.0290 -0.5333
   28MOL    N16 5470   5.877   1.002   7.045 -0.6637  0.9132  0.5173
   28MOL    H17 5471   5.935   1.271   7.223  0.2597  0.4825 -1.1845
   28MOL    H18 5472   5.781   1.184   7.197 -0.1895 -2.4524  0.0418
   28MOL    H19 5473   6.049   1.126   7.094  1.8999 -2.6952 -0.5734
   28MOL    H20 5474   5.999   0.992   7.205  0.1385 -0.7249 -1.3936
   28MOL    H21 5475   5.809   0.942   7.089 -1.5947  0.3384 -1.6590
   28MOL    C22 5476   5.912   0.979   6.916 -0.1720  0.0403 -0.3884
   28MOL    O23 5477   6.003   1.037   6.868  0.6481 -0.3958  0.2578
   28MOL    C24 5478   5.845   0.872   6.833 -0.0437  0.4757 -0.1391
   28MOL    C25 5479   5.907   0.830   6.705 -0.6471  0.6072  0.1764
   28MOL    N26 5480   5.922   0.948   6.612 -0.9286  0.1366  0.0231
   28MOL    H27 5481   5.744   0.909   6.816 -1.3432 -2.5151  0.5884
   28MOL    H28 5482   5.831   0.780   6.890 -0.4187 -0.7547 -2.1464
   28MOL    H29 5483   6.005   0.785   6.722  0.1406  1.0365 -3.0624
   28MOL    H30 5484   5.850   0.751   6.656  1.2181 -1.4305  1.1983
   28MOL    H31 5485   5.964   1.029   6.653 -0.7798 -0.5358  1.2130
   28MOL    C32 5486   5.895   0.955   6.482 -0.4768 -0.4841 -0.1334
   28MOL    O33 5487   5.857   0.855   6.417  0.1428 -0.6641 -0.0351
   28MOL    C34 5488   5.897   1.093   6.424  0.4702 -0.7621 -0.6664
   28MOL    C35 5489   6.029   1.129   6.352  0.7480  0.0242 -0.1086
   28MOL    N36 5490   6.147   1.129   6.437  0.6208  0.5229 -0.1227
   28MOL    H37 5491   5.867   1.172   6.493  0.8906 -0.5115 -0.7692
   28MOL    H38 5492   5.815   1.102   6.352  1.9834 -0.9719 -2.4539
   28MOL    H39 5493   6.038   1.045   6.284  3.4352 -0.2733  0.5514
   28MOL    H40 5494   6.003   1.221   6.301 -1.5344 -0.6562 -0.2121
   28MOL    H41 5495   6.213   1.053   6.436  1.4671  1.2622 -0.9750
   28MOL    C42 5496   6.196   1.229   6.509 -0.3906 -0.0817 -0.7074
   28MOL    O43 5497   6.120   1.323   6.536 -0.3936  0.1126 -0.3360
   28MOL    C44 5498   6.333   1.214   6.578  0.3411 -0.2813  0.1162
   28MOL    C45 5499   6.320   1.187   6.727 -0.3708  0.0067 -0.4458
   28MOL    N46 5500   6.273   1.053   6.758  0.2394  0.2322 -0.2435
   28MOL    H47 5501   6.391   1.133   6.533  2.1248  1.1424 -0.2198
   28MOL    H48 5502   6.393   1.304   6.562 -0.2938  0.5348  2.1637
   28MOL    H49 5503   6.416   1.210   6.774 -0.1616 -1.5606 -0.0726
   28MOL    H50 5504   6.241   1.253   6.763 -1.0605 -0.5121 -0.9909
   28MOL    H51 5505   6.176   1.040   6.782  0.2687 -1.6395 -1.0222
   28MOL    C52 5506   6.356   0.952   6.772 -0.0486  0.4014 -0.6611
   28MOL    O53 5507   6.479   0.956   6.757  0.1889 -0.2313  0.2434
   28MOL    C54 5508   6.291   0.819   6.805  0.0347 -0.1832  0.7465
   28MOL    C55 5509   6.386   0.702   6.841 -1.0356 -0.5928 -1.0218
   28MOL    N56 5510   6.476   0.661   6.737 -0.3240  0.0600 -0.4879
   28MOL    H57 5511   6.244   0.833   6.903  2.1641  0.5182  1.6887
   28MOL    H58 5512   6.222   0.774   6.734  2.6829 -0.0791 -1.9680
   28MOL    H59 5513   6.316   0.621   6.862 -1.7413 -0.7561 -3.8211
   28MOL    H60 5514   6.458   0.707   6.923 -2.9257  0.4053  0.6531
   28MOL    H61 5515   6.534   0.737   6.704 -0.8405  0.1434 -1.2006
   28MOL    C62 5516   6.496   0.542   6.684  0.2030  0.4428 -0.6846
   28MOL    O63 5517   6.444   0.440   6.728 -0.2721  0.5750  0.1627
   28MOL    C64 5518   6.574   0.528   6.559  0.1553 -0.1549 -0.2191
   28MOL    C65 5519   6.722   0.519   6.572  0.1536  0.7256  0.0009
   28MOL    N66 5520   6.784   0.416   6.652  0.3915 -0.3512  0.5700
   28MOL    H67 5521   6.529   0.435   6.524  0.5529 -0.6582  0.6145
   28MOL    H68 5522   6.548   0.598   6.479  0.9573  0.9987  0.5016
   28MOL    H69 5523   6.757   0.504   6.469 -1.5150 -1.3821 -0.3026
   28MOL    H70 5524   6.759   0.620   6.590  0.3932  0.7501 -0.5872
   28MOL    H71 5525   6.832   0.442   6.737 -0.5512 -1.0470  1.3337
   28MOL    C72 5526   6.807   0.300   6.596 -0.8543 -0.2887 -0.4005
   28MOL    O73 5527   6.771   0.269   6.483 -0.3672  0.5306  0.4361
   28MOL    C74 5528   6.902   0.213   6.679  0.2948 -0.7028  0.0668
   28MOL    C75 5529   6.854   0.063   6.684 -0.0450 -0.3639 -0.0098
   28MOL    N76 5530   6.722   0.038   6.748 -0.2287  0.9937 -0.0662
   28MOL    H77 5531   7.006   0.209   6.645  0.4910 -2.8335  0.8154
   28MOL    H78 5532   6.897   0.244   6.784  2.8890 -1.6355  0.4999
   28MOL    H79 5533   6.836   0.023   6.585 -1.1467 -0.1888  0.1126
   28MOL    H80 5534   6.918   7.773   6.738 -1.6955 -0.8863  1.2857
   28MOL    H81 5535   6.640   0.029   6.691 -1.2621  1.3138  1.3390
   28MOL    C82 5536   6.692   0.041   6.876  0.3115  0.4105  0.3603
   28MOL    O83 5537   6.773   0.042   6.968  0.4903 -0.2793 -0.2532
   28MOL    C84 5538   6.542   0.024   6.914  0.0995  0.0031 -0.7482
   28MOL    C85 5539   6.516   7.683   7.007  0.2435  0.2269  0.3740
   28MOL    N86 5540   6.381   7.686   7.064 -0.3761 -1.3836  0.0348
   28MOL    H87 5541   6.498   0.115   6.954 -0.6521 -1.0406  0.8171
   28MOL    H88 5542   6.473   0.014   6.830 -0.6747  1.9566 -0.3813
   28MOL    H89 5543   6.533   7.594   6.946  0.1102 -0.4084  1.2596
   28MOL    H90 5544   6.581   7.688   7.094 -0.9916 -2.0307  1.4957
   28MOL    H91 5545   6.316   7.644   6.998  1.8922 -1.8450 -1.9581
   28MOL    C92 5546   6.343   7.743   7.178  0.6201 -0.4087  0.2034
   28MOL    O93 5547   6.420   0.027   7.246 -0.6326  0.1568  0.1493
   28MOL    C94 5548   6.198   7.751   7.205  0.2640  0.0979  0.8525
   28MOL    C95 5549   6.157   0.010   7.349 -0.0647 -0.6545  0.2677
   28MOL    N96 5550   6.206   0.143   7.399  0.3357  0.6690 -0.0652
   28MOL    H97 5551   6.166   0.049   7.136  1.1074  0.2189  0.5998
   28MOL    H98 5552   6.136   7.667   7.171  0.9517 -0.2448  0.4481
   28MOL    H99 5553   6.048   0.012   7.360 -0.2278  0.6767 -1.4175
   28MOL   H100 5554   6.192   7.708   7.411 -0.9245 -1.4190 -0.2442
   28MOL   H101 5555   6.239   0.206   7.327 -0.4010  0.4984 -0.5604
   28MOL   C102 5556   6.169   0.193   7.522 -0.8735 -0.2015  0.3276
   28MOL   O103 5557   6.107   0.127   7.605 -0.9931 -0.0236 -0.5767
   28MOL   C104 5558   6.197   0.344   7.546  0.7428  0.3390  0.5014
   28MOL   C105 5559   6.216   0.380   7.697  0.3027 -0.1321 -0.3205
   28MOL   N106 5560   6.085   0.415   7.753 -0.3086  0.3611  0.5668
   28MOL   H107 5561   6.119   0.407   7.504  0.6101 -0.2312 -0.1158
   28MOL   H108 5562   6.286   0.377   7.493 -0.1012 -1.2462 -2.0154
   28MOL   H109 5563   6.238   0.294   7.760 -0.1983  1.1800  1.7069
   28MOL   H110 5564   6.289   0.461   7.701  1.1184 -0.8791  0.0845
   28MOL   H111 5565   6.024   0.336   7.760 -0.2029  0.0293 -1.8855
   28MOL   C112 5566   6.045   0.542   7.768 -0.2414  0.2255 -0.3018
   28MOL   O113 5567   6.123   0.633   7.780  0.1229  0.9754  0.0355
   28MOL   C114 5568   5.895   0.574   7.772  0.4791  0.4137 -0.2016
   28MOL   C115 5569   5.866   0.623   7.629  0.3034 -0.8553 -0.1271
   28MOL   N116 5570   5.881   0.524   7.521  0.1060 -0.1220  0.3229
   28MOL   H117 5571   5.878   0.666   0.047 -0.4504 -0.8243  1.6518
   28MOL   H118 5572   5.832   0.493   0.031 -0.2553  1.4987  0.9228
   28MOL   H119 5573   5.765   0.664   7.625  1.3105  1.6682 -0.7723
   28MOL   H120 5574   5.930   0.708   7.605  0.3937 -0.5309  1.2353
   28MOL   H121 5575   5.970   0.528   7.473 -0.5451 -1.1527 -1.0245
   28MOL   C122 5576   5.799   0.420   7.508 -0.0840  0.7147 -0.3708
   28MOL   O123 5577   5.707   0.398   7.587  0.3135  0.0274 -0.1564
   28MOL   C124 5578   5.832   0.317   7.397 -0.2634  0.4496 -0.5400
   28MOL   C125 5579   5.698   0.261   7.343 -0.0743 -0.3741  0.3276
   28MOL   N126 5580   5.710   0.146   7.261 -0.2951  0.2165 -0.3152
   28MOL   H127 5581   5.870   0.232   7.454 -1.8306  0.2802  0.2868
   28MOL   H128 5582   5.897   0.355   7.318 -1.1371  0.8131 -1.0948
   28MOL   H129 5583   5.642   0.230   7.431  1.1914 -0.2996  1.1782
   28MOL   H130 5584   5.643   0.337   7.288 -1.7409 -0.5558  1.7053
   28MOL   H131 5585   5.698   0.056   7.304  0.6358  1.4336  2.6348
   28MOL   C132 5586   5.776   0.128   7.146 -0.3232  0.1918  0.5032
   28MOL   O133 5587   5.814   0.223   7.080  0.0239 -0.0981  0.0775
   28MOL   C134 5588   5.796   7.770   7.103 -0.2763 -0.3827 -0.2482
   28MOL   C135 5589   5.889   7.750   6.979  0.2732 -0.1614 -0.2145
   28MOL   N136 5590   5.910   7.610   6.948 -0.4278  0.3213  0.2160
   28MOL   H137 5591   5.695   7.740   7.075 -0.7723  2.0879 -1.1719
   28MOL   H138 5592   5.838   7.717   7.189  0.8925  1.2836  0.2367
   28MOL   H139 5593   5.838   7.777   6.887 -1.6652 -0.3861  0.7814
   28MOL   H140 5594   5.981   0.026   6.993  0.1637 -0.3601  1.4599
   28MOL   H141 5595   5.824   7.556   6.950  0.0619 -0.4418  1.3811
   28MOL   C142 5596   6.019   7.569   6.879 -0.2379 -0.2878 -0.2392
   28MOL   O143 5597   6.122   7.638   6.882  0.7358  0.3709 -0.3147
   28MOL   C144 5598   6.010   7.435   6.810 -0.2087 -0.0070  0.2700
   28MOL   C145 5599   6.138   7.350   6.825 -0.0410  0.1512  0.4836
   28MOL   N146 5600   6.118   7.240   6.919 -0.5315  0.4507 -0.2818
   28MOL   H147 5601   6.007   7.468   6.706  0.3799 -0.3013  0.1565
   28MOL   H148 5602   5.915   7.386   6.833  0.4251 -1.2740  0.2215
   28MOL   H149 5603   6.172   7.312   6.728  0.5451  0.8847  0.3974
   28MOL   H150 5604   6.222   7.409   6.860 -0.0731  1.6870 -1.8638
   28MOL   H151 5605   6.127   7.269   7.015 -1.7155  2.0935 -0.6439
   28MOL   C152 5606   6.100   7.117   6.874 -0.0650 -0.3092  0.2910
   28MOL   O153 5607   6.077   7.088   6.763  0.4766  0.4779  0.2185
   28MOL   C154 5608   6.104   7.003   6.977 -0.2534 -0.0059  0.1527
   28MOL   C155 5609   5.970   6.942   7.003 -1.1118  0.2031 -0.4064
   28MOL   N156 5610   5.983   6.813   7.063 -0.0785  0.7004 -0.4022
   28MOL   H157 5611   6.147   7.040   7.070 -0.2947  1.6473 -0.4564
   28MOL   H158 5612   6.184   6.944   6.932 -0.9373  0.2992 -1.5143
   28MOL   H159 5613   5.918   7.013   7.067  0.4963  1.2593 -0.2222
   28MOL   H160 5614   5.904   6.927   6.918 -1.0235 -0.5679 -0.3445
   28MOL   H161 5615   5.972   6.811   7.164  0.0422  0.5400 -0.3921
   28MOL   C162 5616   5.999   6.696   7.002 -0.3383 -0.5042 -0.2863
   28MOL   O163 5617   6.020   6.689   6.877  0.1939 -0.1120 -0.6280
   28MOL   C164 5618   6.013   6.569   7.090  0.5127 -0.6926 -0.1074
   28MOL   C165 5619   5.958   6.440   7.023 -0.2892  0.2659  0.3736
   28MOL   N166 5620   5.820   6.416   7.040 -0.0438  0.3861  0.6938
   28MOL   H167 5621   5.947   6.587   7.174 -0.2485 -1.4405 -0.5428
   28MOL   H168 5622   6.113   6.555   7.131  0.3923 -2.2753 -0.3316
   28MOL   H169 5623   5.987   6.424   6.920 -1.5314  0.3308  0.0051
   28MOL   H170 5624   6.008   6.356   7.072 -1.3120 -2.4912 -3.1271
   28MOL   H171 5625   5.798   6.345   7.109 -1.0333  2.0696  2.1575
   28MOL   C172 5626   5.710   6.461   6.971  0.5358  0.3696 -0.4265
   28MOL   O173 5627   5.601   6.415   7.005 -0.0854 -0.1503 -0.2922
   28MOL   C174 5628   5.729   6.558   6.856  0.3794 -0.3802 -0.2188
   28MOL   C175 5629   5.620   6.535   6.747  0.2342  0.0894 -0.5752
   28MOL   N176 5630   5.669   6.446   6.645  0.0734 -0.3417  0.0538
   28MOL   H177 5631   5.828   6.539   6.815  0.1019 -0.8474 -0.6893
   28MOL   H178 5632   5.733   6.656   6.903 -2.3480  0.8267 -2.3188
   28MOL   H179 5633   5.530   6.487   6.785  1.8004 -1.7855  0.8510
   28MOL   H180 5634   5.588   6.634   6.713  2.9228  1.1257 -0.2560
   28MOL   H181 5635   5.714   6.364   6.684 -1.3371 -0.7658  0.8270
   28MOL   C182 5636   5.660   6.466   6.504  0.2292  0.4363  0.0381
   28MOL   O183 5637   5.605   6.565   6.459 -0.4862 -0.3692 -0.4844
   28MOL   C184 5638   5.730   6.366   6.410  0.0896 -0.1166  0.0186
   28MOL   C185 5639   5.652   6.260   6.333  0.4569 -0.6488  1.5393
   28MOL   N186 5640   5.537   6.301   6.245  0.5784  0.0935  0.8989
   28MOL   H187 5641   5.810   6.326   6.473 -1.0716  0.9698  2.2432
   28MOL   H188 5642   5.781   6.430   6.338  0.2836  0.6096  0.7918
   28MOL   H189 5643   5.717   6.198   6.270 -2.4516 -0.6340 -1.5935
   28MOL   H190 5644   5.608   6.181   6.394 -1.5361 -1.7012 -1.1759
   28MOL   H191 5645   5.447   6.315   6.289  0.8160 -0.4601  1.5848
   28MOL   C192 5646   5.550   6.320   6.113  0.3535  0.2474 -0.0134
   28MOL   O193 5647   5.656   6.305   6.052 -0.3337  0.3741 -0.0216
   28MOL   C194 5648   5.429   6.367   6.036  0.0848 -0.7706 -0.2658
   28MOL   C195 5649   5.459   6.447   5.905 -0.6297 -0.2945  0.4153
   28MOL   N196 5650   5.336   6.510   5.859  0.6450  0.4287 -0.0502
   28MOL   H197 5651   5.375   6.275   6.015 -1.6494  0.5177 -1.5225
   28MOL   H198 5652   5.364   6.425   6.102  0.1906  0.3403 -1.1267
   28MOL   H199 5653   5.536   6.520   5.928  2.0926 -2.6040 -1.0133
   28MOL   H200 5654   5.485   6.369   5.833  0.5260  0.3298  0.1447
   28MOL   H201 5655   5.250   6.473   5.896  1.2662 -0.9410  0.0485
   28MOL   H202 5656   5.334   6.601   5.903  0.1031  0.4557 -0.1308
   29MOL     C1 5657   7.376   5.441   0.763 -0.3701  0.4591  0.4225
   29MOL     O2 5658   7.350   5.554   0.725 -0.1241  0.0335 -0.5902
   29MOL     C3 5659   7.281   5.327   0.709  0.0107  0.5074 -0.5250
   29MOL     C4 5660   7.353   5.236   0.611 -0.3530  0.1453 -0.3750
   29MOL     N5 5661   7.438   5.140   0.676 -0.0443  0.5389  0.0577
   29MOL     H6 5662   7.204   5.374   0.648  0.8800  0.4549 -1.6792
   29MOL     H7 5663   7.236   5.276   0.794 -1.1707 -0.4336 -1.7017
   29MOL     H8 5664   7.415   5.286   0.536  0.3630 -1.2099 -0.6945
   29MOL     H9 5665   7.288   5.181   0.543  1.7777 -0.9521 -1.5715
   29MOL    H10 5666   7.532   5.165   0.702  0.1745  0.7385 -0.8854
   29MOL    H11 5667   7.457   5.418   0.832  0.6612 -1.2233 -1.2976
   29MOL    C12 5668   7.397   5.021   0.720  0.1610  0.4784  0.2615
   29MOL    O13 5669   7.281   4.977   0.709 -0.0145  0.4104 -0.3471
   29MOL    C14 5670   7.506   4.935   0.791 -0.7183 -0.0266 -0.4518
   29MOL    C15 5671   7.552   4.993   0.921  0.4513 -0.4852 -0.2316
   29MOL    N16 5672   7.443   4.993   1.020  0.1260  0.6290 -0.3052
   29MOL    H17 5673   7.591   4.930   0.724  0.9196  1.7174  1.4294
   29MOL    H18 5674   7.469   4.834   0.807  0.1833 -0.2510  0.2662
   29MOL    H19 5675   7.642   4.937   0.949 -0.5695 -1.6488  0.8284
   29MOL    H20 5676   7.579   5.098   0.911  0.6749 -0.3717  1.4115
   29MOL    H21 5677   7.420   4.903   1.061  0.0268  1.2514  1.0307
   29MOL    C22 5678   7.380   5.102   1.067  0.3328 -0.4875  0.6737
   29MOL    O23 5679   7.412   5.219   1.027  0.1739  0.1395  0.0869
   29MOL    C24 5680   7.282   5.087   1.182 -0.3786  0.5804  0.1784
   29MOL    C25 5681   7.365   5.099   1.311 -0.3133 -0.2662  0.1944
   29MOL    N26 5682   7.430   4.973   1.334 -0.4367 -0.4977  0.5646
   29MOL    H27 5683   7.239   4.988   1.165  0.3062  0.4554 -0.8861
   29MOL    H28 5684   7.204   5.163   1.181 -2.4226 -1.4581  0.4187
   29MOL    H29 5685   7.441   5.177   1.305  2.7913 -3.1209  0.8388
   29MOL    H30 5686   7.313   5.119   1.404  0.0840 -0.5637  0.4801
   29MOL    H31 5687   7.377   4.891   1.362  1.1371 -1.1608  1.6959
   29MOL    C32 5688   7.564   4.947   1.356  0.5703 -0.0817 -0.2694
   29MOL    O33 5689   7.653   5.033   1.342 -0.1850  0.1256 -0.4257
   29MOL    C34 5690   7.591   4.804   1.400  0.3711  0.1364  0.1079
   29MOL    C35 5691   7.722   4.781   1.477  0.3410  0.7668 -0.0288
   29MOL    N36 5692   7.743   4.636   1.497 -0.3113  0.4747  0.4236
   29MOL    H37 5693   7.588   4.746   1.307  1.0355 -2.8640  1.8925
   29MOL    H38 5694   7.509   4.771   1.464  0.1844 -0.2988 -0.3475
   29MOL    H39 5695   0.033   4.814   1.426  1.6765 -1.8519  0.5856
   29MOL    H40 5696   7.713   4.838   1.570 -0.5360  0.1707  0.2536
   29MOL    H41 5697   7.665   4.578   1.468 -0.0629  0.9692 -1.2887
   29MOL    C42 5698   0.076   4.583   1.551  0.3205  0.0336 -0.6525
   29MOL    O43 5699   0.175   4.646   1.581  0.4412  0.3719  0.6579
   29MOL    C44 5700   0.069   4.428   1.578 -0.2933 -0.3097  0.1965
   29MOL    C45 5701   0.158   4.359   1.463  0.0474  0.0813 -0.4243
   29MOL    N46 5702   0.264   4.271   1.526 -0.2138 -0.4991  0.3841
   29MOL    H47 5703   0.109   4.404   1.677  1.8868  1.4627 -0.1992
   29MOL    H48 5704   7.747   4.393   1.578  0.2148 -1.8891  1.8325
   29MOL    H49 5705   0.092   4.304   1.396  0.0054 -1.6213  0.9753
   29MOL    H50 5706   0.217   4.429   1.404 -0.2210 -1.0180 -2.0453
   29MOL    H51 5707   0.242   4.231   1.616 -0.9363  3.0333  1.8925
   29MOL    C52 5708   0.384   4.247   1.473  0.0429  0.9817  0.7968
   29MOL    O53 5709   0.416   4.287   1.358 -0.1274  0.1435  0.4734
   29MOL    C54 5710   0.481   4.174   1.567 -0.8832 -0.2675 -0.0627
   29MOL    C55 5711   0.561   4.050   1.507 -0.5181 -0.7603  0.3654
   29MOL    N56 5712   0.513   3.921   1.561 -0.1550 -0.9008 -0.6733
   29MOL    H57 5713   0.547   4.251   1.606 -2.2586  0.9855 -0.1636
   29MOL    H58 5714   0.432   4.125   1.652 -2.5632 -0.5645 -1.1681
   29MOL    H59 5715   0.666   4.065   1.530 -0.0549 -1.9223 -0.9268
   29MOL    H60 5716   0.550   4.044   1.399  0.6371 -0.3734  0.2152
   29MOL    H61 5717   0.415   3.902   1.553  0.0932 -1.8812 -1.5367
   29MOL    C62 5718   0.593   3.820   1.602 -0.1156  0.2863 -0.7632
   29MOL    O63 5719   0.714   3.814   1.588 -0.1523  0.0982 -0.0191
   29MOL    C64 5720   0.529   3.697   1.675 -0.4977 -0.0632 -0.3808
   29MOL    C65 5721   0.556   3.688   1.824 -0.3426 -0.3421  0.7402
   29MOL    N66 5722   0.691   3.650   1.855  0.3889 -0.8180  0.1043
   29MOL    H67 5723   0.421   3.706   1.670 -0.4520  1.1777  0.8556
   29MOL    H68 5724   0.561   3.612   1.614 -0.0931 -0.4386  0.3443
   29MOL    H69 5725   0.543   3.780   1.880 -1.0631 -0.3798  0.6382
   29MOL    H70 5726   0.489   3.615   1.870 -1.7207  1.5297  1.7562
   29MOL    H71 5727   0.732   3.569   1.811  0.5604 -1.3047  1.1402
   29MOL    C72 5728   0.747   3.685   1.974 -0.0982 -0.2996  0.4894
   29MOL    O73 5729   0.700   3.765   2.054  0.5264  0.1018  0.3823
   29MOL    C74 5730   0.864   3.599   2.022 -0.0434  0.1009 -0.0218
   29MOL    C75 5731   0.973   3.668   2.117  0.1557  0.6450  0.2092
   29MOL    N76 5732   1.031   3.799   2.076  0.4128 -0.9338  0.3331
   29MOL    H77 5733   0.829   3.505   2.063  0.0528  0.0661 -0.0188
   29MOL    H78 5734   0.920   3.562   1.936  0.5505 -1.8179  1.1635
   29MOL    H79 5735   0.943   3.668   2.221 -0.6501  2.1542 -0.0067
   29MOL    H80 5736   1.058   3.601   2.127 -0.5380 -0.4763 -1.2367
   29MOL    H81 5737   1.024   3.871   2.147  1.1532 -0.8760  0.3604
   29MOL    C82 5738   1.099   3.829   1.962  0.6756  0.7753  0.2144
   29MOL    O83 5739   1.114   3.741   1.877 -0.2440  0.6146  0.0531
   29MOL    C84 5740   1.137   3.974   1.934 -0.0479 -0.1004 -0.2947
   29MOL    C85 5741   1.069   4.027   1.807  0.1428  0.1148 -0.8554
   29MOL    N86 5742   0.922   4.014   1.813  0.3417 -0.1310  0.5412
   29MOL    H87 5743   1.102   4.043   2.011  1.1118 -1.0080  1.0814
   29MOL    H88 5744   1.245   3.988   1.935 -0.0166 -0.3082 -0.7426
   29MOL    H89 5745   1.098   4.132   1.799 -3.1190  1.0902 -0.8653
   29MOL    H90 5746   1.111   3.964   1.728 -1.0424 -0.6140 -0.9256
   29MOL    H91 5747   0.884   3.939   1.758  1.2857  0.0054 -0.3062
   29MOL    C92 5748   0.842   4.091   1.884 -0.5154  0.2007  0.0878
   29MOL    O93 5749   0.885   4.184   1.948  0.0529  0.7126 -0.2044
   29MOL    C94 5750   0.693   4.066   1.872 -0.5081  0.6322 -0.1024
   29MOL    C95 5751   0.596   4.135   1.972 -0.3983  0.2217  0.2174
   29MOL    N96 5752   0.591   4.279   1.954  0.4589  0.1258 -0.3563
   29MOL    H97 5753   0.654   4.081   1.771 -1.3731  2.6238  0.4997
   29MOL    H98 5754   0.683   3.958   1.878 -1.3872  0.7578  0.7738
   29MOL    H99 5755   0.500   4.085   1.956  1.2157 -2.9473  0.0959
   29MOL   H100 5756   0.623   4.111   2.074  0.1888  2.2385  0.5543
   29MOL   H101 5757   0.676   4.324   1.987  0.0004  0.8031 -0.0750
   29MOL   C102 5758   0.500   4.351   1.895 -0.2658 -0.4540  0.0666
   29MOL   O103 5759   0.391   4.308   1.856  0.1134  0.2942  0.8281
   29MOL   C104 5760   0.529   4.498   1.888  0.0313  0.2851  0.3784
   29MOL   C105 5761   0.578   4.551   1.752  0.1029  0.0862  0.4419
   29MOL   N106 5762   0.724   4.512   1.727 -0.1272 -0.4582  0.6595
   29MOL   H107 5763   0.578   4.540   1.976  1.5271  0.6008 -0.5773
   29MOL   H108 5764   0.430   4.534   1.916 -1.4514 -2.0584 -1.6478
   29MOL   H109 5765   0.519   4.510   1.670  1.2213  1.8448 -1.3133
   29MOL   H110 5766   0.571   4.660   1.750 -1.4271 -0.0067 -1.6427
   29MOL   H111 5767   0.793   4.558   1.785  0.2230 -0.9804  0.6632
   29MOL   C112 5768   0.771   4.451   1.616  0.6662  0.0270  0.1673
   29MOL   O113 5769   0.697   4.409   1.534 -0.2668 -0.0849  0.3362
   29MOL   C114 5770   0.922   4.418   1.606 -0.3687  0.5112 -0.6730
   29MOL   C115 5771   0.999   4.513   1.517  0.5366 -0.0030  0.1751
   29MOL   N116 5772   1.043   4.637   1.587 -0.4000  0.2325  0.0021
   29MOL   H117 5773   0.917   4.313   1.577 -1.0760 -0.2012  1.8589
   29MOL   H118 5774   0.962   4.409   1.707 -0.7118 -0.3438 -0.6058
   29MOL   H119 5775   1.085   4.459   1.477 -0.5536 -0.4012 -1.6854
   29MOL   H120 5776   0.942   4.536   1.427  0.1847  0.6104  0.5457
   29MOL   H121 5777   1.097   4.617   1.669 -0.7783 -0.0603  0.1795
   29MOL   C122 5778   1.059   4.759   1.534 -0.3667 -0.0200  0.6197
   29MOL   O123 5779   1.013   4.786   1.426  0.4709  0.2161  0.1396
   29MOL   C124 5780   1.137   4.861   1.616 -0.1898  0.0639 -0.3887
   29MOL   C125 5781   1.279   4.893   1.566 -0.7222 -0.6349  0.3614
   29MOL   N126 5782   1.390   4.811   1.623 -0.6057 -0.0218  0.4142
   29MOL   H127 5783   1.135   4.822   1.718  1.8711  0.8699 -0.0054
   29MOL   H128 5784   1.086   4.957   1.612  1.8391  1.1505 -0.6971
   29MOL   H129 5785   1.278   4.888   1.457  1.9110 -1.4940  0.3589
   29MOL   H130 5786   1.307   4.996   1.587  1.0717 -1.0060 -0.1329
   29MOL   H131 5787   1.411   4.822   1.721  0.1039 -0.7102  0.3441
   29MOL   C132 5788   1.470   4.738   1.548  0.5503 -0.0958  0.1301
   29MOL   O133 5789   1.454   4.723   1.430 -0.6074 -0.3107 -0.2573
   29MOL   C134 5790   1.588   4.674   1.617  0.0856  0.3462  0.0488
   29MOL   C135 5791   1.732   4.731   1.582 -0.0492 -0.1787  0.6399
   29MOL   N136 5792   1.769   4.774   1.448  0.2316 -0.0757 -0.1239
   29MOL   H137 5793   1.580   4.572   1.579  0.5429  0.1850  0.3790
   29MOL   H138 5794   1.581   4.677   1.726 -0.8230 -0.0735  0.0080
   29MOL   H139 5795   1.758   4.803   1.660 -0.1822 -0.0396  0.5566
   29MOL   H140 5796   1.795   4.643   1.596 -0.9157 -1.1841 -1.6066
   29MOL   H141 5797   1.815   4.863   1.435 -1.4749  0.8249 -0.1039
   29MOL   C142 5798   1.754   4.699   1.344 -0.2461 -0.8439  0.6151
   29MOL   O143 5799   1.727   4.581   1.343 -0.1478  0.4319  0.2725
   29MOL   C144 5800   1.769   4.775   1.206 -0.7383 -0.0906  1.0351
   29MOL   C145 5801   1.834   4.692   1.092  0.5333  0.1519  0.0283
   29MOL   N146 5802   1.740   4.584   1.048 -0.3234 -0.5142  0.2648
   29MOL   H147 5803   1.839   4.859   1.212 -2.1115  0.9919  2.0395
   29MOL   H148 5804   1.667   4.803   1.180 -1.3934 -1.6417  1.8892
   29MOL   H149 5805   1.854   4.759   1.008 -0.9695  0.3904 -0.1596
   29MOL   H150 5806   1.930   4.648   1.120  0.4177  0.7287  1.3400
   29MOL   H151 5807   1.653   4.571   1.097  0.2425 -0.1813  1.4021
   29MOL   C152 5808   1.759   4.511   0.941 -0.7009  0.1401  0.0934
   29MOL   O153 5809   1.866   4.508   0.879 -0.0507  0.0672 -0.1104
   29MOL   C154 5810   1.637   4.452   0.876 -0.1073  0.9324  0.4478
   29MOL   C155 5811   1.607   4.307   0.907  0.6642  0.5146 -0.1319
   29MOL   N156 5812   1.554   4.294   1.044 -0.6418  0.1464  0.4856
   29MOL   H157 5813   1.634   4.468   0.768  0.2547  1.4620  0.5117
   29MOL   H158 5814   1.547   4.504   0.909 -0.0574  1.9343 -0.9408
   29MOL   H159 5815   1.533   4.278   0.833 -0.1866  0.0667  0.8930
   29MOL   H160 5816   1.699   4.252   0.887 -0.3206 -1.1716 -0.0863
   29MOL   H161 5817   1.557   4.376   1.102  0.9204  0.6113 -0.2104
   29MOL   C162 5818   1.538   4.177   1.108  0.3767 -0.6691  0.6917
   29MOL   O163 5819   1.538   4.072   1.045  0.2264 -0.0673  0.2644
   29MOL   C164 5820   1.498   4.178   1.256 -0.5199  0.2362 -0.2345
   29MOL   C165 5821   1.356   4.127   1.276  0.1491 -0.0030 -0.1171
   29MOL   N166 5822   1.296   4.184   1.391  0.2187 -0.1524 -0.1480
   29MOL   H167 5823   1.498   4.279   1.297  0.1678 -1.0984  3.2379
   29MOL   H168 5824   1.560   4.121   1.325  0.1336  0.7125 -0.4248
   29MOL   H169 5825   1.289   4.148   1.193  1.8145  0.2147 -1.4326
   29MOL   H170 5826   1.355   4.020   1.297  0.8775  0.1830  0.8807
   29MOL   H171 5827   1.211   4.232   1.364 -0.5162 -2.3410 -1.9102
   29MOL   C172 5828   1.333   4.170   1.519 -0.8280 -0.7420  0.1787
   29MOL   O173 5829   1.420   4.085   1.544  0.2009  0.2064  0.9738
   29MOL   C174 5830   1.299   4.268   1.625 -0.4046  0.1551  0.1015
   29MOL   C175 5831   1.395   4.390   1.642 -0.1988 -0.6818 -0.0389
   29MOL   N176 5832   1.396   4.436   1.779  0.3744  0.5699 -0.3479
   29MOL   H177 5833   1.300   4.206   1.714 -2.2627  2.0111  1.4623
   29MOL   H178 5834   1.197   4.306   1.627 -0.5070 -0.1048 -0.0945
   29MOL   H179 5835   1.495   4.368   1.603  0.4784 -0.2484  1.4300
   29MOL   H180 5836   1.357   4.471   1.580  1.1904  0.9169  1.1422
   29MOL   H181 5837   1.481   4.425   1.833  1.5579 -0.3662 -2.3284
   29MOL   C182 5838   1.295   4.509   1.840 -0.7241  0.1738 -0.4083
   29MOL   O183 5839   1.190   4.547   1.781  0.1828  0.6090  0.2290
   29MOL   C184 5840   1.323   4.552   1.978 -0.0856  0.1063 -0.5599
   29MOL   C185 5841   1.210   4.614   2.057  0.4567  0.2965 -0.3868
   29MOL   N186 5842   1.103   4.511   2.083  0.8420 -0.4601  0.6485
   29MOL   H187 5843   1.412   4.616   1.986  0.3077 -0.5829  0.7004
   29MOL   H188 5844   1.365   4.465   2.028  0.4264  1.1512  0.9003
   29MOL   H189 5845   1.247   4.651   2.153  0.2837 -0.8727  0.1336
   29MOL   H190 5846   1.191   4.698   1.990 -0.4034  1.8832  1.7614
   29MOL   H191 5847   1.009   4.529   2.052  0.5879 -1.7852  0.6250
   29MOL   C192 5848   1.122   4.405   2.163  0.0119  0.4224  0.3769
   29MOL   O193 5849   1.231   4.379   2.214 -0.0925  0.3221  0.1785
   29MOL   C194 5850   0.999   4.327   2.215  0.3316 -0.0006  0.7203
   29MOL   C195 5851   0.862   4.394   2.222 -0.7937  0.4506  0.2699
   29MOL   N196 5852   0.804   4.419   2.090  0.1492  0.0846  0.3357
   29MOL   H197 5853   0.997   4.236   2.155 -0.9717  0.3285  0.2438
   29MOL   H198 5854   1.024   4.295   2.317 -0.0158  0.0128  0.8112
   29MOL   H199 5855   0.796   4.322   2.270  1.3088 -1.0569  1.0198
   29MOL   H200 5856   0.873   4.482   2.285  1.9680  0.2140  0.2109
   29MOL   H201 5857   0.831   4.350   2.021 -0.6135 -1.0148  1.1227
   29MOL   H202 5858   0.824   4.511   2.054  0.5744  1.1106  3.0525
   30MOL     C1 5859   3.931   5.714   3.074 -0.4008  0.5112 -0.8599
   30MOL     O2 5860   3.981   5.801   3.140 -0.4975  0.0744 -0.3489
   30MOL     C3 5861   3.793   5.653   3.111 -0.5547 -0.1241 -0.5943
   30MOL     C4 5862   3.760   5.669   3.266 -0.1043  0.1865  0.8160
   30MOL     N5 5863   3.698   5.798   3.297  0.1992  0.2532 -0.2589
   30MOL     H6 5864   3.792   5.546   3.087  0.1780 -0.5089  1.0318
   30MOL     H7 5865   3.710   5.705   3.063 -3.8740 -2.8080  1.9587
   30MOL     H8 5866   3.846   5.641   3.327  2.3918  0.9310 -2.2297
   30MOL     H9 5867   3.691   5.590   3.297  1.0787 -0.7740  1.0015
   30MOL    H10 5868   3.747   5.865   3.354 -2.3551  2.3875 -0.4979
   30MOL    H11 5869   3.969   5.667   2.983 -0.4056 -0.0471 -0.5746
   30MOL    C12 5870   3.568   5.827   3.268 -0.3809 -0.1373 -0.3236
   30MOL    O13 5871   3.497   5.766   3.191  0.3579 -0.3551  0.1655
   30MOL    C14 5872   3.512   5.952   3.338  0.0838  0.1786 -0.2816
   30MOL    C15 5873   3.409   5.935   3.450 -0.9538 -0.1996  0.1983
   30MOL    N16 5874   3.464   5.878   3.569 -0.1585 -0.1642  0.4498
   30MOL    H17 5875   3.460   6.004   3.257 -0.6551  1.0592  0.7618
   30MOL    H18 5876   3.595   6.017   3.365 -0.2008  0.4714 -0.1079
   30MOL    H19 5877   3.367   6.029   3.485 -0.7036  0.9144 -2.4130
   30MOL    H20 5878   3.326   5.876   3.409  0.7744 -1.9753 -0.8177
   30MOL    H21 5879   3.461   5.777   3.575 -0.8597 -0.1263  0.7524
   30MOL    C22 5880   3.497   5.941   3.682 -0.4428 -0.4085  0.0625
   30MOL    O23 5881   3.492   6.065   3.701  0.0565  0.4753  0.1286
   30MOL    C24 5882   3.561   5.861   3.787 -0.3368  0.1955 -0.3694
   30MOL    C25 5883   3.454   5.784   3.860  0.5152  0.0610 -0.6542
   30MOL    N26 5884   3.373   5.867   3.950  0.1625 -0.6017 -0.0135
   30MOL    H27 5885   3.614   5.923   3.858 -0.4241  1.3616 -1.3193
   30MOL    H28 5886   3.629   5.804   3.724  0.4599 -0.3434  0.9517
   30MOL    H29 5887   3.399   5.710   3.803 -0.5188  0.1351  0.2342
   30MOL    H30 5888   3.503   5.723   3.937  0.2064  3.0058  1.9932
   30MOL    H31 5889   3.416   5.898   4.036  3.1794 -1.7257 -1.0579
   30MOL    C32 5890   3.243   5.888   3.936  0.1604 -0.6789  1.4753
   30MOL    O33 5891   3.172   5.836   3.847 -0.0794  0.1680 -0.2033
   30MOL    C34 5892   3.178   5.992   4.024 -0.3657  0.0383  0.7156
   30MOL    C35 5893   3.055   5.943   4.096  0.9769  0.9738 -0.6777
   30MOL    N36 5894   3.005   6.039   4.199 -0.6714  0.7468 -0.0631
   30MOL    H37 5895   3.150   6.073   3.957  1.1299  0.5402  0.6961
   30MOL    H38 5896   3.252   6.016   4.100  0.3727 -0.4002  0.1441
   30MOL    H39 5897   2.973   5.944   4.024  0.1248  0.7042  0.2739
   30MOL    H40 5898   3.080   5.845   4.138  0.6701  1.7744  1.4073
   30MOL    H41 5899   2.919   6.087   4.177  0.0224  1.4175 -1.3784
   30MOL    C42 5900   3.074   6.057   4.313 -0.3772  0.7162 -0.2933
   30MOL    O43 5901   3.183   6.008   4.329 -0.5556  0.1776 -0.0891
   30MOL    C44 5902   3.003   6.133   4.423  0.3210  0.2547  0.2500
   30MOL    C45 5903   3.013   6.056   4.563 -1.2473  0.3079  0.0546
   30MOL    N46 5904   3.136   6.085   4.636 -1.0022  0.2257  0.6500
   30MOL    H47 5905   3.049   6.231   4.435 -1.5689  1.2664 -0.7196
   30MOL    H48 5906   2.897   6.144   4.401  0.3116 -1.3828 -0.5839
   30MOL    H49 5907   2.935   6.088   4.632 -1.7104  0.2901 -0.4625
   30MOL    H50 5908   3.009   5.947   4.560  2.8278  0.0919 -0.2367
   30MOL    H51 5909   3.156   6.183   4.641  0.7250 -0.1190  0.8717
   30MOL    C52 5910   3.221   5.999   4.692 -0.3974 -0.1088 -0.1449
   30MOL    O53 5911   3.204   5.876   4.684 -0.4690 -0.8424 -0.0800
   30MOL    C54 5912   3.356   6.054   4.750  0.7988 -0.6914 -0.3245
   30MOL    C55 5913   3.447   5.940   4.810 -0.0614 -0.7026  0.2709
   30MOL    N56 5914   3.586   5.990   4.824 -0.0552  0.6835 -0.6568
   30MOL    H57 5915   3.406   6.090   4.661  0.2679 -0.4818 -0.5359
   30MOL    H58 5916   3.344   6.134   4.823  1.3960  2.9766 -4.1089
   30MOL    H59 5917   3.455   5.845   4.757  1.6903 -0.8380  0.7544
   30MOL    H60 5918   3.403   5.920   4.907 -0.0429 -1.6961  0.0765
   30MOL    H61 5919   3.652   5.986   4.748  0.4246  1.9795 -0.3311
   30MOL    C62 5920   3.613   6.066   4.932 -0.0299 -0.6180 -0.0092
   30MOL    O63 5921   3.542   6.084   5.028  0.2916 -0.7851  0.9249
   30MOL    C64 5922   3.745   6.133   4.913 -0.6317 -0.1004  0.5685
   30MOL    C65 5923   3.751   6.273   4.980  0.3779  0.7299  0.6668
   30MOL    N66 5924   3.689   6.385   4.912 -0.6322 -0.3865 -0.0047
   30MOL    H67 5925   3.827   6.077   4.959  0.3254  0.9381  0.1632
   30MOL    H68 5926   3.760   6.155   4.807 -2.2981  0.9484  0.5427
   30MOL    H69 5927   3.740   6.276   5.088  0.5453  1.3157  0.6693
   30MOL    H70 5928   3.855   6.304   4.989  0.6153  0.6483 -1.4848
   30MOL    H71 5929   3.630   6.376   4.830  0.4211  0.3159 -0.8656
   30MOL    C72 5930   3.701   6.513   4.952 -0.1811 -0.6560 -0.4637
   30MOL    O73 5931   3.759   6.554   5.054 -1.0070  0.8163 -0.3777
   30MOL    C74 5932   3.646   6.614   4.847  0.6236 -0.0529  0.1457
   30MOL    C75 5933   3.505   6.665   4.884  0.2385  0.3932  0.2815
   30MOL    N76 5934   3.383   6.579   4.882  0.3729  0.0619 -0.0500
   30MOL    H77 5935   3.716   6.698   4.850  0.9046 -0.3075  0.7557
   30MOL    H78 5936   3.650   6.562   4.752  2.1996  0.9947 -0.3840
   30MOL    H79 5937   3.507   6.698   4.988 -1.6055 -2.4239  1.2575
   30MOL    H80 5938   3.475   6.749   4.820 -2.7529 -0.6017  0.3125
   30MOL    H81 5939   3.324   6.591   4.800  0.3469  0.8441  0.0763
   30MOL    C82 5940   3.344   6.496   4.977 -1.3210  0.5883  0.0159
   30MOL    O83 5941   3.415   6.465   5.074 -0.1506 -0.3090  0.2135
   30MOL    C84 5942   3.200   6.438   4.969  0.6069  1.0871  0.7573
   30MOL    C85 5943   3.203   6.296   5.028  0.0675  1.0410 -0.7091
   30MOL    N86 5944   3.071   6.242   5.014 -0.0329 -0.0119 -0.7147
   30MOL    H87 5945   3.131   6.504   5.021 -1.0164  0.0772 -0.0663
   30MOL    H88 5946   3.150   6.424   4.873 -0.7505  0.3482  1.5544
   30MOL    H89 5947   3.286   6.231   5.001  0.8057  1.9583 -0.6837
   30MOL    H90 5948   3.223   6.314   5.133  1.5248  0.7934 -0.9386
   30MOL    H91 5949   2.999   6.299   4.973  1.3027  1.7224 -0.6649
   30MOL    C92 5950   3.049   6.108   5.023  0.4316 -0.3763 -0.0442
   30MOL    O93 5951   3.140   6.037   5.066  0.2197 -0.0086 -0.1855
   30MOL    C94 5952   2.911   6.062   4.971  0.4027 -0.0889  0.0056
   30MOL    C95 5953   2.918   5.919   4.924  0.2215  1.1443  0.0378
   30MOL    N96 5954   2.805   5.893   4.829  0.6626  0.0455 -0.8402
   30MOL    H97 5955   2.837   6.081   5.048  0.8556 -0.5297  0.5494
   30MOL    H98 5956   2.897   6.123   4.882  0.6341  1.1793  0.8276
   30MOL    H99 5957   3.016   5.895   4.882 -0.6865 -3.9555  0.4066
   30MOL   H100 5958   2.909   5.847   5.006 -0.7135  1.8082  0.5145
   30MOL   H101 5959   2.735   5.963   4.810  1.7519  0.7317 -2.3978
   30MOL   C102 5960   2.774   5.768   4.786 -0.7094 -0.3450  0.9287
   30MOL   O103 5961   2.854   5.671   4.779  0.3221 -0.1147 -0.0808
   30MOL   C104 5962   2.630   5.734   4.736 -0.2827 -0.5219  0.2060
   30MOL   C105 5963   2.563   5.647   4.837 -0.1538 -0.0843 -0.3575
   30MOL   N106 5964   2.551   5.714   4.965  0.2266  0.2069  0.3259
   30MOL   H107 5965   2.638   5.692   4.635 -1.4855 -0.6851  0.1724
   30MOL   H108 5966   2.583   5.833   4.731  0.4273 -0.1850  0.1982
   30MOL   H109 5967   2.471   5.610   4.791 -2.3643  0.3574  3.5308
   30MOL   H110 5968   2.615   5.553   4.856 -2.3616 -1.5660 -1.3861
   30MOL   H111 5969   2.619   5.694   5.037  0.3201 -0.9898 -0.0861
   30MOL   C112 5970   2.469   5.814   4.996  0.1919 -0.0902  0.4482
   30MOL   O113 5971   2.390   5.861   4.907  0.7271 -0.4461  0.4673
   30MOL   C114 5972   2.469   5.874   5.126 -0.6022 -0.2288  0.5502
   30MOL   C115 5973   2.546   6.002   5.146  1.0912 -1.0409 -0.0806
   30MOL   N116 5974   2.629   6.012   5.275  0.2406 -0.0406  0.4978
   30MOL   H117 5975   2.501   5.793   5.191  1.2069  0.7065  0.8733
   30MOL   H118 5976   2.369   5.899   5.161 -0.8647  0.0813 -0.4042
   30MOL   H119 5977   2.609   6.026   5.060 -0.5455  0.8207 -0.7778
   30MOL   H120 5978   2.472   6.081   5.151  1.2275 -0.8480 -1.0805
   30MOL   H121 5979   2.614   6.095   5.330  0.5783  0.2464  0.1619
   30MOL   C122 5980   2.729   5.923   5.299 -0.1744 -0.2978  0.2053
   30MOL   O123 5981   2.762   5.840   5.218  0.9777 -0.1158 -0.0403
   30MOL   C124 5982   2.809   5.938   5.427  0.1810 -0.0418 -0.6996
   30MOL   C125 5983   2.951   5.896   5.417 -0.7854  0.5756  0.1294
   30MOL   N126 5984   2.979   5.753   5.433 -0.6170  0.0736  0.0467
   30MOL   H127 5985   2.765   5.879   5.507  0.6724  0.3620 -0.1261
   30MOL   H128 5986   2.804   6.043   5.457  1.0677 -0.6303  1.6579
   30MOL   H129 5987   2.980   5.921   5.315 -2.4987 -0.4696 -0.6260
   30MOL   H130 5988   3.014   5.955   5.484 -1.5039 -0.9158  2.1510
   30MOL   H131 5989   2.920   5.696   5.374 -0.6444 -0.6279  0.7511
   30MOL   C132 5990   3.085   5.714   5.496  0.3328 -0.3055 -0.2907
   30MOL   O133 5991   3.166   5.792   5.546 -0.1533 -0.7541 -0.0821
   30MOL   C134 5992   3.105   5.569   5.524  0.3069  0.5067  0.3064
   30MOL   C135 5993   3.243   5.501   5.485  0.6780 -0.2532 -0.0957
   30MOL   N136 5994   3.341   5.523   5.592  0.0957 -0.3953  0.2697
   30MOL   H137 5995   3.035   5.527   5.452 -0.9122  2.0215  0.5914
   30MOL   H138 5996   3.068   5.546   5.623  0.4932  1.5316  0.6148
   30MOL   H139 5997   3.222   5.395   5.476 -2.3660  0.1879  1.1955
   30MOL   H140 5998   3.281   5.519   5.384 -1.1159  1.7249 -0.4595
   30MOL   H141 5999   3.322   5.600   5.654 -2.1883 -0.8697  0.2099
   30MOL   C142 6000   3.441   5.443   5.633 -0.4711  0.4673 -0.0445
   30MOL   O143 6001   3.468   5.339   5.575 -0.0866 -0.1766 -0.1452
   30MOL   C144 6002   3.507   5.481   5.760 -0.8053  0.6962  0.7818
   30MOL   C145 6003   3.566   5.359   5.842 -0.2320 -0.1021  0.3259
   30MOL   N146 6004   3.562   5.384   5.989  0.5527  0.3007 -0.1533
   30MOL   H147 6005   3.424   5.514   5.823 -1.0923 -1.7561  1.7608
   30MOL   H148 6006   3.574   5.559   5.725 -1.6564  0.2689 -1.8771
   30MOL   H149 6007   3.530   5.262   5.809 -0.8233  0.2648 -0.1109
   30MOL   H150 6008   3.672   5.359   5.816 -0.5383 -1.3780 -0.9448
   30MOL   H151 6009   3.648   5.392   6.041 -0.0474  4.2220  0.3617
   30MOL   C152 6010   3.449   5.384   6.066  0.4146  0.3915  0.1094
   30MOL   O153 6011   3.336   5.367   6.017  0.3532  0.0043  0.0225
   30MOL   C154 6012   3.466   5.393   6.216  0.3004 -0.5922 -0.1391
   30MOL   C155 6013   3.477   5.256   6.285  0.3222  0.1380  0.0262
   30MOL   N156 6014   3.593   5.177   6.252 -0.0325  0.3365  0.2710
   30MOL   H157 6015   3.380   5.447   6.256  0.2146  1.4324 -2.8881
   30MOL   H158 6016   3.556   5.447   6.244  1.2907 -1.8515 -0.9056
   30MOL   H159 6017   3.488   5.281   6.391  1.9945  0.0545 -0.1160
   30MOL   H160 6018   3.385   5.198   6.293  0.5943 -0.5387 -1.6449
   30MOL   H161 6019   3.577   5.123   6.168 -0.5974 -1.3107  1.4153
   30MOL   C162 6020   3.701   5.157   6.334  0.3856 -0.4929 -0.2297
   30MOL   O163 6021   3.727   5.220   6.437 -0.3731  0.6562  0.1532
   30MOL   C164 6022   3.799   5.050   6.284 -0.2866 -0.1168 -0.1032
   30MOL   C165 6023   3.921   5.016   6.377 -0.3905 -0.0149 -0.3652
   30MOL   N166 6024   3.879   4.983   6.509  0.2715 -0.3929 -0.3276
   30MOL   H167 6025   3.871   5.076   6.206  1.0264  3.0722  2.0506
   30MOL   H168 6026   3.750   4.958   6.253  0.5536  0.0222 -1.9553
   30MOL   H169 6027   3.984   4.937   6.336  0.0554  0.3734 -0.4288
   30MOL   H170 6028   3.992   5.097   6.391  0.9199 -1.4998  1.8336
   30MOL   H171 6029   3.783   4.993   6.539  1.2430 -0.4172  2.9548
   30MOL   C172 6030   3.963   4.945   6.603 -0.2480 -0.3563  0.6408
   30MOL   O173 6031   4.081   4.921   6.579  0.4608  0.1250 -0.8865
   30MOL   C174 6032   3.903   4.907   6.744  0.0714  0.0907  0.6060
   30MOL   C175 6033   3.962   4.994   6.853  0.7404  0.2786 -0.8760
   30MOL   N176 6034   3.876   5.105   6.891 -0.5054 -0.7090 -0.1444
   30MOL   H177 6035   3.936   4.810   6.779  1.7768  0.2137 -0.5868
   30MOL   H178 6036   3.795   4.912   6.730  0.0607 -3.0811 -0.9167
   30MOL   H179 6037   3.979   4.935   6.943  1.2272  1.5455 -0.1270
   30MOL   H180 6038   4.063   5.021   6.822  0.3687  1.4864 -1.0581
   30MOL   H181 6039   3.787   5.088   6.935 -1.5124  1.3602 -1.3192
   30MOL   C182 6040   3.906   5.240   6.886 -0.2770  0.4823 -0.2912
   30MOL   O183 6041   4.002   5.280   6.822 -0.0532 -0.3449 -0.3926
   30MOL   C184 6042   3.817   5.341   6.956 -0.9915 -0.9752 -0.4995
   30MOL   C185 6043   3.877   5.482   6.971 -0.1854  0.0738  0.3454
   30MOL   N186 6044   3.784   5.589   7.014 -0.2416  0.6545  0.3347
   30MOL   H187 6045   3.774   5.309   7.050  2.2368 -1.9688  0.6931
   30MOL   H188 6046   3.726   5.351   6.896 -0.7447  2.3352 -0.4176
   30MOL   H189 6047   3.961   5.470   7.040  0.9676 -0.3639 -1.1197
   30MOL   H190 6048   3.929   5.501   6.878  1.1256  3.0614  1.6301
   30MOL   H191 6049   3.710   5.603   6.946  0.6549  1.8347 -0.4214
   30MOL   C192 6050   3.787   5.656   7.129  0.8305 -0.9578  0.2228
   30MOL   O193 6051   3.874   5.641   7.216  0.0128  0.4782  0.2310
   30MOL   C194 6052   3.673   5.750   7.149 -0.4738  0.3584 -0.0946
   30MOL   C195 6053   3.650   5.800   7.290 -0.0104 -0.3022 -0.1392
   30MOL   N196 6054   3.522   5.879   7.289  0.3675  0.1400  0.6210
   30MOL   H197 6055   3.683   5.838   7.086 -0.0709  0.2107 -0.2357
   30MOL   H198 6056   3.582   5.706   7.108  0.2839  0.4620 -1.9193
   30MOL   H199 6057   3.656   5.722   7.365 -2.3792  0.4336  0.8660
   30MOL   H200 6058   3.731   5.871   7.309  0.5724 -0.7858 -0.7840
   30MOL   H201 6059   3.454   5.812   7.257 -1.3037  1.7096  0.8329
   30MOL   H202 6060   3.537   5.940   7.210 -1.6213 -0.1045  0.0200
   31MOL     C1 6061   7.413   2.149   1.680 -0.0219 -0.0416 -0.9372
   31MOL     O2 6062   7.498   2.231   1.700  0.0080 -0.3395  0.3445
   31MOL     C3 6063   7.425   2.041   1.566 -0.8309 -0.2029  0.3740
   31MOL     C4 6064   7.537   2.064   1.466 -0.5199 -0.8024 -0.2861
   31MOL     N5 6065   7.669   2.074   1.526 -0.3472  0.0534  0.0484
   31MOL     H6 6066   7.325   2.042   1.523 -0.8866 -1.1574  0.4779
   31MOL     H7 6067   7.425   1.937   1.599  1.0486  0.0460  1.1971
   31MOL     H8 6068   7.525   2.149   1.398 -2.3309 -0.7972  0.0133
   31MOL     H9 6069   7.524   1.985   1.393 -0.5977 -1.1226  0.0761
   31MOL    H10 6070   7.672   2.160   1.579 -2.1084  0.1906 -0.0588
   31MOL    H11 6071   7.324   2.154   1.742  0.5071 -1.7451  0.0061
   31MOL    C12 6072   7.741   1.967   1.549  0.6992  0.1244 -0.0049
   31MOL    O13 6073   7.731   1.860   1.488 -0.1522  0.5983 -0.1123
   31MOL    C14 6074   0.062   1.975   1.662 -0.3804  0.0707 -0.3851
   31MOL    C15 6075   0.058   1.859   1.765  0.0596  0.5847  0.4022
   31MOL    N16 6076   7.733   1.886   1.861 -0.0661  0.6005 -0.2297
   31MOL    H17 6077   0.052   2.064   1.723 -0.8797 -2.1042  2.8037
   31MOL    H18 6078   0.163   1.966   1.621 -0.4522 -1.2456 -0.2986
   31MOL    H19 6079   0.047   1.769   1.704 -0.9248  1.4487 -0.7078
   31MOL    H20 6080   0.158   1.856   1.808  0.7416  1.1598 -1.1098
   31MOL    H21 6081   7.737   1.975   1.908 -0.9513  0.9411 -0.7876
   31MOL    C22 6082   7.622   1.818   1.876 -0.2070  0.1100 -0.5500
   31MOL    O23 6083   7.605   1.706   1.826 -0.3534  0.0114  0.1873
   31MOL    C24 6084   7.513   1.877   1.972  0.3481 -0.3679  0.6114
   31MOL    C25 6085   7.396   1.779   1.997  0.3941 -0.5021 -0.7133
   31MOL    N26 6086   7.299   1.843   2.079  0.0358  0.3106 -0.4776
   31MOL    H27 6087   7.477   1.977   1.948  0.3679 -0.5146 -0.0271
   31MOL    H28 6088   7.559   1.891   2.070  0.4673  1.3801  0.3179
   31MOL    H29 6089   7.339   1.755   1.907 -0.7210 -0.2645 -0.0789
   31MOL    H30 6090   7.420   1.677   2.028 -1.3495 -0.8024 -0.3355
   31MOL    H31 6091   7.317   1.935   2.116 -0.7887 -1.0298  3.6021
   31MOL    C32 6092   7.186   1.789   2.129 -0.4881 -0.6713  0.3375
   31MOL    O33 6093   7.154   1.669   2.110 -0.1234  0.3440  0.1480
   31MOL    C34 6094   7.105   1.880   2.214 -0.5052 -0.4061 -0.0634
   31MOL    C35 6095   7.138   1.851   2.359  0.3857 -0.3412  0.6059
   31MOL    N36 6096   7.278   1.897   2.405  0.6468 -0.0650  0.3728
   31MOL    H37 6097   7.001   1.862   2.186 -0.1130 -1.0323 -1.2003
   31MOL    H38 6098   7.113   1.987   2.195  0.1887 -0.1046  1.8009
   31MOL    H39 6099   7.064   1.891   2.428 -0.2782 -0.4188 -0.0631
   31MOL    H40 6100   7.134   1.746   2.391 -0.8774 -0.3966  0.2877
   31MOL    H41 6101   7.314   1.837   2.478  1.2256  0.1487  0.2620
   31MOL    C42 6102   7.357   1.994   2.363 -0.5167 -0.1009  0.3228
   31MOL    O43 6103   7.321   2.088   2.292 -0.1242 -0.6615 -1.1140
   31MOL    C44 6104   7.503   1.983   2.395  0.0622  0.0043 -0.6129
   31MOL    C45 6105   7.551   2.094   2.497 -0.1598 -0.0122  0.5246
   31MOL    N46 6106   7.488   2.087   2.632 -0.3126  0.0268 -0.1156
   31MOL    H47 6107   7.511   1.886   2.444 -0.1167  1.0400  1.5025
   31MOL    H48 6108   7.562   1.983   2.304  0.4416  1.6737 -0.3783
   31MOL    H49 6109   7.658   2.079   2.512 -0.4704 -2.5706  0.4630
   31MOL    H50 6110   7.533   2.195   2.460  1.5233  0.0495 -0.1587
   31MOL    H51 6111   7.428   2.166   2.652  1.1777  1.4653 -1.1640
   31MOL    C52 6112   7.509   1.986   2.721 -0.2358  0.2300 -0.1088
   31MOL    O53 6113   7.595   1.900   2.706  0.1632 -0.1836 -0.3418
   31MOL    C54 6114   7.432   1.988   2.853 -0.3466 -0.5523 -0.1007
   31MOL    C55 6115   7.366   1.844   2.873  0.0496 -0.3936  0.3933
   31MOL    N56 6116   7.236   1.824   2.805 -0.1416 -0.3213 -0.0534
   31MOL    H57 6117   7.507   1.992   2.931 -1.3380 -1.4894  0.9177
   31MOL    H58 6118   7.364   2.073   2.858  2.6072  1.8731  0.0610
   31MOL    H59 6119   7.354   1.829   2.981  1.6928  2.1601  0.9546
   31MOL    H60 6120   7.429   1.769   2.825  1.5160  2.6001 -2.6011
   31MOL    H61 6121   7.237   1.743   2.746 -0.1637 -2.4891  2.7996
   31MOL    C62 6122   7.121   1.887   2.831  0.8763  0.1181  0.4785
   31MOL    O63 6123   7.113   1.960   2.927  0.4588 -0.5467  0.5007
   31MOL    C64 6124   7.003   1.881   2.734 -0.0879 -0.5322  0.0603
   31MOL    C65 6125   6.935   2.023   2.716  0.0364 -0.4445 -0.4317
   31MOL    N66 6126   7.016   2.124   2.652 -0.2109 -0.2115 -0.1261
   31MOL    H67 6127   7.034   1.833   2.641 -0.2440 -0.5439  0.0145
   31MOL    H68 6128   6.931   1.808   2.771  0.9662 -0.6124  1.9895
   31MOL    H69 6129   6.841   2.016   2.660 -1.1995 -1.6452  1.7301
   31MOL    H70 6130   6.922   2.072   2.812  1.0842 -0.2683 -0.3790
   31MOL    H71 6131   7.082   2.176   2.707  0.1632 -1.2189  0.3816
   31MOL    C72 6132   6.996   2.149   2.522  0.5325  0.2903  0.1779
   31MOL    O73 6133   6.924   2.083   2.454  0.5572 -0.1409  0.0335
   31MOL    C74 6134   7.076   2.260   2.463 -0.0508 -0.0887 -0.5195
   31MOL    C75 6135   7.042   2.287   2.316  0.2565 -0.3803  0.0744
   31MOL    N76 6136   7.060   2.433   2.283  0.0456 -0.0329  0.3997
   31MOL    H77 6137   7.058   2.345   2.528 -2.5813 -1.0823  0.1646
   31MOL    H78 6138   7.182   2.238   2.471  0.3672  2.2016  0.5733
   31MOL    H79 6139   7.085   2.213   2.249 -2.4115 -1.4837 -0.4818
   31MOL    H80 6140   6.940   2.258   2.288 -0.6490  0.7833  2.0961
   31MOL    H81 6141   7.152   2.467   2.263 -1.4708  3.5464 -0.8804
   31MOL    C82 6142   6.965   2.528   2.279 -0.3006 -0.2189  0.0593
   31MOL    O83 6143   6.850   2.491   2.283 -0.3713 -0.2334 -0.3055
   31MOL    C84 6144   7.001   2.673   2.267 -0.0629 -0.4022 -0.0539
   31MOL    C85 6145   6.930   2.748   2.155  0.6754 -0.1257  0.1320
   31MOL    N86 6146   6.787   2.773   2.186 -0.2531 -0.5037 -0.8738
   31MOL    H87 6147   6.984   2.725   2.361 -0.5305 -1.0320  0.2107
   31MOL    H88 6148   7.109   2.683   2.253 -0.3961  2.1217 -1.1877
   31MOL    H89 6149   6.981   2.844   2.147 -0.8262  0.7192  0.5421
   31MOL    H90 6150   6.933   2.699   2.057  1.4012 -1.2241  0.6916
   31MOL    H91 6151   6.773   2.776   2.286  2.8971  0.6725 -0.4121
   31MOL    C92 6152   6.693   2.826   2.106  0.6561 -0.6760  0.5481
   31MOL    O93 6153   6.709   2.847   1.984  0.8234  0.0900  0.5900
   31MOL    C94 6154   6.552   2.834   2.166  0.1802 -0.4971 -1.0153
   31MOL    C95 6155   6.446   2.902   2.082 -0.0190 -0.1816  0.3105
   31MOL    N96 6156   6.417   3.047   2.109  0.3334  0.3617 -0.7273
   31MOL    H97 6157   6.512   2.735   2.188  0.0845 -0.1733  0.2769
   31MOL    H98 6158   6.550   2.891   2.259 -0.4346 -1.9251 -0.1323
   31MOL    H99 6159   6.480   2.915   1.979 -1.6536 -1.0834 -0.3674
   31MOL   H100 6160   6.352   2.847   2.079 -1.7937  2.5174  3.0889
   31MOL   H101 6161   6.448   3.118   2.044 -1.3455  1.6966 -0.1238
   31MOL   C102 6162   6.354   3.093   2.217  0.0943 -0.0152 -1.0213
   31MOL   O103 6163   6.316   3.021   2.309  0.6016 -0.0477  0.2411
   31MOL   C104 6164   6.326   3.238   2.231 -0.4112  0.3580  0.1073
   31MOL   C105 6165   6.362   3.318   2.362  0.1003  0.1406  0.1751
   31MOL   N106 6166   6.337   3.464   2.330  0.4057  0.0748 -0.6838
   31MOL   H107 6167   6.219   3.249   2.213 -0.4358  1.3954  0.8395
   31MOL   H108 6168   6.390   3.282   2.154 -0.6636 -0.1415 -0.3923
   31MOL   H109 6169   6.292   3.294   2.442  0.2004 -1.0129 -0.0620
   31MOL   H110 6170   6.464   3.297   2.393  0.6615  1.3440 -0.8363
   31MOL   H111 6171   6.286   3.484   2.245  0.2910 -0.8976 -0.8553
   31MOL   C112 6172   6.379   3.562   2.408 -0.3581 -0.1604 -0.4612
   31MOL   O113 6173   6.424   3.537   2.522 -0.9589 -0.0931 -0.4871
   31MOL   C114 6174   6.370   3.710   2.356 -0.9885 -0.1518  0.4277
   31MOL   C115 6175   6.314   3.808   2.468 -0.0250 -0.2602 -0.2371
   31MOL   N116 6176   6.205   3.893   2.421 -0.0544  0.0765  0.3721
   31MOL   H117 6177   6.315   3.718   2.263 -0.2526  0.3270  0.0275
   31MOL   H118 6178   6.475   3.739   2.342 -0.2612 -3.3535 -1.2602
   31MOL   H119 6179   6.287   3.762   2.563 -1.6662  2.2888  0.5643
   31MOL   H120 6180   6.404   3.862   2.494 -0.2747  0.2230 -0.3734
   31MOL   H121 6181   6.112   3.868   2.452 -0.8271  2.1393 -0.2459
   31MOL   C122 6182   6.219   3.986   2.324  0.4093 -0.0189 -0.0785
   31MOL   O123 6183   6.325   3.994   2.263 -0.4578 -0.0899 -0.4324
   31MOL   C124 6184   6.107   4.091   2.295 -0.8080  0.4581  0.1261
   31MOL   C125 6185   6.144   4.223   2.210  0.0693  0.5305  0.0848
   31MOL   N126 6186   6.250   4.306   2.263 -0.3437  0.3144 -0.1574
   31MOL   H127 6187   6.087   4.121   2.399 -2.7262 -1.3939  0.3349
   31MOL   H128 6188   6.020   4.039   2.255  1.6125 -1.1452 -3.1893
   31MOL   H129 6189   6.186   4.190   2.115 -0.2579 -0.5640  0.3189
   31MOL   H130 6190   6.055   4.283   2.192  0.2036  0.1154 -2.0216
   31MOL   H131 6191   6.340   4.293   2.220 -1.2311 -0.0060 -1.9582
   31MOL   C132 6192   6.240   4.399   2.353 -0.1425  0.1896  0.7346
   31MOL   O133 6193   6.129   4.421   2.409 -0.6904 -0.6689  0.2179
   31MOL   C134 6194   6.365   4.471   2.395 -0.0408 -0.0366 -0.1081
   31MOL   C135 6195   6.338   4.570   2.512 -0.1895  0.7071 -0.4327
   31MOL   N136 6196   6.460   4.656   2.541  0.2087  0.0585 -0.2252
   31MOL   H137 6197   6.408   4.514   2.304 -0.9983  2.9428  0.8072
   31MOL   H138 6198   6.443   4.400   2.423  0.6112  0.4210 -0.7204
   31MOL   H139 6199   6.254   4.631   2.481 -0.3359  1.8017  2.0224
   31MOL   H140 6200   6.307   4.513   2.599 -0.3040  0.2054 -0.7979
   31MOL   H141 6201   6.539   4.620   2.593 -0.8259 -1.0688  0.5999
   31MOL   C142 6202   6.477   4.778   2.484 -0.4254 -0.0971  0.2564
   31MOL   O143 6203   6.393   4.829   2.414  0.4342  0.1753  0.3103
   31MOL   C144 6204   6.607   4.849   2.501  0.1545  0.1384  0.0522
   31MOL   C145 6205   6.591   4.999   2.535 -0.4163 -0.0135 -0.3050
   31MOL   N146 6206   6.549   5.041   2.672  0.2822  0.0282 -0.4783
   31MOL   H147 6207   6.655   4.833   2.404  1.8835 -2.7418  1.3021
   31MOL   H148 6208   6.663   4.807   2.585 -1.8146 -3.2440 -0.2311
   31MOL   H149 6209   6.684   5.049   2.507  0.0278 -0.2241  0.7863
   31MOL   H150 6210   6.518   5.038   2.463 -0.1286 -1.9400 -1.6798
   31MOL   H151 6211   6.463   5.089   2.697  0.4711  0.6440 -1.0052
   31MOL   C152 6212   6.626   5.003   2.775  0.1024 -0.9915 -0.0954
   31MOL   O153 6213   6.726   4.931   2.769 -0.3571 -0.2689  0.0879
   31MOL   C154 6214   6.587   5.060   2.908 -0.0676  0.5054  0.1497
   31MOL   C155 6215   6.531   4.944   2.997  0.6558  0.4621 -0.6107
   31MOL   N156 6216   6.417   4.865   2.947  0.5614 -0.5611  0.5055
   31MOL   H157 6217   6.508   5.134   2.891  0.1466  0.8930  0.8260
   31MOL   H158 6218   6.666   5.112   2.962  1.5310  0.2289 -1.8628
   31MOL   H159 6219   6.612   4.872   2.998 -0.0332 -0.3150 -0.1107
   31MOL   H160 6220   6.511   4.979   3.098  1.5295 -0.5015 -0.1036
   31MOL   H161 6221   6.361   4.917   2.880  1.7503  1.6830  1.1874
   31MOL   C162 6222   6.393   4.742   2.989 -0.0383 -0.5564  0.6757
   31MOL   O163 6223   6.455   4.686   3.078 -0.3921 -0.3876  0.0381
   31MOL   C164 6224   6.281   4.658   2.917 -0.0559 -0.5696  0.1215
   31MOL   C165 6225   6.150   4.645   2.995 -0.6468 -0.1138 -0.0939
   31MOL   N166 6226   6.164   4.589   3.129 -0.4255 -0.2121  0.5148
   31MOL   H167 6227   6.312   4.559   2.887 -0.5259 -0.1732 -1.7475
   31MOL   H168 6228   6.263   4.706   2.821  0.8074 -1.0114 -0.2637
   31MOL   H169 6229   6.103   4.743   3.000 -0.0029  0.1560  0.6727
   31MOL   H170 6230   6.075   4.585   2.942 -2.4080  0.3558  1.7870
   31MOL   H171 6231   6.248   4.612   3.181  0.3907 -0.5761 -0.6186
   31MOL   C172 6232   6.078   4.512   3.193  0.6181 -0.1724 -0.7806
   31MOL   O173 6233   5.957   4.514   3.168  0.3402  0.0235 -0.0171
   31MOL   C174 6234   6.127   4.433   3.318  0.9325  0.6482 -0.7226
   31MOL   C175 6235   6.007   4.398   3.412  0.4118 -0.0782  0.0668
   31MOL   N176 6236   5.922   4.298   3.350 -0.3027 -0.0912  0.1393
   31MOL   H177 6237   6.211   4.481   3.369  0.4946  1.6012 -0.8833
   31MOL   H178 6238   6.163   4.338   3.279  2.0713  0.4578  0.7286
   31MOL   H179 6239   6.048   4.371   3.509 -0.9674  0.2357  0.7491
   31MOL   H180 6240   5.941   4.481   3.438  1.2624  0.1068  1.6438
   31MOL   H181 6241   5.953   4.263   3.260  0.9915  1.0612  0.1362
   31MOL   C182 6242   5.801   4.262   3.388  1.0150  0.1734 -0.1078
   31MOL   O183 6243   5.740   4.312   3.484  0.0194 -0.3034 -0.0998
   31MOL   C184 6244   5.732   4.152   3.306  0.1973  0.2349 -0.3030
   31MOL   C185 6245   5.797   4.122   3.168  1.0954  0.2862 -0.1132
   31MOL   N186 6246   5.915   4.039   3.176  0.9724  0.4731  0.2388
   31MOL   H187 6247   5.631   4.189   3.290  0.3903  0.4984 -0.9057
   31MOL   H188 6248   5.723   4.063   3.369  3.0712  0.8339  1.0414
   31MOL   H189 6249   5.727   4.071   3.102 -0.3117  0.4150  1.2380
   31MOL   H190 6250   5.814   4.218   3.120 -0.9780  0.1718 -1.1709
   31MOL   H191 6251   5.909   3.951   3.226 -1.1737  0.7726  0.5538
   31MOL   C192 6252   6.041   4.079   3.156  0.2565  0.3458 -0.1352
   31MOL   O193 6253   6.068   4.184   3.104  0.0974  0.6449 -0.1941
   31MOL   C194 6254   6.150   3.979   3.185  0.3209 -0.6510 -0.7239
   31MOL   C195 6255   6.269   4.025   3.271 -0.5470  0.5881  0.4736
   31MOL   N196 6256   6.211   4.057   3.399  0.1681  0.3976  0.2786
   31MOL   H197 6257   6.102   3.891   3.228 -0.3438 -0.5835 -1.3287
   31MOL   H198 6258   6.183   3.953   3.084 -4.1044 -1.4106 -2.0573
   31MOL   H199 6259   6.337   3.940   3.280 -1.3242  0.1844  2.8671
   31MOL   H200 6260   6.316   4.117   3.237 -0.9897  1.2721  1.6801
   31MOL   H201 6261   6.136   4.122   3.384 -1.9072 -2.3443 -1.8176
   31MOL   H202 6262   6.175   3.975   3.446 -0.5800 -0.8133 -2.3199
   32MOL     C1 6263   4.885   4.281   3.415  0.6710 -0.5863  0.3678
   32MOL     O2 6264   4.892   4.155   3.421  0.0786  0.0209  0.0690
   32MOL     C3 6265   4.842   4.358   3.293  0.0726  0.2870 -0.6755
   32MOL     C4 6266   4.694   4.338   3.259  0.1275 -0.3471 -0.3043
   32MOL     N5 6267   4.656   4.352   3.118 -0.8503 -0.3864 -0.0033
   32MOL     H6 6268   4.910   4.320   3.216 -0.0425  0.8607 -1.0631
   32MOL     H7 6269   4.863   4.464   3.309 -1.1236  0.1345  2.1822
   32MOL     H8 6270   4.637   4.421   3.299 -0.1864  0.5467 -2.5226
   32MOL     H9 6271   4.657   4.244   3.299  0.7599  0.3390  1.9681
   32MOL    H10 6272   4.727   4.320   3.054 -0.7724 -0.5152  0.1464
   32MOL    H11 6273   4.902   4.345   3.501 -2.5091  1.0576 -0.1393
   32MOL    C12 6274   4.537   4.349   3.071  0.1040  0.6635 -0.1595
   32MOL    O13 6275   4.442   4.367   3.140 -0.2540  0.0458 -0.0860
   32MOL    C14 6276   4.524   4.331   2.918  0.6826  0.1665  0.0005
   32MOL    C15 6277   4.392   4.243   2.896 -0.0677 -0.5054 -0.3986
   32MOL    N16 6278   4.379   4.189   2.761  0.2125  0.4979 -0.1022
   32MOL    H17 6279   4.608   4.270   2.884  0.9394  0.7358 -0.4028
   32MOL    H18 6280   4.538   4.427   2.869  0.8988  0.6047  0.8989
   32MOL    H19 6281   4.395   4.153   2.957 -3.0404 -0.5164 -0.2006
   32MOL    H20 6282   4.303   4.301   2.920 -0.7058 -1.6729  0.0895
   32MOL    H21 6283   4.455   4.215   2.701 -1.5124  0.5309 -2.3176
   32MOL    C22 6284   4.274   4.140   2.700 -0.8198 -0.3571  0.0869
   32MOL    O23 6285   4.272   4.122   2.579  0.0106 -0.5445 -0.1789
   32MOL    C24 6286   4.151   4.103   2.780  0.8695  0.4588  0.3245
   32MOL    C25 6287   4.062   4.001   2.703  0.8647  0.1740  0.0804
   32MOL    N26 6288   3.954   3.943   2.789  0.3601 -0.2835  0.2270
   32MOL    H27 6289   4.096   4.197   2.793 -1.2840 -0.5550 -1.0930
   32MOL    H28 6290   4.169   4.049   2.873  2.4612 -0.2068 -0.3571
   32MOL    H29 6291   4.029   4.043   2.608 -1.4352  1.5497  1.4615
   32MOL    H30 6292   4.132   3.929   2.660  0.5510  1.7941 -3.3299
   32MOL    H31 6293   3.959   3.854   2.835  1.6042 -0.3641 -0.0605
   32MOL    C32 6294   3.841   4.002   2.817 -0.2558 -0.1227  0.2846
   32MOL    O33 6295   3.813   4.110   2.761  0.7821 -0.2861 -0.1189
   32MOL    C34 6296   3.735   3.924   2.901  0.0347 -0.0118 -0.2765
   32MOL    C35 6297   3.596   3.934   2.838 -0.7851 -0.1200 -0.0395
   32MOL    N36 6298   3.587   3.885   2.708  0.9273  0.0543  0.5309
   32MOL    H37 6299   3.739   3.971   2.999  0.1219  0.5896 -0.5672
   32MOL    H38 6300   3.752   3.818   2.918 -0.5008 -0.1165 -0.3856
   32MOL    H39 6301   3.532   3.873   2.901  0.2047 -1.2113 -0.0831
   32MOL    H40 6302   3.560   4.037   2.844 -1.3291 -0.4566  2.9761
   32MOL    H41 6303   3.577   3.956   2.636  0.5543 -0.6232 -0.0932
   32MOL    C42 6304   3.581   3.756   2.663  0.4779 -0.1488 -1.2456
   32MOL    O43 6305   3.578   3.666   2.743  0.5543  0.1039 -0.1806
   32MOL    C44 6306   3.559   3.736   2.513 -0.0767 -0.3601 -0.2735
   32MOL    C45 6307   3.682   3.670   2.444 -0.2304 -0.4113  0.1708
   32MOL    N46 6308   3.689   3.684   2.297 -0.0627 -0.9979 -0.2032
   32MOL    H47 6309   3.480   3.661   2.511 -0.2625 -0.1719 -0.0636
   32MOL    H48 6310   3.540   3.836   2.473  0.1186  0.0252  0.5845
   32MOL    H49 6311   3.773   3.722   2.475  0.0954 -0.2769 -0.9903
   32MOL    H50 6312   3.680   3.565   2.473  0.3761 -0.5554 -0.2912
   32MOL    H51 6313   3.595   3.681   2.259 -1.2073 -1.6104  2.5459
   32MOL    C52 6314   3.796   3.696   2.225 -0.4621  0.0253 -0.2788
   32MOL    O53 6315   3.909   3.705   2.271 -0.2156 -0.4701  0.3551
   32MOL    C54 6316   3.782   3.707   2.072  0.4341 -0.7350 -0.5286
   32MOL    C55 6317   3.801   3.846   2.010 -0.4568  0.1942 -0.2786
   32MOL    N56 6318   3.689   3.931   2.047  0.3503 -0.1516  0.3156
   32MOL    H57 6319   3.858   3.638   2.034  0.4910 -0.1851 -1.4299
   32MOL    H58 6320   3.689   3.663   2.034  0.0059  2.0964 -2.9564
   32MOL    H59 6321   3.813   3.842   1.902 -0.9414  1.1039 -0.3756
   32MOL    H60 6322   3.894   3.885   2.051 -0.1357 -0.4660 -0.3860
   32MOL    H61 6323   3.674   3.956   2.144 -1.2468  2.0042 -0.4364
   32MOL    C62 6324   3.591   3.962   1.966  0.2632 -0.0258 -0.2591
   32MOL    O63 6325   3.592   3.926   1.852 -0.4575  0.4007  0.2186
   32MOL    C64 6326   3.479   4.057   2.011 -0.1602 -0.7916 -1.1035
   32MOL    C65 6327   3.360   4.059   1.916  0.7216 -0.3021 -0.1052
   32MOL    N66 6328   3.253   3.978   1.964  0.8155 -0.2580  0.5002
   32MOL    H67 6329   3.444   4.057   2.114  2.1031 -0.7235 -0.3150
   32MOL    H68 6330   3.534   4.151   2.009  0.5340 -1.1489  0.7274
   32MOL    H69 6331   3.316   4.158   1.920  0.0399 -0.6559  1.0771
   32MOL    H70 6332   3.384   4.027   1.814  1.2198 -0.5833  0.0989
   32MOL    H71 6333   3.261   3.946   2.059  0.8519 -0.9548  0.2639
   32MOL    C72 6334   3.133   3.960   1.902 -0.1774  0.1479 -0.2193
   32MOL    O73 6335   3.113   3.978   1.780 -0.5513  0.0012 -0.9868
   32MOL    C74 6336   3.013   3.920   1.987 -0.0650  0.2791 -0.2986
   32MOL    C75 6337   2.908   3.841   1.912 -0.1224  0.1037  0.6605
   32MOL    N76 6338   2.946   3.704   1.881 -0.6193 -1.1074 -0.0226
   32MOL    H77 6339   3.060   3.862   2.066 -0.8355  0.2525  0.1455
   32MOL    H78 6340   2.959   3.996   2.045  1.2415  0.5043  0.6449
   32MOL    H79 6341   2.815   3.845   1.968 -0.0868 -1.1760  0.8159
   32MOL    H80 6342   2.887   3.891   1.817 -0.9393 -0.6014  0.4604
   32MOL    H81 6343   3.009   3.680   1.806 -0.0818  1.4877 -0.4461
   32MOL    C82 6344   2.901   3.598   1.952 -0.4196 -0.9937 -0.6577
   32MOL    O83 6345   2.842   3.615   2.064  0.3215 -0.0414 -0.3952
   32MOL    C84 6346   2.945   3.464   1.908  0.2352 -0.1560 -0.4804
   32MOL    C85 6347   2.860   3.415   1.790  0.3283  0.3989 -0.3282
   32MOL    N86 6348   2.740   3.352   1.837  0.4362  0.3378 -0.3624
   32MOL    H87 6349   3.052   3.466   1.883  0.4993 -0.5096  0.6055
   32MOL    H88 6350   2.942   3.397   1.994  1.1622  1.0478  0.5123
   32MOL    H89 6351   2.828   3.492   1.720 -0.7741  0.5712  0.3524
   32MOL    H90 6352   2.906   3.339   1.727 -0.7891 -1.2844  0.8553
   32MOL    H91 6353   2.658   3.412   1.845 -0.8055 -1.4457  0.6688
   32MOL    C92 6354   2.730   3.226   1.887 -0.7947  0.0245  1.1107
   32MOL    O93 6355   2.829   3.151   1.887 -0.3659 -0.1376 -0.1265
   32MOL    C94 6356   2.587   3.184   1.935  0.1134 -0.6516  1.0248
   32MOL    C95 6357   2.583   3.032   1.962 -0.7407 -0.6288  0.3910
   32MOL    N96 6358   2.457   2.989   2.007 -0.4160 -0.0149  0.4846
   32MOL    H97 6359   2.544   3.231   2.023  1.3077  1.6649  0.4130
   32MOL    H98 6360   2.517   3.201   1.854 -0.2191  2.5914  1.9340
   32MOL    H99 6361   2.594   2.981   1.866 -0.4357 -0.2428  0.2117
   32MOL   H100 6362   2.658   2.994   2.031  0.4663  1.5234  0.3146
   32MOL   H101 6363   2.380   3.053   2.005 -1.1843 -0.9116  0.9736
   32MOL   C102 6364   2.434   2.872   2.063 -0.5348 -0.2389  0.3479
   32MOL   O103 6365   2.525   2.792   2.081  0.2948  0.1326 -0.1782
   32MOL   C104 6366   2.292   2.847   2.117 -0.7009 -0.6360  0.2317
   32MOL   C105 6367   2.280   2.731   2.220 -0.3916  0.2037 -0.3475
   32MOL   N106 6368   2.140   2.714   2.256 -0.3981 -0.0915 -0.4283
   32MOL   H107 6369   2.222   2.839   2.033 -2.7482 -0.2939  1.8586
   32MOL   H108 6370   2.265   2.937   2.172 -0.2404 -0.5894  0.3793
   32MOL   H109 6371   2.318   2.638   2.178 -2.3350 -0.6670 -0.1742
   32MOL   H110 6372   2.350   2.754   2.300  1.3464  0.2196 -1.8279
   32MOL   H111 6373   2.090   2.662   2.185  0.6277 -1.0097 -0.4835
   32MOL   C112 6374   2.076   2.750   2.372  0.5853 -0.1677 -0.0221
   32MOL   O113 6375   2.135   2.818   2.460  0.4628  0.1824  0.6789
   32MOL   C114 6376   1.926   2.720   2.383  0.7892  0.0909 -0.0338
   32MOL   C115 6377   1.869   2.677   2.520 -0.0120  0.5080 -0.6320
   32MOL   N116 6378   1.817   2.787   2.601  0.8250  0.1700  0.3976
   32MOL   H117 6379   1.910   2.639   2.312  0.2913  0.1087  0.0583
   32MOL   H118 6380   1.869   2.805   2.344  0.4239  0.6070  1.6109
   32MOL   H119 6381   1.789   2.606   2.501 -2.1977  2.7461 -0.0103
   32MOL   H120 6382   1.942   2.630   2.586  0.3450 -0.2059 -1.5271
   32MOL   H121 6383   1.876   2.868   2.616  0.4292  0.4455  0.4617
   32MOL   C122 6384   1.710   2.778   2.681 -0.4263  0.7465 -0.7809
   32MOL   O123 6385   1.643   2.677   2.702 -0.3872 -0.3483 -0.1795
   32MOL   C124 6386   1.663   2.908   2.749  0.0220 -0.3788 -0.1590
   32MOL   C125 6387   1.658   2.899   2.905  0.0859  0.6374 -0.2748
   32MOL   N126 6388   1.587   3.012   2.964 -0.5572 -0.3187 -0.1072
   32MOL   H127 6389   1.562   2.934   2.718  0.7472  0.4530 -1.8864
   32MOL   H128 6390   1.727   2.991   2.720  0.7265 -0.4400  1.2148
   32MOL   H129 6391   1.614   2.801   2.925 -0.3791  0.5295 -1.7539
   32MOL   H130 6392   1.756   2.899   2.952 -0.6008 -2.0983  1.3056
   32MOL   H131 6393   1.597   3.105   2.927  0.4959 -0.5964 -0.5342
   32MOL   C132 6394   1.504   2.992   3.064  0.5975 -0.2238 -0.1188
   32MOL   O133 6395   1.490   2.882   3.116 -0.4783  0.4917 -0.1689
   32MOL   C134 6396   1.401   3.105   3.094 -0.6349  0.5958  0.6447
   32MOL   C135 6397   1.255   3.052   3.125 -0.2913  0.5688  0.3060
   32MOL   N136 6398   1.155   3.160   3.099  0.5387  0.1112  0.2474
   32MOL   H137 6399   1.412   3.164   3.004  2.6563 -1.0898 -0.1463
   32MOL   H138 6400   1.430   3.159   3.185 -2.6410 -1.1659  2.3910
   32MOL   H139 6401   1.238   2.958   3.071 -0.2103 -0.3705  1.8997
   32MOL   H140 6402   1.244   3.025   3.230 -2.7596  2.0064  0.4534
   32MOL   H141 6403   1.140   3.218   3.180 -0.5859  2.0329 -1.2945
   32MOL   C142 6404   1.083   3.182   2.994 -0.2404 -0.2318 -0.1254
   32MOL   O143 6405   1.074   3.101   2.900 -0.3985  0.1085  0.7253
   32MOL   C144 6406   0.998   3.305   2.992 -0.3795  0.5595  0.7612
   32MOL   C145 6407   1.044   3.416   2.899 -0.2847  0.3449 -0.2505
   32MOL   N146 6408   0.964   3.535   2.897  0.3243 -0.7205 -0.0312
   32MOL   H147 6409   0.978   3.333   3.096 -0.5780 -0.1864  0.9306
   32MOL   H148 6410   0.909   3.267   2.942  0.2805 -1.4725  1.0845
   32MOL   H149 6411   1.145   3.447   2.924 -0.2464  0.4632 -0.5469
   32MOL   H150 6412   1.067   3.379   2.799 -2.2642  1.9041 -1.3326
   32MOL   H151 6413   1.010   3.621   2.922  0.6095 -0.9287  0.1555
   32MOL   C152 6414   0.841   3.547   2.831  0.0662  0.2012  0.2205
   32MOL   O153 6415   0.780   3.451   2.765 -0.5505 -0.3295  0.3251
   32MOL   C154 6416   0.769   3.685   2.841 -0.4925  0.0161  0.0201
   32MOL   C155 6417   0.848   3.789   2.769  0.4983 -0.0980 -0.2524
   32MOL   N156 6418   0.830   3.785   2.621 -0.6560 -0.3536 -0.6271
   32MOL   H157 6419   0.756   3.706   2.947  1.2671  0.9340  0.0573
   32MOL   H158 6420   0.671   3.666   2.797 -0.6860 -0.4860  0.6538
   32MOL   H159 6421   0.810   3.885   2.804  1.6601 -0.6821  2.7942
   32MOL   H160 6422   0.955   3.776   2.783  0.5754  2.9472  2.8456
   32MOL   H161 6423   0.911   3.757   2.568 -0.0199  2.2118 -1.1174
   32MOL   C162 6424   0.727   3.843   2.549  0.2492  0.1390 -0.8055
   32MOL   O163 6425   0.621   3.889   2.591  0.0276  0.0033 -0.7101
   32MOL   C164 6426   0.757   3.868   2.398  0.0333 -0.0361 -0.1206
   32MOL   C165 6427   0.804   4.013   2.356 -0.2927  0.1870 -0.0052
   32MOL   N166 6428   0.926   4.052   2.429 -0.0424  0.2800 -0.1670
   32MOL   H167 6429   0.668   3.856   2.336  0.6073  0.5263 -1.0655
   32MOL   H168 6430   0.833   3.801   2.359 -0.4523 -1.7737  1.8068
   32MOL   H169 6431   0.818   4.027   2.249 -0.1474 -0.3913 -0.0635
   32MOL   H170 6432   0.721   4.074   2.392 -1.4831 -0.9792 -0.7343
   32MOL   H171 6433   0.914   4.086   2.523  1.6907  0.9387 -0.1673
   32MOL   C172 6434   1.052   4.031   2.378 -0.6483  0.9832 -0.2644
   32MOL   O173 6435   1.081   4.007   2.263  0.2084  0.3894 -0.1341
   32MOL   C174 6436   1.177   4.052   2.467 -0.3096 -0.3234  0.1167
   32MOL   C175 6437   1.231   3.930   2.543  0.1161  0.4066  0.2508
   32MOL   N176 6438   1.259   3.806   2.461 -0.1196 -0.3891 -0.1380
   32MOL   H177 6439   1.159   4.119   2.551  0.7819  1.5116 -1.0812
   32MOL   H178 6440   1.260   4.097   2.413  0.1000 -0.0101  1.0038
   32MOL   H179 6441   1.318   3.950   2.605  1.2686 -2.0183 -0.5252
   32MOL   H180 6442   1.153   3.909   2.616  1.3577  3.8628  2.7117
   32MOL   H181 6443   1.345   3.799   2.408 -0.0375 -0.7613  0.0422
   32MOL   C182 6444   1.183   3.694   2.459  0.0986  0.0446  0.2208
   32MOL   O183 6445   1.064   3.699   2.488  0.2301 -0.4009 -0.0376
   32MOL   C184 6446   1.254   3.560   2.435  0.3710  0.6599  0.1999
   32MOL   C185 6447   1.188   3.439   2.496  0.2542 -0.0160 -0.7901
   32MOL   N186 6448   1.284   3.339   2.522 -0.3659  0.3457 -0.2074
   32MOL   H187 6449   1.353   3.567   2.479  1.5852 -0.9472 -2.2354
   32MOL   H188 6450   1.286   3.548   2.332  0.2286 -0.4475  0.2740
   32MOL   H189 6451   1.125   3.470   2.580 -0.0513  0.5986 -1.2418
   32MOL   H190 6452   1.114   3.402   2.425 -1.0133  2.4818 -0.8314
   32MOL   H191 6453   1.317   3.288   2.442 -2.0003 -0.8591 -0.1461
   32MOL   C192 6454   1.354   3.335   2.639  0.2592  0.2959 -0.0727
   32MOL   O193 6455   1.343   3.415   2.726  0.0476  0.0929  0.1072
   32MOL   C194 6456   1.481   3.235   2.649  1.0369  0.1728 -0.4506
   32MOL   C195 6457   1.604   3.292   2.725  0.4840  0.7826  0.1680
   32MOL   N196 6458   1.599   3.300   2.865  0.1664 -0.3993  0.3541
   32MOL   H197 6459   1.446   3.145   2.699 -0.7260  1.5232  0.8322
   32MOL   H198 6460   1.510   3.209   2.547 -1.2359 -4.4355 -0.0322
   32MOL   H199 6461   1.697   3.245   2.691  1.0276  0.3187  2.2429
   32MOL   H200 6462   1.609   3.391   2.679  0.7683  1.4639  1.6326
   32MOL   H201 6463   1.657   3.375   2.899 -0.6512 -0.2868  1.5736
   32MOL   H202 6464   1.506   3.337   2.878 -0.6820 -1.8195 -1.4911
   33MOL     C1 6465   3.362   1.718   1.190 -0.0965 -0.8488  0.7867
   33MOL     O2 6466   3.355   1.706   1.314 -0.0963  0.3274  0.3497
   33MOL     C3 6467   3.418   1.610   1.095  0.8206  0.1972  0.2962
   33MOL     C4 6468   3.400   1.469   1.150 -0.0696 -0.7821 -0.0159
   33MOL     N5 6469   3.263   1.415   1.118 -0.1055  0.9148  0.4658
   33MOL     H6 6470   3.521   1.632   1.068  0.9306  0.0843  0.6189
   33MOL     H7 6471   3.361   1.617   1.003 -1.5362 -1.5260  1.5752
   33MOL     H8 6472   3.438   1.450   1.250  0.0590  2.5289  0.6106
   33MOL     H9 6473   3.480   1.418   1.097 -0.2832 -0.9615 -0.1637
   33MOL    H10 6474   3.180   1.454   1.160  0.0896 -1.2017  2.9232
   33MOL    H11 6475   3.337   1.810   1.138  0.6558  0.5080  2.7830
   33MOL    C12 6476   3.240   1.303   1.051  0.5366 -0.3868  0.8112
   33MOL    O13 6477   3.334   1.249   0.991  0.3264  0.1918 -0.1476
   33MOL    C14 6478   3.100   1.242   1.032 -0.0040  0.0573  0.5035
   33MOL    C15 6479   3.082   1.150   0.906 -0.0830 -0.7249 -0.3037
   33MOL    N16 6480   3.127   1.012   0.935 -0.2361 -0.0851 -0.6549
   33MOL    H17 6481   3.029   1.323   1.024  1.6918  1.4621 -0.7350
   33MOL    H18 6482   3.072   1.193   1.125  1.5549  0.5568  1.2597
   33MOL    H19 6483   2.974   1.135   0.908 -0.3925  1.3694  2.4031
   33MOL    H20 6484   3.124   1.202   0.820 -1.5122  0.1361 -0.5122
   33MOL    H21 6485   3.087   0.972   1.018  0.4127  1.3523  0.3780
   33MOL    C22 6486   3.224   0.948   0.874 -0.3627  0.7135  0.1418
   33MOL    O23 6487   3.258   0.833   0.910 -0.0550  0.1210 -0.2798
   33MOL    C24 6488   3.294   1.021   0.757  0.5253 -0.7828  0.4657
   33MOL    C25 6489   3.369   0.924   0.666  0.0598  0.0938  0.0787
   33MOL    N26 6490   3.389   0.985   0.531  0.5897  0.5213 -0.5013
   33MOL    H27 6491   3.350   1.110   0.784 -1.8142  1.6781 -2.4530
   33MOL    H28 6492   3.214   1.058   0.694 -0.8711 -1.0476  2.0433
   33MOL    H29 6493   3.468   0.906   0.710  0.4873 -0.5793 -1.1299
   33MOL    H30 6494   3.326   0.824   0.657  1.3135 -0.6363  1.8968
   33MOL    H31 6495   3.313   1.049   0.510  0.4577  0.8100  0.8388
   33MOL    C32 6496   3.490   0.970   0.446  0.0303  0.6866 -0.0533
   33MOL    O33 6497   3.575   0.886   0.459  0.0340  0.1279 -0.6247
   33MOL    C34 6498   3.498   1.055   0.321 -0.1923 -0.2184  0.1299
   33MOL    C35 6499   3.640   1.082   0.266 -0.1681 -0.7591 -0.0716
   33MOL    N36 6500   3.694   1.212   0.304 -0.4244  0.3397  0.1241
   33MOL    H37 6501   3.439   1.145   0.336  0.2118  0.3931 -1.8580
   33MOL    H38 6502   3.451   1.001   0.238 -2.3374  1.4679  0.1969
   33MOL    H39 6503   3.706   1.001   0.296  2.9347  0.9645 -1.9981
   33MOL    H40 6504   3.635   1.093   0.157 -1.1632  0.8477  0.1123
   33MOL    H41 6505   3.698   1.286   0.235  2.6216 -0.9291 -1.1528
   33MOL    C42 6506   3.759   1.232   0.424  0.7319 -0.3015 -1.0529
   33MOL    O43 6507   3.758   1.138   0.506  0.1869  0.3449 -0.8617
   33MOL    C44 6508   3.823   1.374   0.445 -0.1875  0.5348  0.5091
   33MOL    C45 6509   3.947   1.355   0.536  0.4205 -0.0970 -0.8382
   33MOL    N46 6510   4.003   1.479   0.592 -0.1885  0.5307 -0.6204
   33MOL    H47 6511   3.840   1.434   0.355  0.2780 -0.6247 -0.1810
   33MOL    H48 6512   3.753   1.425   0.512  0.4372 -1.2395  2.5621
   33MOL    H49 6513   3.925   1.285   0.616 -2.8421  0.0303 -1.5583
   33MOL    H50 6514   4.031   1.301   0.493  2.4008  0.8512  1.6595
   33MOL    H51 6515   4.015   1.475   0.692  1.2921  0.1557 -0.8085
   33MOL    C52 6516   4.033   1.591   0.525 -0.1334  0.0543 -0.0976
   33MOL    O53 6517   4.020   1.603   0.406  0.1931  0.7626 -0.1414
   33MOL    C54 6518   4.076   1.710   0.619  0.4048 -0.5557 -0.5675
   33MOL    C55 6519   4.124   1.843   0.550  0.5570 -0.0252 -0.1449
   33MOL    N56 6520   4.018   1.942   0.520  1.0375  0.5755 -0.0674
   33MOL    H57 6521   3.988   1.734   0.678 -0.2729 -2.9852 -0.5239
   33MOL    H58 6522   4.154   1.669   0.682  0.7538 -0.4611 -0.9327
   33MOL    H59 6523   4.193   1.816   0.470  0.8689 -3.7827  1.3138
   33MOL    H60 6524   4.189   1.890   0.623 -1.7427  2.8122  0.1601
   33MOL    H61 6525   3.927   1.932   0.562  0.9766  1.1655 -0.0521
   33MOL    C62 6526   4.036   2.053   0.451  0.1770  0.0295 -0.1814
   33MOL    O63 6527   4.148   2.097   0.424  0.2434 -0.1189  0.0526
   33MOL    C64 6528   3.907   2.139   0.434  0.6218  0.0933  0.0596
   33MOL    C65 6529   3.948   2.290   0.430  0.7555 -0.2120  0.0258
   33MOL    N66 6530   4.008   2.321   0.303  0.6290  0.1565 -0.5305
   33MOL    H67 6531   3.832   2.103   0.362  0.1804  0.2051  0.4600
   33MOL    H68 6532   3.864   2.134   0.534  1.8228  1.6977  0.6683
   33MOL    H69 6533   3.858   2.347   0.453  1.1528  2.2541 -4.0427
   33MOL    H70 6534   4.021   2.317   0.506  0.1736 -0.2273  0.6014
   33MOL    H71 6535   4.103   2.354   0.292  0.2251  0.5758 -3.0203
   33MOL    C72 6536   3.944   2.324   0.182 -0.0347  0.2208  0.1883
   33MOL    O73 6537   3.826   2.297   0.175  0.0783 -0.0125  0.3406
   33MOL    C74 6538   4.026   2.363   0.064  0.0250 -0.8044  0.2881
   33MOL    C75 6539   4.148   2.267   0.041  0.0235 -0.3146  0.2903
   33MOL    N76 6540   4.262   2.258   0.135  0.1760 -0.3626 -0.2017
   33MOL    H77 6541   3.952   2.359   7.764  1.0930 -0.1859 -0.7517
   33MOL    H78 6542   4.056   2.467   0.076 -0.5829 -0.5934  0.0046
   33MOL    H79 6543   4.109   2.167   0.019 -1.1326  0.0279  0.7439
   33MOL    H80 6544   4.199   2.306   7.734 -0.4707  0.2333  0.2390
   33MOL    H81 6545   4.279   2.167   0.175 -0.5409 -1.7028 -2.8594
   33MOL    C82 6546   4.329   2.364   0.186  0.2062  1.1214 -0.1211
   33MOL    O83 6547   4.305   2.483   0.161  0.7055 -0.5401 -0.0553
   33MOL    C84 6548   4.433   2.325   0.291 -0.2372  0.5687 -0.1586
   33MOL    C85 6549   4.461   2.433   0.409 -0.1541 -0.7198  0.6875
   33MOL    N86 6550   4.370   2.424   0.525  0.0413  0.0590  0.2113
   33MOL    H87 6551   4.409   2.223   0.322 -0.4912  0.8541  0.5672
   33MOL    H88 6552   4.525   2.331   0.232  0.7275  0.5077  1.3253
   33MOL    H89 6553   4.563   2.409   0.440 -0.5867 -2.9469  0.4692
   33MOL    H90 6554   4.471   2.536   0.374 -0.5171 -0.5757  1.0032
   33MOL    H91 6555   4.278   2.467   0.518  0.3069  0.6439  0.2841
   33MOL    C92 6556   4.400   2.366   0.642 -0.5759 -0.8131  0.4536
   33MOL    O93 6557   4.517   2.330   0.676 -0.0414 -0.7206 -0.3174
   33MOL    C94 6558   4.282   2.350   0.733 -0.3808  0.0962 -0.0967
   33MOL    C95 6559   4.309   2.304   0.882  0.2488  0.1805  0.6974
   33MOL    N96 6560   4.359   2.173   0.914 -0.3336 -0.1442 -0.3244
   33MOL    H97 6561   4.232   2.447   0.735 -0.3169  0.1032  2.3957
   33MOL    H98 6562   4.198   2.293   0.694 -0.4760  0.1222  0.0723
   33MOL    H99 6563   4.382   2.369   0.929 -0.8190  0.5568  1.8679
   33MOL   H100 6564   4.227   2.320   0.951  0.0687  0.5830  0.3960
   33MOL   H101 6565   4.460   2.168   0.923 -0.1561  0.7990 -1.5871
   33MOL   C102 6566   4.290   2.059   0.913  0.0311 -0.4003  0.1523
   33MOL   O103 6567   4.179   2.065   0.871 -0.1757 -0.1300  0.0596
   33MOL   C104 6568   4.337   1.925   0.970  0.3151  0.0471  0.6090
   33MOL   C105 6569   4.321   1.806   0.885 -1.0533  0.3922  0.6514
   33MOL   N106 6570   4.344   1.683   0.961  0.3322  0.1985  0.0854
   33MOL   H107 6571   4.276   1.914   1.060 -1.2907  0.0124 -0.4677
   33MOL   H108 6572   4.443   1.925   0.996  0.4319  2.8081  0.3131
   33MOL   H109 6573   4.219   1.803   0.846 -0.3492  0.1162 -1.2245
   33MOL   H110 6574   4.393   1.814   0.803 -0.4019 -0.2189  1.1531
   33MOL   H111 6575   4.355   1.689   1.061  0.6688 -0.4965  0.0909
   33MOL   C112 6576   4.364   1.558   0.916 -0.7622 -0.1215 -0.0244
   33MOL   O113 6577   4.383   1.530   0.799 -0.4102 -0.3887  0.2285
   33MOL   C114 6578   4.380   1.454   1.028 -0.2470 -0.4575  0.0022
   33MOL   C115 6579   4.273   1.343   1.036 -0.4249  0.2597 -0.2424
   33MOL   N116 6580   4.138   1.388   1.082 -0.4088 -0.4279 -0.0192
   33MOL   H117 6581   4.394   1.503   1.124  1.1769 -0.7354 -0.0566
   33MOL   H118 6582   4.477   1.406   1.018  0.3035  0.8616 -1.1932
   33MOL   H119 6583   4.268   1.304   0.934  0.7633  2.2335 -1.0894
   33MOL   H120 6584   4.303   1.265   1.105 -0.3535  1.1393  0.7315
   33MOL   H121 6585   4.124   1.404   1.181  1.6914 -2.2920  0.6144
   33MOL   C122 6586   4.043   1.422   0.998 -0.4412  0.2855  0.1866
   33MOL   O123 6587   4.053   1.418   0.873  0.2039 -0.8748 -0.6488
   33MOL   C124 6588   3.917   1.475   1.058  0.4695 -0.3366 -0.6301
   33MOL   C125 6589   3.794   1.380   1.049 -0.0211 -0.0361  0.0992
   33MOL   N126 6590   3.766   1.326   1.187 -0.8923 -0.5747  0.2159
   33MOL   H127 6591   3.895   1.568   1.006 -0.4868  0.5597  1.3116
   33MOL   H128 6592   3.944   1.495   1.162 -0.7622  0.1074 -0.3877
   33MOL   H129 6593   3.702   1.422   1.009 -0.0833  0.0063  0.2867
   33MOL   H130 6594   3.819   1.295   0.985 -1.1131 -0.5453  0.3394
   33MOL   H131 6595   3.796   1.231   1.202  0.6706 -0.1106  0.0881
   33MOL   C132 6596   3.719   1.401   1.282  0.3840 -0.3110 -0.4407
   33MOL   O133 6597   3.691   1.519   1.270 -0.0701  0.0735  0.2980
   33MOL   C134 6598   3.709   1.337   1.425  0.0729  0.4827  0.6461
   33MOL   C135 6599   3.561   1.286   1.457 -0.0332  0.2442 -0.0931
   33MOL   N136 6600   3.481   1.385   1.528 -0.2774  0.1801 -0.3535
   33MOL   H137 6601   3.741   1.402   1.506 -0.0972  0.6963  0.5409
   33MOL   H138 6602   3.782   1.256   1.428  1.2756  1.5890  1.8690
   33MOL   H139 6603   3.503   1.252   1.371  0.1609  0.7947 -0.4441
   33MOL   H140 6604   3.556   1.200   1.524 -3.8411  0.5051  0.0547
   33MOL   H141 6605   3.513   1.475   1.561  1.7211 -1.1939  1.5580
   33MOL   C142 6606   3.351   1.387   1.538  0.7032 -0.1083  0.4050
   33MOL   O143 6607   3.275   1.296   1.493  0.2200  0.5237  0.3633
   33MOL   C144 6608   3.292   1.511   1.604  0.3771 -0.4135  0.3684
   33MOL   C145 6609   3.149   1.479   1.653 -0.2913  0.8066  0.6370
   33MOL   N146 6610   3.087   1.581   1.736 -0.2109 -0.9430  0.3651
   33MOL   H147 6611   3.292   1.593   1.532 -0.2818 -0.0064  0.8334
   33MOL   H148 6612   3.347   1.538   1.695 -2.5900  0.5092  1.9432
   33MOL   H149 6613   3.082   1.478   1.567 -0.7023  3.7136  0.8857
   33MOL   H150 6614   3.149   1.382   1.703  1.2263  0.5192  0.0911
   33MOL   H151 6615   3.044   1.662   1.693  0.7100 -1.4824 -1.6137
   33MOL   C152 6616   3.090   1.576   1.874  0.3776  0.3800  0.6305
   33MOL   O153 6617   3.133   1.477   1.936  0.2054  0.1593 -0.4381
   33MOL   C154 6618   3.018   1.687   1.955  0.1222 -0.3080  0.4895
   33MOL   C155 6619   2.955   1.656   2.089 -0.2187 -0.3758 -0.6207
   33MOL   N156 6620   2.842   1.574   2.060  0.2944  0.0720 -0.1270
   33MOL   H157 6621   2.959   1.749   1.888  0.9038  1.3560  1.3270
   33MOL   H158 6622   3.099   1.757   1.977 -0.9863  0.5254  2.0149
   33MOL   H159 6623   3.022   1.610   2.161 -0.2688  0.4545 -0.0398
   33MOL   H160 6624   2.942   1.754   2.133 -1.6034 -0.0507 -1.6892
   33MOL   H161 6625   2.860   1.475   2.059  0.4719  0.1028  0.1626
   33MOL   C162 6626   2.718   1.618   2.035 -0.4484  0.4944  0.2071
   33MOL   O163 6627   2.693   1.736   2.032  0.2960 -0.2021  0.1875
   33MOL   C164 6628   2.608   1.510   2.010  0.6347 -0.3222 -0.2489
   33MOL   C165 6629   2.643   1.418   1.897  0.1574 -0.1179 -0.2072
   33MOL   N166 6630   2.719   1.299   1.933 -0.3011  0.1444  0.1436
   33MOL   H167 6631   2.516   1.558   1.979 -0.6073 -2.3589  0.2012
   33MOL   H168 6632   2.581   1.467   2.106 -0.3465 -0.4121 -0.5623
   33MOL   H169 6633   2.553   1.382   1.848  0.7384 -1.3736 -0.3727
   33MOL   H170 6634   2.691   1.472   1.815  1.3856  0.7865  1.0658
   33MOL   H171 6635   2.712   1.263   2.027 -1.1613 -0.0734  0.0056
   33MOL   C172 6636   2.812   1.247   1.850 -0.6553  0.8492  0.5888
   33MOL   O173 6637   2.816   1.279   1.730 -0.7994  0.2734 -0.2782
   33MOL   C174 6638   2.910   1.144   1.919  0.1473  0.0758 -0.3477
   33MOL   C175 6639   3.057   1.157   1.882 -0.5793  0.1929  0.2455
   33MOL   N176 6640   3.121   1.025   1.893 -0.7019 -0.0388 -0.1094
   33MOL   H177 6641   2.880   1.040   1.903 -0.7885  0.0071  1.6133
   33MOL   H178 6642   2.895   1.153   2.027  0.1790  2.4320 -0.5317
   33MOL   H179 6643   3.072   1.215   1.791  0.9013 -0.8358 -0.1806
   33MOL   H180 6644   3.099   1.222   1.958  0.8373 -1.0635  0.5595
   33MOL   H181 6645   3.148   0.995   1.985  0.1997  0.1477 -0.3070
   33MOL   C182 6646   3.151   0.939   1.797 -0.5920  0.3025 -0.1681
   33MOL   O183 6647   3.136   0.969   1.679  0.0722 -0.6367 -0.2354
   33MOL   C184 6648   3.209   0.801   1.843  0.1917 -0.1006  0.3003
   33MOL   C185 6649   3.271   0.706   1.736 -0.6317 -0.7382 -0.5144
   33MOL   N186 6650   3.416   0.708   1.738 -0.4021  0.5317 -0.5880
   33MOL   H187 6651   3.125   0.745   1.884 -0.6143  1.3701  0.6853
   33MOL   H188 6652   3.287   0.814   1.918  2.4545 -2.0750 -1.6393
   33MOL   H189 6653   3.226   0.607   1.743 -0.2974 -0.8151  0.7943
   33MOL   H190 6654   3.234   0.742   1.640 -0.5410 -0.3773 -0.4127
   33MOL   H191 6655   3.475   0.765   1.680  0.9953  0.3802  0.6700
   33MOL   C192 6656   3.485   0.609   1.808  0.3316  0.1669  0.7940
   33MOL   O193 6657   3.430   0.545   1.899 -0.0066  0.1867 -0.4975
   33MOL   C194 6658   3.635   0.600   1.772 -0.2061 -0.1780  0.0373
   33MOL   C195 6659   3.708   0.510   1.883 -0.2100  0.2417 -0.2610
   33MOL   N196 6660   3.851   0.490   1.841 -0.0565 -0.3474  0.3315
   33MOL   H197 6661   3.656   0.566   1.670  2.4650  0.6877  0.2472
   33MOL   H198 6662   3.667   0.704   1.770  1.1705 -0.5833  0.2746
   33MOL   H199 6663   3.693   0.544   1.985 -1.0043  1.9674 -0.9363
   33MOL   H200 6664   3.664   0.410   1.881 -0.7515  0.4963 -1.9390
   33MOL   H201 6665   3.897   0.430   1.909  0.5748  0.7903  0.9325
   33MOL   H202 6666   3.869   0.452   1.750  0.2539  0.3214  0.1077
   34MOL     C1 6667   6.469   0.638   5.022 -0.0234 -1.0071 -0.4842
   34MOL     O2 6668   6.563   0.576   5.078 -0.1381  0.0565 -0.3003
   34MOL     C3 6669   6.468   0.787   5.004 -0.0095 -0.0395 -0.0607
   34MOL     C4 6670   6.591   0.832   4.932 -0.4237 -0.6269 -0.2255
   34MOL     N5 6671   6.591   0.784   4.788 -0.2587 -0.2245  0.8095
   34MOL     H6 6672   6.465   0.850   5.092 -2.2275  0.6874 -0.6047
   34MOL     H7 6673   6.378   0.804   4.944  0.0093 -0.8340 -0.3250
   34MOL     H8 6674   6.668   0.772   4.979 -0.0202  0.2747  0.2823
   34MOL     H9 6675   6.614   0.938   4.943 -3.0010 -0.1379  0.8040
   34MOL    H10 6676   6.627   0.690   4.776 -0.4509 -0.4475  1.8978
   34MOL    H11 6677   6.391   0.578   4.976 -0.8448  0.3807 -0.9115
   34MOL    C12 6678   6.573   0.855   4.678 -0.4437 -0.1117 -0.4011
   34MOL    O13 6679   6.532   0.974   4.683 -0.2337  0.5581  0.5106
   34MOL    C14 6680   6.605   0.781   4.547  0.3124  0.8069 -0.5490
   34MOL    C15 6681   6.619   0.876   4.425 -0.1935 -0.2855  0.3640
   34MOL    N16 6682   6.650   0.806   4.303  0.6728 -0.5054 -0.4240
   34MOL    H17 6683   6.517   0.718   4.538  1.5813 -0.8488 -1.8016
   34MOL    H18 6684   6.692   0.716   4.559  0.8125  1.3846 -0.9904
   34MOL    H19 6685   6.528   0.926   4.392  0.6784 -0.0501 -1.8178
   34MOL    H20 6686   6.697   0.949   4.445 -1.0170  1.1068 -1.3562
   34MOL    H21 6687   6.746   0.799   4.274  1.3712  0.8467  1.4570
   34MOL    C22 6688   6.565   0.739   4.217  0.0173  0.0315  0.2522
   34MOL    O23 6689   6.444   0.736   4.241  0.0869  0.5591  0.0957
   34MOL    C24 6690   6.625   0.658   4.098  0.2721 -0.1241  0.1922
   34MOL    C25 6691   6.565   0.706   3.965  0.1916  0.3302  0.0309
   34MOL    N26 6692   6.620   0.831   3.921  0.2018 -0.4554 -0.1304
   34MOL    H27 6693   6.594   0.554   4.108  1.8802 -0.5803  0.5616
   34MOL    H28 6694   6.733   0.661   4.103  0.3387 -2.6917  1.5301
   34MOL    H29 6695   6.584   0.644   3.878 -1.8050  0.5718 -0.6004
   34MOL    H30 6696   6.459   0.729   3.979 -0.1929 -1.4904  0.1733
   34MOL    H31 6697   6.717   0.852   3.938 -0.2135  1.9206 -0.5836
   34MOL    C32 6698   6.564   0.901   3.819 -0.3679 -1.0858  1.2664
   34MOL    O33 6699   6.447   0.884   3.776  0.4126 -0.1187  0.2658
   34MOL    C34 6700   6.655   1.010   3.764 -0.1333 -0.4500  0.7528
   34MOL    C35 6701   6.631   1.146   3.824 -1.3842 -0.1456 -0.1833
   34MOL    N36 6702   6.738   1.189   3.917  0.1188 -0.0161  0.3102
   34MOL    H37 6703   6.624   1.016   3.660 -0.9092 -0.0841  1.0070
   34MOL    H38 6704   6.761   0.982   3.762  1.2302  4.2069  0.6252
   34MOL    H39 6705   6.641   1.224   3.748 -0.1375  0.3068  0.4326
   34MOL    H40 6706   6.536   1.159   3.876 -1.9221 -0.9933 -0.9235
   34MOL    H41 6707   6.825   1.211   3.869 -1.2281  1.5695 -1.4637
   34MOL    C42 6708   6.722   1.195   4.047 -0.2153  0.3381  0.2699
   34MOL    O43 6709   6.611   1.186   4.100 -0.2637 -0.7814 -0.0912
   34MOL    C44 6710   6.850   1.214   4.131  0.2710 -0.0880  0.0677
   34MOL    C45 6711   6.827   1.265   4.276  0.1782  0.7833 -0.0557
   34MOL    N46 6712   6.801   1.407   4.276 -0.1349  0.4775 -0.4896
   34MOL    H47 6713   6.903   1.119   4.127 -3.7046 -2.3888 -1.7148
   34MOL    H48 6714   6.912   1.291   4.083  0.1499 -0.5458 -0.8374
   34MOL    H49 6715   6.737   1.213   4.311 -1.3084  2.9421 -0.5739
   34MOL    H50 6716   6.917   1.235   4.330 -1.0089 -2.5796  0.1594
   34MOL    H51 6717   6.731   1.433   4.208 -2.3206 -1.7807  0.8095
   34MOL    C52 6718   6.850   1.499   4.362  0.1547 -0.0620 -0.0383
   34MOL    O53 6719   6.926   1.469   4.453 -0.1633 -0.0086  0.0324
   34MOL    C54 6720   6.795   1.643   4.349  0.5413  0.2945 -0.1808
   34MOL    C55 6721   6.741   1.690   4.480 -0.1540  0.1099 -0.5607
   34MOL    N56 6722   6.601   1.668   4.487 -0.0089  0.3069 -0.4462
   34MOL    H57 6723   6.891   1.692   4.335  0.9542 -0.3341  0.4408
   34MOL    H58 6724   6.735   1.669   4.262 -2.1291 -1.4508  1.0762
   34MOL    H59 6725   6.774   1.793   4.495 -0.3640  0.0593  0.3052
   34MOL    H60 6726   6.775   1.638   4.569  0.4413  0.5392 -0.5297
   34MOL    H61 6727   6.572   1.571   4.479 -1.1759  0.5498  0.7554
   34MOL    C62 6728   6.510   1.766   4.476 -0.0993  0.1405 -0.0990
   34MOL    O63 6729   6.540   1.881   4.503 -0.1878 -0.7349  0.1047
   34MOL    C64 6730   6.369   1.734   4.425 -0.2070  0.5934  0.5546
   34MOL    C65 6731   6.266   1.848   4.433 -0.3767  0.4204  0.0348
   34MOL    N66 6732   6.252   1.941   4.311 -0.2656  0.1141  0.5384
   34MOL    H67 6733   6.364   1.683   4.328  0.2372 -1.8936  1.8018
   34MOL    H68 6734   6.337   1.660   4.498  1.0833  1.4261  1.9691
   34MOL    H69 6735   6.170   1.805   4.462  0.2872 -0.8952  0.3018
   34MOL    H70 6736   6.289   1.913   4.518  2.5519 -0.6166  0.0668
   34MOL    H71 6737   6.236   1.898   4.221  0.9022  1.2964 -0.2562
   34MOL    C72 6738   6.277   2.072   4.307  0.3281 -0.2460 -0.0785
   34MOL    O73 6739   6.303   2.135   4.408 -0.1388 -0.2252 -0.1337
   34MOL    C74 6740   6.284   2.133   4.172  0.2854  0.0791 -0.3931
   34MOL    C75 6741   6.314   2.279   4.179  0.3827  0.2127 -0.6674
   34MOL    N76 6742   6.357   2.348   4.056  0.7926 -0.3449 -0.7007
   34MOL    H77 6743   6.365   2.071   4.135 -0.3463 -0.1985 -1.3119
   34MOL    H78 6744   6.188   2.108   4.127 -0.9955 -0.5696  2.5602
   34MOL    H79 6745   6.220   2.329   4.202 -0.9338 -3.0235  1.2852
   34MOL    H80 6746   6.384   2.303   4.258  0.0886 -0.4678 -0.1936
   34MOL    H81 6747   6.457   2.359   4.049  1.1169 -2.4105  0.2464
   34MOL    C82 6748   6.286   2.367   3.949  0.9045 -0.2395 -0.9440
   34MOL    O83 6749   6.165   2.358   3.956  0.6510  0.0078 -0.0341
   34MOL    C84 6750   6.365   2.401   3.820 -0.4590 -0.4852 -0.7160
   34MOL    C85 6751   6.330   2.544   3.765 -0.4424 -0.2552  0.2397
   34MOL    N86 6752   6.408   2.566   3.646 -0.4027 -0.2488  0.3914
   34MOL    H87 6753   6.470   2.371   3.826 -0.4289 -0.0096  1.4441
   34MOL    H88 6754   6.333   2.342   3.734 -0.5947 -0.5199 -0.6426
   34MOL    H89 6755   6.223   2.544   3.742 -0.2563 -0.9325 -0.6630
   34MOL    H90 6756   6.357   2.620   3.838  0.0599  0.2198 -0.4361
   34MOL    H91 6757   6.500   2.607   3.655  0.0051 -1.0138 -0.2922
   34MOL    C92 6758   6.365   2.538   3.519 -0.3709 -0.2490  0.2061
   34MOL    O93 6759   6.267   2.466   3.501  0.0150  0.4820 -0.0830
   34MOL    C94 6760   6.442   2.584   3.401 -0.1063  0.3085  0.4304
   34MOL    C95 6761   6.494   2.470   3.301  0.2165 -0.6538  0.4513
   34MOL    N96 6762   6.420   2.464   3.173  0.2843  0.3930  0.1569
   34MOL    H97 6763   6.374   2.647   3.343  0.0338 -0.2893 -0.3972
   34MOL    H98 6764   6.519   2.653   3.434  1.2652 -0.9866 -0.0203
   34MOL    H99 6765   6.600   2.487   3.280  0.3285 -1.4276  0.3631
   34MOL   H100 6766   6.506   2.377   3.358 -0.7587 -1.1801 -0.1857
   34MOL   H101 6767   6.344   2.527   3.150  0.5411  0.8994  0.6592
   34MOL   C102 6768   6.445   2.372   3.076 -0.5210 -0.2673 -0.3406
   34MOL   O103 6769   6.532   2.294   3.089 -0.4301 -0.0030 -0.0121
   34MOL   C104 6770   6.343   2.358   2.964 -0.2757  0.1342 -0.2017
   34MOL   C105 6771   6.411   2.318   2.824 -0.1038 -0.3317 -0.2304
   34MOL   N106 6772   6.400   2.172   2.809 -0.0095  0.1234 -0.9728
   34MOL   H107 6773   6.303   2.456   2.938  0.3333  0.2041 -0.8974
   34MOL   H108 6774   6.255   2.301   2.992 -1.0956  2.3133  1.7895
   34MOL   H109 6775   6.366   2.360   2.734 -0.2053  0.1125  0.0247
   34MOL   H110 6776   6.516   2.346   2.820  0.4624 -2.2916  0.4167
   34MOL   H111 6777   6.355   2.132   2.891 -1.0457  0.5204 -1.3332
   34MOL   C112 6778   6.457   2.086   2.722  0.4104 -0.2303  0.6426
   34MOL   O113 6779   6.523   2.124   2.620  0.3537  0.0005 -0.5873
   34MOL   C114 6780   6.451   1.936   2.758 -0.2015  0.3764 -0.1442
   34MOL   C115 6781   6.367   1.844   2.664 -0.1428  0.3502  0.6173
   34MOL   N116 6782   6.405   1.701   2.678  0.4457 -0.8355  0.0143
   34MOL   H117 6783   6.425   1.922   2.863  2.6289 -1.0666  0.4220
   34MOL   H118 6784   6.552   1.894   2.754  0.0230  1.0546 -1.9868
   34MOL   H119 6785   6.261   1.868   2.675  0.2233  2.8307 -0.8084
   34MOL   H120 6786   6.384   1.857   2.557  4.7650 -0.8507  1.1190
   34MOL   H121 6787   6.493   1.684   2.726  1.3419  2.3681 -0.3511
   34MOL   C122 6788   6.327   1.602   2.627 -0.0938  0.0940 -0.4857
   34MOL   O123 6789   6.221   1.623   2.570  0.0126  0.1359 -0.3554
   34MOL   C124 6790   6.383   1.458   2.636 -0.1615  0.0460 -0.0657
   34MOL   C125 6791   6.395   1.399   2.779 -0.3277 -0.1601  0.1779
   34MOL   N126 6792   6.265   1.407   2.851  0.0056  0.2651  0.4883
   34MOL   H127 6793   6.484   1.456   2.595  0.2959 -2.5531  1.0518
   34MOL   H128 6794   6.318   1.396   2.574 -1.7000  1.5510  0.0205
   34MOL   H129 6795   6.434   1.297   2.773  0.4678  0.1234  0.3769
   34MOL   H130 6796   6.466   1.456   2.838 -1.5434  1.4865  0.0639
   34MOL   H131 6797   6.176   1.392   2.805  0.1075  1.1598 -0.0131
   34MOL   C132 6798   6.241   1.398   2.982 -0.7998 -0.0594  0.0094
   34MOL   O133 6799   6.335   1.394   3.065 -0.5334  0.0749  0.1989
   34MOL   C134 6800   6.099   1.392   3.035 -0.1453  0.0163  0.3142
   34MOL   C135 6801   6.054   1.263   3.110  0.8526 -0.3838 -0.4262
   34MOL   N136 6802   5.912   1.249   3.083 -0.2191  0.3352  0.0204
   34MOL   H137 6803   6.033   1.401   2.949  1.5131  2.5079 -0.7563
   34MOL   H138 6804   6.080   1.478   3.099  0.0899 -0.5132  1.1052
   34MOL   H139 6805   6.111   1.177   3.075 -0.8181 -0.5855 -2.7031
   34MOL   H140 6806   6.082   1.266   3.216  1.1858 -1.9796 -0.4583
   34MOL   H141 6807   5.875   1.256   2.989 -1.7471 -1.3251  0.4707
   34MOL   C142 6808   5.814   1.219   3.169 -0.3652  0.1416 -0.0144
   34MOL   O143 6809   5.842   1.196   3.289 -0.2270  0.4414  0.0528
   34MOL   C144 6810   5.672   1.213   3.115 -0.4442 -0.6726 -0.0577
   34MOL   C145 6811   5.562   1.265   3.196  0.7145 -0.3664  0.7320
   34MOL   N146 6812   5.425   1.225   3.142 -0.4401 -0.3213  0.6343
   34MOL   H147 6813   5.659   1.110   3.081  0.3118 -1.1111  0.9744
   34MOL   H148 6814   5.673   1.277   3.026  0.8364  2.4092  2.0950
   34MOL   H149 6815   5.570   1.212   3.291  2.6435  0.3799  1.0130
   34MOL   H150 6816   5.569   1.373   3.205 -2.5989 -0.1797  1.4187
   34MOL   H151 6817   5.405   1.127   3.128  0.7656 -0.6001  0.8145
   34MOL   C152 6818   5.317   1.303   3.137 -0.0928  0.1739 -0.4848
   34MOL   O153 6819   5.334   1.422   3.164 -0.6269  0.3613  0.1217
   34MOL   C154 6820   5.183   1.245   3.099  0.4365 -0.9276  0.1370
   34MOL   C155 6821   5.088   1.238   3.224  0.1294  0.6185  0.0981
   34MOL   N156 6822   5.126   1.133   3.318 -0.0097  0.4019  0.0408
   34MOL   H157 6823   5.206   1.153   3.046 -2.0311 -0.5289 -1.7302
   34MOL   H158 6824   5.146   1.319   3.028  0.9778  0.5096  1.3053
   34MOL   H159 6825   5.077   1.330   3.281 -0.9441 -1.4438  3.3590
   34MOL   H160 6826   4.987   1.224   3.186  0.2623  1.3005 -0.5175
   34MOL   H161 6827   5.192   1.158   3.390  0.9155 -1.7419 -0.0419
   34MOL   C162 6828   5.105   1.001   3.311  0.0404 -0.4283 -0.5108
   34MOL   O163 6829   5.041   0.945   3.223  0.2797 -0.1144  0.2602
   34MOL   C164 6830   5.165   0.918   3.427  0.4703  0.4597  0.2938
   34MOL   C165 6831   5.305   0.864   3.384  0.2014  0.1589 -0.3028
   34MOL   N166 6832   5.308   0.776   3.264 -0.5084  0.7260 -0.6220
   34MOL   H167 6833   5.092   0.839   3.444  2.8444 -1.9215 -0.0704
   34MOL   H168 6834   5.166   0.978   3.518  2.8735  0.1728  0.4925
   34MOL   H169 6835   5.370   0.951   3.385  0.3296  0.0556  0.4033
   34MOL   H170 6836   5.330   0.799   3.468 -3.6073 -0.8260  0.1727
   34MOL   H171 6837   5.266   0.684   3.272 -1.4863  1.2229  0.0594
   34MOL   C172 6838   5.348   0.813   3.138 -0.3594  0.5370 -0.3376
   34MOL   O173 6839   5.393   0.926   3.125 -0.0289 -0.3048  0.7445
   34MOL   C174 6840   5.318   0.716   3.022  0.2003 -0.1569  0.0087
   34MOL   C175 6841   5.373   0.756   2.885  0.1550 -0.4831 -0.3266
   34MOL   N176 6842   5.309   0.669   2.792  0.4966 -0.6316  0.4325
   34MOL   H177 6843   5.213   0.687   3.014  0.5129 -0.9541 -1.3699
   34MOL   H178 6844   5.360   0.620   3.051  1.0250  0.2051 -0.0014
   34MOL   H179 6845   5.341   0.856   2.854  0.2110 -0.6283 -0.8499
   34MOL   H180 6846   5.480   0.771   2.871  0.3737  1.3892  2.8667
   34MOL   H181 6847   5.250   0.596   2.830  0.8204 -2.1081 -1.7979
   34MOL   C182 6848   5.323   0.677   2.660 -0.4080  0.0577  0.3694
   34MOL   O183 6849   5.406   0.745   2.600  0.1138 -0.1661 -0.1276
   34MOL   C184 6850   5.233   0.594   2.573 -0.6463 -0.0189 -0.1266
   34MOL   C185 6851   5.229   0.631   2.424  0.1043  0.3665 -0.0256
   34MOL   N186 6852   5.135   0.555   2.349 -0.7435 -0.1302  0.3188
   34MOL   H187 6853   5.132   0.607   2.613 -0.4473 -2.4336  1.2971
   34MOL   H188 6854   5.250   0.487   2.589 -1.6072 -0.2551 -0.6083
   34MOL   H189 6855   5.206   0.738   2.418 -2.6901 -0.2265 -0.4163
   34MOL   H190 6856   5.324   0.594   2.385  0.2955  1.3085 -0.4657
   34MOL   H191 6857   5.076   0.494   2.404 -1.3097 -1.8903 -2.1520
   34MOL   C192 6858   5.123   0.540   2.215  0.1104 -0.7435  0.1519
   34MOL   O193 6859   5.196   0.594   2.128  0.1724  0.1960  0.4067
   34MOL   C194 6860   5.005   0.454   2.164 -0.3881 -0.0403 -0.2947
   34MOL   C195 6861   4.992   0.422   2.012  0.4172 -0.1227  0.7368
   34MOL   N196 6862   4.991   0.543   1.938 -0.2971  0.4200  0.0678
   34MOL   H197 6863   5.020   0.359   2.215  0.3722  0.5103  0.5298
   34MOL   H198 6864   4.910   0.503   2.187 -0.4258 -0.2865  0.0736
   34MOL   H199 6865   5.063   0.351   1.969 -0.2111  0.0434 -0.6166
   34MOL   H200 6866   4.898   0.369   1.993  0.8586 -0.9610  0.8702
   34MOL   H201 6867   5.068   0.596   1.975  0.8822 -0.9101 -0.4412
   34MOL   H202 6868   5.013   0.526   1.841 -0.3652 -3.1372  0.5931
   35MOL     C1 6869   2.155   3.671   1.149 -0.6477 -0.3596 -0.4099
   35MOL     O2 6870   2.200   3.787   1.173  0.1687  0.0837  0.0348
   35MOL     C3 6871   2.256   3.555   1.152 -0.4937  0.5148  0.1475
   35MOL     C4 6872   2.339   3.555   1.287 -0.5536 -0.4503  0.1993
   35MOL     N5 6873   2.253   3.545   1.402 -0.4850  0.0676 -0.7464
   35MOL     H6 6874   2.320   3.563   1.064 -0.8266 -0.7583 -0.2203
   35MOL     H7 6875   2.214   3.455   1.144 -1.4658  1.0144 -1.2812
   35MOL     H8 6876   2.384   3.652   1.308 -1.1368 -0.2014  0.3095
   35MOL     H9 6877   2.413   3.475   1.281 -1.4940 -1.3524  0.4642
   35MOL    H10 6878   2.156   3.521   1.387 -1.0069 -0.8624  3.4111
   35MOL    H11 6879   2.054   3.655   1.109 -0.2024  1.1104 -2.1808
   35MOL    C12 6880   2.294   3.556   1.527 -0.4319  0.4139 -0.0051
   35MOL    O13 6881   2.413   3.586   1.556 -0.0334 -0.0356  0.5314
   35MOL    C14 6882   2.198   3.507   1.640 -0.3185  0.2262 -0.1051
   35MOL    C15 6883   2.223   3.364   1.690  0.1243  0.0318  0.3133
   35MOL    N16 6884   2.114   3.305   1.766  0.2132  0.1115  0.0332
   35MOL    H17 6885   2.099   3.519   1.595 -1.0474 -0.6265  1.2534
   35MOL    H18 6886   2.198   3.582   1.718 -1.4198  0.6271 -0.4851
   35MOL    H19 6887   2.261   3.290   1.619 -0.4739 -0.5713  0.6219
   35MOL    H20 6888   2.304   3.379   1.763  1.2062 -2.9079 -0.2083
   35MOL    H21 6889   2.024   3.352   1.759  0.1523  0.3995  2.3424
   35MOL    C22 6890   2.114   3.192   1.835  0.4562  0.5042  0.1153
   35MOL    O23 6891   2.218   3.131   1.863 -0.3363 -0.2936 -0.8005
   35MOL    C24 6892   1.982   3.130   1.869  0.0142  0.6138 -0.1315
   35MOL    C25 6893   1.988   3.028   1.991 -0.5027  0.0540  0.0742
   35MOL    N26 6894   1.953   3.084   2.120  0.3982 -0.7885  0.1445
   35MOL    H27 6895   1.946   3.073   1.783  2.2228  1.6243 -1.7584
   35MOL    H28 6896   1.910   3.211   1.878 -1.7894 -1.0080  0.3673
   35MOL    H29 6897   1.928   2.939   1.969  2.2469 -2.0351  0.6931
   35MOL    H30 6898   2.094   3.005   2.004 -0.5282  0.0199  0.2263
   35MOL    H31 6899   2.006   3.164   2.151 -0.5103  0.4319 -1.3323
   35MOL    C32 6900   1.831   3.075   2.180 -0.2359  0.0480 -0.2523
   35MOL    O33 6901   1.752   2.986   2.145  0.5849  0.4913  0.4124
   35MOL    C34 6902   1.794   3.175   2.282  0.2370  0.4947 -0.0275
   35MOL    C35 6903   1.705   3.277   2.207  0.0600  0.5388 -0.1250
   35MOL    N36 6904   1.758   3.415   2.223 -0.0232  0.8323  0.1623
   35MOL    H37 6905   1.882   3.221   2.327 -0.5503  0.7822  1.2502
   35MOL    H38 6906   1.744   3.132   2.369 -3.0956 -0.0794 -2.1219
   35MOL    H39 6907   1.682   3.253   2.103 -2.3747 -2.0794  0.9626
   35MOL    H40 6908   1.605   3.277   2.250  0.2703 -2.3090  0.4920
   35MOL    H41 6909   1.789   3.448   2.133  1.1393  0.7675  0.5307
   35MOL    C42 6910   1.759   3.493   2.331  0.2347 -0.6378 -0.0630
   35MOL    O43 6911   1.742   3.449   2.448  0.4672 -0.0750 -0.2481
   35MOL    C44 6912   1.776   3.640   2.309 -0.0571 -0.1026  1.0996
   35MOL    C45 6913   1.712   3.736   2.413 -0.2696 -0.0935 -0.2209
   35MOL    N46 6914   1.691   3.868   2.358 -0.6865 -0.3461  0.6150
   35MOL    H47 6915   1.882   3.667   2.314 -0.5500  2.0448  0.4782
   35MOL    H48 6916   1.743   3.665   2.208  0.1672  0.4141  1.1501
   35MOL    H49 6917   1.611   3.705   2.441  0.1432 -1.0399  0.2328
   35MOL    H50 6918   1.776   3.751   2.499  2.0429  0.5925 -2.0259
   35MOL    H51 6919   1.757   3.937   2.390  1.1335 -0.7718 -2.0501
   35MOL    C52 6920   1.590   3.924   2.301  0.7466  0.3971  0.0941
   35MOL    O53 6921   1.499   3.857   2.252  0.4340 -0.2108 -0.2930
   35MOL    C54 6922   1.582   4.079   2.300  0.0628  0.2221  0.0310
   35MOL    C55 6923   1.558   4.130   2.152  0.0543  0.7375  0.7199
   35MOL    N56 6924   1.686   4.168   2.092  0.2002  0.0376 -0.1593
   35MOL    H57 6925   1.494   4.100   2.361 -0.1710 -1.1732  0.1982
   35MOL    H58 6926   1.671   4.126   2.341  0.4331 -0.1882 -0.2942
   35MOL    H59 6927   1.491   4.216   2.154  0.6333  1.1921  0.7462
   35MOL    H60 6928   1.498   4.064   2.089  3.1654 -1.1759 -0.3428
   35MOL    H61 6929   1.770   4.121   2.124  0.7528  1.2702  0.2443
   35MOL    C62 6930   1.695   4.273   2.012 -0.7450  0.0935 -0.1400
   35MOL    O63 6931   1.604   4.344   1.980  0.2999 -0.5043 -0.1848
   35MOL    C64 6932   1.837   4.302   1.949 -0.1527 -0.8753 -0.5203
   35MOL    C65 6933   1.836   4.428   1.859 -0.0441 -0.5667  0.2304
   35MOL    N66 6934   1.777   4.401   1.723  0.2798  0.6695  0.4844
   35MOL    H67 6935   1.900   4.326   2.034  1.2138 -0.1472 -1.7308
   35MOL    H68 6936   1.873   4.216   1.893  1.7001  0.1366 -0.9086
   35MOL    H69 6937   1.790   4.512   1.911 -0.8585 -0.4903 -0.6118
   35MOL    H70 6938   1.938   4.465   1.846  0.0872 -1.2459 -0.6926
   35MOL    H71 6939   1.684   4.363   1.737 -0.0857  0.0890 -3.1598
   35MOL    C72 6940   1.850   4.366   1.613  0.2082 -0.4293  0.4635
   35MOL    O73 6941   1.968   4.396   1.606 -0.1799  0.1837  0.2800
   35MOL    C74 6942   1.782   4.295   1.490  0.7586 -0.2347  0.0307
   35MOL    C75 6943   1.785   4.142   1.510 -0.4804 -0.8654  0.6622
   35MOL    N76 6944   1.686   4.075   1.592 -0.0259  0.4804 -0.3213
   35MOL    H77 6945   1.679   4.331   1.483  0.1574 -1.1634  3.1080
   35MOL    H78 6946   1.818   4.335   1.396 -1.1060 -3.1052 -1.9970
   35MOL    H79 6947   1.785   4.089   1.415  2.1762 -0.7667  0.5691
   35MOL    H80 6948   1.885   4.119   1.546  0.2616  0.4441 -0.5446
   35MOL    H81 6949   1.591   4.080   1.557 -0.5729  4.0317  1.4369
   35MOL    C82 6950   1.707   4.016   1.711  0.4204 -0.3148  0.3355
   35MOL    O83 6951   1.826   4.002   1.753 -0.2768  0.8881  0.1825
   35MOL    C84 6952   1.597   3.953   1.799 -0.6204 -0.0937  0.1064
   35MOL    C85 6953   1.656   3.837   1.884  0.0997  0.0600  0.1339
   35MOL    N86 6954   1.550   3.771   1.967  0.2363 -0.3184 -0.3421
   35MOL    H87 6955   1.569   4.039   1.859  1.8908 -0.5788  2.0653
   35MOL    H88 6956   1.506   3.935   1.742 -2.3479  1.1669  2.3799
   35MOL    H89 6957   1.692   3.770   1.806 -3.6945 -0.7493 -1.0190
   35MOL    H90 6958   1.740   3.878   1.939 -1.7328  1.3402  2.0527
   35MOL    H91 6959   1.522   3.826   2.047  1.7757  3.1222 -2.0898
   35MOL    C92 6960   1.493   3.648   1.942  0.2612  0.2467  0.0256
   35MOL    O93 6961   1.503   3.590   1.832 -0.3176 -0.5171 -0.7529
   35MOL    C94 6962   1.413   3.589   2.062  0.6718  0.4643  1.0018
   35MOL    C95 6963   1.377   3.440   2.053  0.3069  0.3267 -0.4347
   35MOL    N96 6964   1.303   3.411   1.920  0.5577  0.4449 -0.2053
   35MOL    H97 6965   1.470   3.612   2.152 -1.2835  0.1741  2.3357
   35MOL    H98 6966   1.324   3.650   2.073  0.4232  0.3789 -0.4991
   35MOL    H99 6967   1.472   3.387   2.044 -0.0129 -0.6155  1.4844
   35MOL   H100 6968   1.324   3.403   2.140 -1.3486 -2.7739 -2.6395
   35MOL   H101 6969   1.328   3.456   1.832 -0.5546  0.0025 -0.7573
   35MOL   C102 6970   1.179   3.356   1.922  0.7811 -0.7564  0.0016
   35MOL   O103 6971   1.128   3.320   2.029  0.6080  0.1813  0.1489
   35MOL   C104 6972   1.091   3.347   1.795 -0.5676 -0.4317  0.0816
   35MOL   C105 6973   1.101   3.211   1.722 -0.3341  0.9726  0.5807
   35MOL   N106 6974   1.218   3.197   1.632  0.9960  0.3407 -0.1370
   35MOL   H107 6975   1.101   3.436   1.732 -0.7294  0.3223  1.0972
   35MOL   H108 6976   0.989   3.352   1.833 -0.6421 -2.5046  0.1965
   35MOL   H109 6977   1.084   3.132   1.796  1.0661  2.1791  2.2544
   35MOL   H110 6978   1.015   3.202   1.655  0.1917 -2.5497  0.2687
   35MOL   H111 6979   1.273   3.115   1.650 -0.7119 -0.5445  1.2747
   35MOL   C112 6980   1.247   3.270   1.525 -0.4447 -0.5441  0.3376
   35MOL   O113 6981   1.187   3.372   1.494  0.5465 -0.1334  0.2722
   35MOL   C114 6982   1.367   3.224   1.450  0.0240 -0.2514  0.2206
   35MOL   C115 6983   1.437   3.335   1.366 -0.3142  0.2969  0.0463
   35MOL   N116 6984   1.524   3.418   1.453 -0.2710 -0.6993  0.4903
   35MOL   H117 6985   1.325   3.154   1.378 -0.0648  0.5280 -0.4876
   35MOL   H118 6986   1.442   3.171   1.510  0.0585 -0.0033  0.3993
   35MOL   H119 6987   1.488   3.291   1.281  1.4408  1.8360  0.2869
   35MOL   H120 6988   1.367   3.405   1.320 -1.8563 -0.7620  0.7461
   35MOL   H121 6989   1.493   3.514   1.444  0.6879 -0.6744 -3.5948
   35MOL   C122 6990   1.648   3.382   1.501 -0.0986  0.4520 -0.2189
   35MOL   O123 6991   1.702   3.270   1.486  0.2113  0.1165 -0.5107
   35MOL   C124 6992   1.733   3.495   1.565 -0.5251  0.1699 -0.4638
   35MOL   C125 6993   1.793   3.469   1.702  1.0604  0.2593  0.2711
   35MOL   N126 6994   1.873   3.583   1.761  0.2688  0.3420  0.5388
   35MOL   H127 6995   1.675   3.586   1.580  0.4044  0.7062 -0.0795
   35MOL   H128 6996   1.813   3.519   1.495 -0.5669  2.8195  0.3383
   35MOL   H129 6997   1.710   3.444   1.768  0.7004  0.2609 -0.1732
   35MOL   H130 6998   1.849   3.376   1.693 -0.0409 -0.2801 -1.3962
   35MOL   H131 6999   1.904   3.656   1.698  2.0623 -0.8184  0.0346
   35MOL   C132 7000   1.913   3.603   1.884 -0.7882 -0.5883  0.7453
   35MOL   O133 7001   1.891   3.526   1.981  0.4318 -1.1062  0.0689
   35MOL   C134 7002   1.988   3.734   1.910 -0.2474  0.7112 -0.3367
   35MOL   C135 7003   1.973   3.798   2.052 -0.3473  0.7465 -0.2944
   35MOL   N136 7004   2.058   3.919   2.066 -0.1081  0.4594  0.1256
   35MOL   H137 7005   1.970   3.803   1.828 -0.6060 -0.7314 -1.4953
   35MOL   H138 7006   2.095   3.713   1.901  0.1171  0.6140  3.2338
   35MOL   H139 7007   1.866   3.800   2.076 -0.3231 -0.2877 -0.0625
   35MOL   H140 7008   2.019   3.727   2.120  2.5714  0.0637 -2.8906
   35MOL   H141 7009   2.134   3.923   1.999  0.4656  1.2260  0.8089
   35MOL   C142 7010   2.028   4.027   2.141 -0.4353 -0.7086  0.7147
   35MOL   O143 7011   1.926   4.025   2.209 -0.0617  0.2940  0.2552
   35MOL   C144 7012   2.105   4.157   2.114 -0.7587 -1.0929 -1.3194
   35MOL   C145 7013   2.082   4.248   2.238 -0.2112 -0.0152 -0.0558
   35MOL   N146 7014   2.190   4.342   2.254 -0.8629  0.0795  0.5439
   35MOL   H147 7015   2.085   4.197   2.015  0.9626 -0.5319 -1.4451
   35MOL   H148 7016   2.209   4.127   2.121 -0.1656  0.8750 -1.5346
   35MOL   H149 7017   1.984   4.292   2.255 -0.1600 -0.5355  1.6928
   35MOL   H150 7018   2.100   4.203   2.336 -0.6084 -1.0978 -0.4775
   35MOL   H151 7019   2.238   4.347   2.342 -1.7309  0.7476  0.9893
   35MOL   C152 7020   2.207   4.446   2.174 -1.4194  0.4334 -0.4666
   35MOL   O153 7021   2.144   4.457   2.073 -0.1265 -0.3848  0.1773
   35MOL   C154 7022   2.306   4.561   2.225  0.5385 -0.0834  0.8189
   35MOL   C155 7023   2.393   4.627   2.115  0.6800  0.1067  0.2311
   35MOL   N156 7024   2.321   4.656   1.995  0.3397  0.5144  0.1996
   35MOL   H157 7025   2.377   4.533   2.302  1.6200  0.7104  0.1242
   35MOL   H158 7026   2.241   4.641   2.258  0.5795 -0.2462  1.2886
   35MOL   H159 7027   2.439   4.716   2.158 -1.2581  0.3847  1.8141
   35MOL   H160 7028   2.481   4.568   2.091 -0.5445 -1.1474 -1.3143
   35MOL   H161 7029   2.244   4.596   1.970  0.2492  0.5436  0.4030
   35MOL   C162 7030   2.364   4.733   1.896  0.2166  0.1377 -0.3064
   35MOL   O163 7031   2.464   4.808   1.918  1.0806 -0.1595 -0.0490
   35MOL   C164 7032   2.295   4.720   1.767 -0.1484  0.6651  0.1013
   35MOL   C165 7033   2.297   4.579   1.710  0.9813 -0.3655  0.2651
   35MOL   N166 7034   2.213   4.550   1.596 -0.1216  0.1704  0.8047
   35MOL   H167 7035   2.336   4.780   1.686 -2.2699  0.4590 -1.1786
   35MOL   H168 7036   2.195   4.754   1.793  0.2665  0.6358  1.7821
   35MOL   H169 7037   2.398   4.552   1.680  0.7778  1.8584 -2.6161
   35MOL   H170 7038   2.249   4.517   1.786 -1.5354  0.2857 -0.7169
   35MOL   H171 7039   2.129   4.496   1.615  0.4323 -0.8551  0.3884
   35MOL   C172 7040   2.231   4.588   1.472 -0.2859  0.1420  0.2850
   35MOL   O173 7041   2.326   4.653   1.437  0.0217 -0.3576  0.2776
   35MOL   C174 7042   2.122   4.555   1.364  0.1145 -0.8681 -0.2484
   35MOL   C175 7043   2.136   4.404   1.321 -0.8502  0.0066 -0.0390
   35MOL   N176 7044   2.047   4.364   1.207  0.4470  0.3703 -1.0914
   35MOL   H177 7045   2.153   4.622   1.283 -0.7667 -0.8574 -0.5906
   35MOL   H178 7046   2.022   4.561   1.407  0.0555  1.5827 -0.6154
   35MOL   H179 7047   2.242   4.390   1.297 -0.9400  0.7529 -0.9333
   35MOL   H180 7048   2.111   4.344   1.408  2.2702 -0.7163  0.4325
   35MOL   H181 7049   1.998   4.436   1.156  1.3155  1.4472 -0.4479
   35MOL   C182 7050   2.016   4.238   1.182  0.1283 -0.5757 -0.1707
   35MOL   O183 7051   2.028   4.146   1.261 -0.2436  0.3640  0.2669
   35MOL   C184 7052   1.954   4.205   1.049 -1.0810 -0.1653 -0.0810
   35MOL   C185 7053   2.028   4.103   0.965 -0.1014  0.7023 -0.6935
   35MOL   N186 7054   1.933   4.033   0.871  0.3775 -0.3059  0.9464
   35MOL   H187 7055   1.952   4.301   0.997  1.0714 -0.4148 -0.6733
   35MOL   H188 7056   1.857   4.168   1.081 -0.8008 -2.0234 -1.2801
   35MOL   H189 7057   2.104   4.151   0.904  1.4094 -1.0327 -0.2089
   35MOL   H190 7058   2.091   4.030   1.016 -0.6927 -0.0717 -1.0517
   35MOL   H191 7059   1.888   3.955   0.915  0.6055  0.3906  2.4350
   35MOL   C192 7060   1.921   4.043   0.737 -0.1559  0.0936  0.0920
   35MOL   O193 7061   1.864   3.948   0.677  0.4349  0.7250 -0.3020
   35MOL   C194 7062   1.982   4.166   0.661 -0.3449  0.0837  0.6044
   35MOL   C195 7063   1.907   4.212   0.542  0.6563 -0.0164 -0.3063
   35MOL   N196 7064   1.770   4.252   0.565  0.0479  0.1999 -0.2592
   35MOL   H197 7065   1.979   4.250   0.730  0.7838  0.0348  0.7184
   35MOL   H198 7066   2.083   4.152   0.622  0.0307  3.1024  0.3799
   35MOL   H199 7067   1.964   4.288   0.490 -0.4630 -1.3988 -3.6955
   35MOL   H200 7068   1.888   4.130   0.472 -0.2192 -0.6040  0.6041
   35MOL   H201 7069   1.738   4.280   0.473  0.8332  1.0894 -0.2680
   35MOL   H202 7070   1.715   4.175   0.600  2.8196 -2.2507 -1.0357
   36MOL     C1 7071   6.347   7.721   1.699 -0.1845 -0.5824 -0.3222
   36MOL     O2 7072   6.240   7.755   1.757 -0.3137  0.2822  0.1304
   36MOL     C3 7073   6.338   7.676   1.556 -0.4877 -0.0804  0.0151
   36MOL     C4 7074   6.400   7.765   1.439 -0.0411 -0.0983 -0.0412
   36MOL     N5 7075   6.524   0.045   1.480  0.3371  0.1668  0.8902
   36MOL     H6 7076   6.233   7.655   1.537 -0.6144  0.3442  0.2442
   36MOL     H7 7077   6.391   7.582   1.540  0.3413  0.2863  0.5893
   36MOL     H8 7078   6.334   0.066   1.411  0.2009  0.4147  0.8572
   36MOL     H9 7079   6.417   7.700   1.353 -0.0189  0.3306 -0.3601
   36MOL    H10 7080   6.532   0.088   1.571  1.7098 -2.5127  2.0984
   36MOL    H11 7081   6.450   7.720   1.734 -0.6549 -1.2707  1.0883
   36MOL    C12 7082   6.608   0.078   1.390 -0.3263 -0.2362 -0.6915
   36MOL    O13 7083   6.609   0.035   1.273 -0.7548  0.3026  0.7472
   36MOL    C14 7084   6.706   0.184   1.430  0.2490  0.4069 -0.1049
   36MOL    C15 7085   6.855   0.135   1.416  0.0797 -0.5777  0.4746
   36MOL    N16 7086   6.883   0.049   1.527 -0.1204 -0.3008 -0.3425
   36MOL    H17 7087   6.688   0.231   1.526 -2.6332  0.4431 -0.6035
   36MOL    H18 7088   6.690   0.267   1.360  1.7058  0.5205 -0.3180
   36MOL    H19 7089   6.870   0.068   1.332  1.3418 -1.0381  1.0543
   36MOL    H20 7090   6.930   0.213   1.408  0.0194 -0.7229 -1.7268
   36MOL    H21 7091   6.810   7.766   1.556  2.6122 -1.8843  3.4923
   36MOL    C22 7092   6.984   0.059   1.618  0.2433  0.5077 -0.7230
   36MOL    O23 7093   7.071   0.141   1.602 -0.3277 -0.0013  0.1642
   36MOL    C24 7094   6.979   7.731   1.728  0.1027 -0.5073  0.1819
   36MOL    C25 7095   7.088   7.713   1.832  0.2811  0.4781 -0.0893
   36MOL    N26 7096   7.221   7.710   1.783 -0.1211  0.1038 -0.1761
   36MOL    H27 7097   6.960   7.636   1.677  0.7081  0.2037 -1.4065
   36MOL    H28 7098   6.889   7.751   1.787  0.1760 -0.9846  0.4606
   36MOL    H29 7099   7.074   0.005   1.912  0.6304 -0.9161  1.2651
   36MOL    H30 7100   7.061   7.619   1.880  1.0772  0.2985  0.0193
   36MOL    H31 7101   7.275   0.001   1.831 -2.8479  0.8346  1.8897
   36MOL    C32 7102   7.269   7.629   1.681 -0.6966 -0.1979 -0.2193
   36MOL    O33 7103   7.205   7.544   1.622  0.1955 -0.1441 -0.8116
   36MOL    C34 7104   7.410   7.664   1.645  0.4591 -0.2087  0.1327
   36MOL    C35 7105   7.420   7.743   1.514 -0.2978 -0.6466  0.4019
   36MOL    N36 7106   7.389   0.107   1.541 -0.3214  0.3531 -0.3895
   36MOL    H37 7107   7.461   7.568   1.635  1.7382  0.4156  0.5766
   36MOL    H38 7108   7.447   7.714   1.735 -0.5884 -0.9215  0.9673
   36MOL    H39 7109   7.515   7.731   1.462  0.0240  1.3524  0.4771
   36MOL    H40 7110   7.348   7.705   1.441 -0.8297 -1.4747  1.3435
   36MOL    H41 7111   7.313   0.123   1.605  0.4580 -1.6644  1.1218
   36MOL    C42 7112   7.465   0.217   1.516  0.2524  0.2895  0.0609
   36MOL    O43 7113   7.570   0.207   1.446  0.0767 -0.0463 -0.0133
   36MOL    C44 7114   7.403   0.351   1.570 -0.4740 -0.0147 -0.1005
   36MOL    C45 7115   7.506   0.461   1.604  0.7574  0.0250  0.1294
   36MOL    N46 7116   7.574   0.503   1.494  0.2405 -0.1061  0.4914
   36MOL    H47 7117   7.346   0.393   1.487  0.2264 -0.9753 -1.0901
   36MOL    H48 7118   7.335   0.334   1.653  0.3593 -0.5031  0.4909
   36MOL    H49 7119   7.448   0.544   1.646  0.6869 -0.6195  1.3351
   36MOL    H50 7120   7.572   0.421   1.680  1.9184  0.7395 -0.4868
   36MOL    H51 7121   7.578   0.444   1.411  0.5631  1.1230 -0.3774
   36MOL    C52 7122   7.663   0.603   1.497  0.5264  0.2519 -0.6074
   36MOL    O53 7123   7.680   0.679   1.590  0.0262 -0.0414 -0.6929
   36MOL    C54 7124   7.735   0.645   1.373 -0.0597 -0.1191 -0.5747
   36MOL    C55 7125   7.696   0.774   1.306  0.5363  0.2058 -0.0975
   36MOL    N56 7126   7.559   0.781   1.257 -0.1057 -0.1314  0.7954
   36MOL    H57 7127   0.064   0.643   1.379  0.0927  2.2039 -1.9726
   36MOL    H58 7128   7.717   0.554   1.317 -0.1323 -0.5822  0.1954
   36MOL    H59 7129   7.763   0.780   1.220 -1.1523 -2.0170 -1.6205
   36MOL    H60 7130   7.714   0.859   1.372 -0.1926  1.8267 -1.9210
   36MOL    H61 7131   7.492   0.804   1.329 -1.8231 -2.6447  0.0762
   36MOL    C62 7132   7.520   0.738   1.135  0.0395 -0.6044  0.1363
   36MOL    O63 7133   7.595   0.691   1.050 -0.4556  0.2040  0.3674
   36MOL    C64 7134   7.369   0.749   1.113  0.2307  0.0950 -0.1076
   36MOL    C65 7135   7.317   0.748   0.971  0.5336 -0.4265  0.0893
   36MOL    N66 7136   7.297   0.883   0.917  0.2598  0.2793 -0.5322
   36MOL    H67 7137   7.334   0.653   1.152 -0.5975  1.5887  2.9530
   36MOL    H68 7138   7.325   0.838   1.158  1.9669  2.1374 -2.3381
   36MOL    H69 7139   7.376   0.691   0.899 -0.7455 -2.3762  0.5390
   36MOL    H70 7140   7.224   0.691   0.971 -0.3476  0.9731  0.7742
   36MOL    H71 7141   7.275   0.961   0.978 -1.0725 -0.7666  0.3529
   36MOL    C72 7142   7.303   0.915   0.787 -0.6172 -0.6424  0.7585
   36MOL    O73 7143   7.311   0.833   0.693 -0.3618  0.1762  0.6731
   36MOL    C74 7144   7.291   1.067   0.749  0.6436 -0.0442  0.0202
   36MOL    C75 7145   7.326   1.119   0.606 -0.0128 -0.2465  0.1217
   36MOL    N76 7146   7.468   1.128   0.587 -0.6129  0.0808 -0.2132
   36MOL    H77 7147   7.189   1.094   0.777  1.5333  0.7182  2.6357
   36MOL    H78 7148   7.355   1.119   0.820 -0.1506 -0.0559  0.7571
   36MOL    H79 7149   7.291   1.045   0.534 -1.3411 -0.0920  0.6016
   36MOL    H80 7150   7.282   1.215   0.580  0.2004 -0.7581 -2.2658
   36MOL    H81 7151   7.532   1.106   0.663 -0.1057 -0.8469 -0.8946
   36MOL    C82 7152   7.538   1.158   0.474  0.4803 -0.7048  0.1903
   36MOL    O83 7153   7.487   1.175   0.358 -0.2159 -0.0774 -0.1773
   36MOL    C84 7154   7.690   1.185   0.492  0.1790 -0.4254 -0.1097
   36MOL    C85 7155   7.745   1.310   0.424  0.1435  0.2921 -0.6196
   36MOL    N86 7156   0.109   1.327   0.430 -0.5070  0.8150  0.1702
   36MOL    H87 7157   7.720   1.159   0.594  0.0558  1.4207  0.4104
   36MOL    H88 7158   7.731   1.095   0.444  1.4529  0.1845 -0.1886
   36MOL    H89 7159   7.719   1.312   0.318  0.0020 -0.7592 -0.6078
   36MOL    H90 7160   7.698   1.393   0.477 -0.5764  0.2690 -1.2123
   36MOL    H91 7161   0.150   1.349   0.519 -0.6356  0.6326  0.2728
   36MOL    C92 7162   0.201   1.292   0.336 -0.6040  1.1727 -0.1658
   36MOL    O93 7163   0.165   1.256   0.229 -0.3540  0.3614  0.3758
   36MOL    C94 7164   0.353   1.294   0.375  0.3950 -0.5892  0.2359
   36MOL    C95 7165   0.410   1.154   0.374 -0.0799  0.5548  0.6686
   36MOL    N96 7166   0.359   1.064   0.482  0.4657 -0.6476 -0.4373
   36MOL    H97 7167   0.406   1.358   0.305  3.0058 -3.7152 -0.7682
   36MOL    H98 7168   0.371   1.341   0.472 -0.0648  0.4812 -0.1909
   36MOL    H99 7169   0.389   1.103   0.280  2.8183 -2.2590  1.4453
   36MOL   H100 7170   0.518   1.170   0.377  0.1570 -0.6194 -1.0630
   36MOL   H101 7171   0.280   1.002   0.472 -0.4521  0.3128  0.7045
   36MOL   C102 7172   0.427   1.063   0.600 -0.6307  0.3623  0.2131
   36MOL   O103 7173   0.529   1.129   0.618  0.2090 -0.0937 -0.0738
   36MOL   C104 7174   0.404   0.947   0.701  0.7789 -0.3768  0.3401
   36MOL   C105 7175   0.452   0.970   0.851  0.0020 -0.2470  0.0848
   36MOL   N106 7176   0.477   0.842   0.917 -0.2261 -0.3798  0.3082
   36MOL   H107 7177   0.458   0.858   0.669  0.4933 -0.8092  1.0622
   36MOL   H108 7178   0.296   0.932   0.704  0.7664 -0.3337  0.0953
   36MOL   H109 7179   0.543   1.027   0.831 -0.3966  0.5564  0.5678
   36MOL   H110 7180   0.383   1.041   0.897  1.8693  2.2969 -0.9296
   36MOL   H111 7181   0.571   0.808   0.929 -0.9898 -2.3109  1.0186
   36MOL   C112 7182   0.384   0.787   0.996 -0.1046  0.1861  0.0029
   36MOL   O113 7183   0.270   0.827   1.013 -0.0941 -0.5548 -0.2235
   36MOL   C114 7184   0.428   0.662   1.071 -0.5064  0.2423  0.0395
   36MOL   C115 7185   0.323   0.594   1.165 -0.1849 -0.1927 -0.3695
   36MOL   N116 7186   0.228   0.526   1.083  0.3562  0.4042  0.3062
   36MOL   H117 7187   0.506   0.693   1.140  2.0838 -0.5340 -2.4450
   36MOL   H118 7188   0.476   0.586   1.009 -0.7590 -1.0003  1.3185
   36MOL   H119 7189   0.369   0.518   1.228 -1.6562  0.0069  0.9526
   36MOL   H120 7190   0.254   0.653   1.226  0.2154  1.8718 -1.8349
   36MOL   H121 7191   0.229   0.554   0.986  0.0308 -1.0531 -0.1356
   36MOL   C122 7192   0.137   0.439   1.109  0.5167  0.0472 -0.0850
   36MOL   O123 7193   0.135   0.393   1.223 -0.8845  0.2962 -0.1598
   36MOL   C124 7194   0.043   0.398   0.998  0.7635 -0.4713 -0.5412
   36MOL   C125 7195   7.676   0.351   1.049 -0.1851 -0.0673 -0.5966
   36MOL   N126 7196   7.691   0.222   1.113  0.4845  0.1298 -0.6803
   36MOL   H127 7197   0.086   0.317   0.939  0.1414 -0.1554 -1.4508
   36MOL   H128 7198   0.031   0.481   0.928  1.0149 -1.3791 -1.6870
   36MOL   H129 7199   7.638   0.430   1.113  1.0930  1.2868 -1.4814
   36MOL   H130 7200   7.608   0.338   0.965 -0.2966 -1.2022 -0.3482
   36MOL   H131 7201   7.770   0.234   1.175 -0.6401 -1.8881  1.2375
   36MOL   C132 7202   7.631   0.109   1.090 -0.1232  0.3651 -0.3883
   36MOL   O133 7203   7.556   0.096   0.998 -0.4501 -0.1245 -0.2295
   36MOL   C134 7204   7.671   7.765   1.173  0.7054  0.5941  0.1599
   36MOL   C135 7205   7.634   7.628   1.113  0.8494  0.4595  0.3430
   36MOL   N136 7206   7.672   7.519   1.202 -0.1091 -0.2550 -0.5699
   36MOL   H137 7207   7.625   7.772   1.272  1.2306  0.8827  0.3845
   36MOL   H138 7208   7.777   7.767   1.198  0.6591  2.1292  0.2819
   36MOL   H139 7209   7.533   7.620   1.074  1.3982  0.1179 -1.0333
   36MOL   H140 7210   7.696   7.614   1.025  1.8263  1.3281  0.8862
   36MOL   H141 7211   7.761   7.472   1.208 -0.3705 -0.6850  0.1037
   36MOL   C142 7212   7.597   7.465   1.302 -0.1399 -0.4628 -0.5431
   36MOL   O143 7213   7.487   7.512   1.339  0.8068  0.0511  0.0257
   36MOL   C144 7214   7.670   7.361   1.382  0.6150  0.2681 -0.0917
   36MOL   C145 7215   7.593   7.228   1.396 -0.0349 -0.4848 -0.6402
   36MOL   N146 7216   7.466   7.253   1.470  0.7311  0.5374  0.0551
   36MOL   H147 7217   7.686   7.406   1.480 -0.9150 -0.4511  0.5006
   36MOL   H148 7218   7.767   7.335   1.341  0.9092 -0.1919  0.8744
   36MOL   H149 7219   7.570   7.180   1.301 -1.1199  0.0957 -0.6799
   36MOL   H150 7220   7.654   7.169   1.464  0.1198 -1.3623 -1.5275
   36MOL   H151 7221   7.432   7.347   1.456 -0.1628  0.6214  2.5030
   36MOL   C152 7222   7.402   7.167   1.550  0.5247 -0.0802 -0.2346
   36MOL   O153 7223   7.463   7.072   1.596  0.0628  0.3550  0.0862
   36MOL   C154 7224   7.266   7.207   1.600 -0.4043 -0.3014  0.0394
   36MOL   C155 7225   7.247   7.193   1.755  0.0033 -0.4316  0.1741
   36MOL   N156 7226   7.295   7.311   1.826  0.6139 -0.3337 -0.1473
   36MOL   H157 7227   7.193   7.157   1.537 -2.0637  1.9021  0.1125
   36MOL   H158 7228   7.247   7.311   1.571  0.5314 -0.0825  0.1944
   36MOL   H159 7229   7.144   7.177   1.786  0.6843 -0.4529  2.5009
   36MOL   H160 7230   7.298   7.108   1.801  0.1945 -0.7653 -0.6376
   36MOL   H161 7231   7.379   7.355   1.792 -0.4185  2.1463  0.4384
   36MOL   C162 7232   7.263   7.346   1.950 -0.1912 -0.2333 -0.1178
   36MOL   O163 7233   7.169   7.299   2.009 -0.4697 -0.3442 -0.0530
   36MOL   C164 7234   7.350   7.451   2.023  0.2418  0.0562  0.5911
   36MOL   C165 7235   7.290   7.537   2.135 -0.2622 -0.3505  0.1451
   36MOL   N166 7236   7.267   7.469   2.262 -0.1380  0.5006  1.0565
   36MOL   H167 7237   7.401   7.509   1.946  2.7889  1.2494  3.0814
   36MOL   H168 7238   7.435   7.399   2.067 -1.9571 -1.6762  2.9464
   36MOL   H169 7239   7.351   7.627   2.141 -0.1220 -0.3385 -1.4206
   36MOL   H170 7240   7.190   7.564   2.101 -0.0643  0.8392  0.4815
   36MOL   H171 7241   7.199   7.395   2.262  1.9063 -1.4732  2.6794
   36MOL   C172 7242   7.342   7.493   2.370  0.2167 -0.1388 -0.6287
   36MOL   O173 7243   7.423   7.580   2.383 -0.0619 -0.9837 -0.8531
   36MOL   C174 7244   7.322   7.400   2.492 -0.1430  0.0879  0.3092
   36MOL   C175 7245   7.434   7.300   2.505  0.7484 -0.5910 -0.0535
   36MOL   N176 7246   7.430   7.192   2.409  0.2010  0.6093  0.3237
   36MOL   H177 7247   7.226   7.349   2.488  0.3154 -0.9149  1.5920
   36MOL   H178 7248   7.326   7.460   2.583 -0.3477  0.1742  0.2618
   36MOL   H179 7249   7.531   7.350   2.502  0.6575 -0.4546 -0.6439
   36MOL   H180 7250   7.434   7.255   2.605 -1.2909  0.1592  0.3072
   36MOL   H181 7251   7.375   7.108   2.423 -0.2796  0.9931  0.7572
   36MOL   C182 7252   7.512   7.176   2.305 -0.6814  0.0015 -0.1015
   36MOL   O183 7253   7.599   7.260   2.278 -0.4659  0.4829 -0.0537
   36MOL   C184 7254   7.500   7.047   2.234  0.1748 -0.1013 -0.5996
   36MOL   C185 7255   7.479   7.063   2.085 -0.2108 -0.7113  0.2256
   36MOL   N186 7256   7.504   6.946   2.002 -0.3162  0.3632  0.0739
   36MOL   H187 7257   7.420   6.981   2.268  0.5370  0.1562  0.8064
   36MOL   H188 7258   7.599   7.004   2.248  0.3343  0.8990  1.7011
   36MOL   H189 7259   7.380   7.104   2.064  1.1205  1.7566 -1.4186
   36MOL   H190 7260   7.538   7.148   2.051 -1.6089  0.2926  0.2562
   36MOL   H191 7261   7.596   6.915   1.975  0.0812  0.4674  1.2881
   36MOL   C192 7262   7.406   6.870   1.955  0.4486  0.9415  0.4669
   36MOL   O193 7263   7.288   6.895   1.981  0.2931  0.1010  0.4036
   36MOL   C194 7264   7.451   6.737   1.898 -0.1643 -0.2184 -0.0099
   36MOL   C195 7265   7.499   6.748   1.754 -0.0822  0.3740  0.2655
   36MOL   N196 7266   7.608   6.840   1.739 -0.0491 -0.2180  0.3739
   36MOL   H197 7267   7.538   6.702   1.954 -0.8004 -2.1819 -0.2064
   36MOL   H198 7268   7.367   6.667   1.899 -0.1628 -0.2099  1.6212
   36MOL   H199 7269   7.540   6.647   1.742  1.2859  0.7416  1.7906
   36MOL   H200 7270   7.430   6.781   1.676  0.8073  2.2459  0.2615
   36MOL   H201 7271   7.582   6.937   1.730 -0.7098 -0.2656  1.6611
   36MOL   H202 7272   7.660   6.820   1.655 -1.1471  0.7667 -0.5479
   37MOL     C1 7273   6.176   0.655   4.489 -0.5399  0.2268 -0.0098
   37MOL     O2 7274   6.060   0.626   4.473 -0.0341 -0.2374 -0.2449
   37MOL     C3 7275   6.218   0.796   4.506 -0.2925  0.3359 -0.2932
   37MOL     C4 7276   6.141   0.896   4.417 -0.1097  0.0500  0.3486
   37MOL     N5 7277   6.199   0.905   4.279 -0.0812  0.4599  0.0580
   37MOL     H6 7278   6.327   0.800   4.492 -0.6436  3.5776 -2.6983
   37MOL     H7 7279   6.200   0.820   4.610 -2.2186 -1.3710 -0.2192
   37MOL     H8 7280   6.151   0.998   4.455  2.3276  0.8274 -2.2523
   37MOL     H9 7281   6.040   0.859   4.401 -0.1779  0.6479 -0.6966
   37MOL    H10 7282   6.288   0.858   4.264 -0.6531 -0.4275 -0.6168
   37MOL    H11 7283   6.264   0.590   4.490  0.1588  1.1566  0.0326
   37MOL    C12 7284   6.139   0.961   4.176 -0.2706  0.2496 -0.1100
   37MOL    O13 7285   6.033   1.025   4.193 -0.0639  0.3151  0.2594
   37MOL    C14 7286   6.222   0.958   4.047  0.2768  0.5805 -0.5660
   37MOL    C15 7287   6.231   1.093   3.973 -0.4367 -0.6339 -0.4828
   37MOL    N16 7288   6.277   1.077   3.834  0.7267 -0.0797  0.4320
   37MOL    H17 7289   6.175   0.888   3.977  0.8617 -1.4605  1.0299
   37MOL    H18 7290   6.325   0.928   4.068  0.7175 -0.0668 -3.3940
   37MOL    H19 7291   6.132   1.138   3.977 -0.1485 -0.1283  1.3814
   37MOL    H20 7292   6.292   1.160   4.034 -4.4735  2.1436  0.6945
   37MOL    H21 7293   6.334   0.995   3.820 -1.7821 -1.5683 -1.3836
   37MOL    C22 7294   6.237   1.157   3.735  0.1765  0.0555  0.3242
   37MOL    O23 7295   6.147   1.242   3.752  0.2221  0.3351 -0.1567
   37MOL    C24 7296   6.311   1.151   3.594 -0.5471  0.1426  0.3317
   37MOL    C25 7297   6.209   1.143   3.476  0.7159  0.4653  0.4093
   37MOL    N26 7298   6.154   1.012   3.450  0.1341  0.1565  0.0807
   37MOL    H27 7299   6.378   1.066   3.593 -1.2277 -0.3892  0.0050
   37MOL    H28 7300   6.367   1.244   3.583 -1.2119  0.6228  0.9437
   37MOL    H29 7301   6.129   1.216   3.487 -0.7671 -1.1725  0.8605
   37MOL    H30 7302   6.263   1.173   3.387 -0.3324  2.2443  0.3412
   37MOL    H31 7303   6.061   1.002   3.488  0.8627 -1.3411  1.5590
   37MOL    C32 7304   6.215   0.916   3.385 -0.3944 -0.1644  0.1181
   37MOL    O33 7305   6.328   0.926   3.336 -0.0331 -0.4109 -0.3868
   37MOL    C34 7306   6.142   0.786   3.352 -0.1567  0.8735 -0.7177
   37MOL    C35 7307   6.148   0.740   3.205 -0.6175  0.2791  0.1533
   37MOL    N36 7308   6.031   0.788   3.120 -0.8162 -0.0932 -0.4017
   37MOL    H37 7309   6.040   0.792   3.391 -1.0915  2.2241 -3.2651
   37MOL    H38 7310   6.194   0.713   3.415  1.0019  1.0420 -1.4593
   37MOL    H39 7311   6.246   0.757   3.161 -0.4654  1.2782  0.8677
   37MOL    H40 7312   6.143   0.632   3.211 -2.0846  0.0852 -3.2020
   37MOL    H41 7313   5.940   0.765   3.156 -0.7868  1.3032  0.6126
   37MOL    C42 7314   6.032   0.881   3.023  0.3075  0.0726  0.5912
   37MOL    O43 7315   6.138   0.931   2.980 -0.2438  0.4827 -0.1180
   37MOL    C44 7316   5.885   0.922   2.966 -0.4544 -0.0443 -0.8274
   37MOL    C45 7317   5.792   0.809   2.909 -0.3519  0.0232 -0.1839
   37MOL    N46 7318   5.849   0.743   2.790  0.5715  0.0620  0.3964
   37MOL    H47 7319   5.843   0.981   3.047 -0.1674 -1.1908  0.1693
   37MOL    H48 7320   5.909   0.999   2.892  0.7730  1.0520  0.6738
   37MOL    H49 7321   5.777   0.736   2.989 -2.2976  1.3739  0.7519
   37MOL    H50 7322   5.697   0.860   2.893  0.6867  1.9399 -0.2956
   37MOL    H51 7323   5.879   0.648   2.805 -0.1817 -0.0698  1.1401
   37MOL    C52 7324   5.868   0.806   2.673  0.0915  0.4131  1.1260
   37MOL    O53 7325   5.836   0.921   2.658 -0.0308 -0.5180  0.5375
   37MOL    C54 7326   5.928   0.728   2.558  0.2163 -0.3928  0.5606
   37MOL    C55 7327   6.078   0.702   2.569 -0.4683  0.4547  0.2524
   37MOL    N56 7328   6.160   0.824   2.560 -0.2662 -0.0784  0.1714
   37MOL    H57 7329   5.867   0.638   2.558 -0.3946  0.0137 -0.3296
   37MOL    H58 7330   5.908   0.780   2.464 -1.5478 -0.4843  0.8760
   37MOL    H59 7331   6.109   0.634   2.489  1.1900  0.3361  0.9650
   37MOL    H60 7332   6.114   0.650   2.658 -0.6068 -1.8739 -0.9878
   37MOL    H61 7333   6.105   0.908   2.577  2.1689  1.7974 -0.9319
   37MOL    C62 7334   6.288   0.831   2.519 -0.0723 -0.4596 -0.4447
   37MOL    O63 7335   6.337   0.738   2.456 -0.0446 -0.4118  0.1342
   37MOL    C64 7336   6.377   0.955   2.542 -0.2807  0.2527 -0.1192
   37MOL    C65 7337   6.317   1.060   2.638 -0.4874  0.1125 -0.4401
   37MOL    N66 7338   6.348   1.033   2.779  0.1181 -0.4347  0.7627
   37MOL    H67 7339   6.471   0.922   2.587 -0.6094 -0.3951  0.1071
   37MOL    H68 7340   6.394   1.000   2.444 -3.4091  1.9927  0.0843
   37MOL    H69 7341   6.372   1.150   2.613 -0.7979  1.5705  3.7104
   37MOL    H70 7342   6.212   1.085   2.625 -0.1973  2.1318  0.8809
   37MOL    H71 7343   6.266   1.029   2.838 -1.3908  2.0225 -1.0317
   37MOL    C72 7344   6.459   1.044   2.847 -0.3051  0.4958  0.5393
   37MOL    O73 7345   6.562   1.074   2.792 -0.1090 -0.1687 -0.5082
   37MOL    C74 7346   6.453   1.008   2.995 -0.1957  0.3352 -0.2134
   37MOL    C75 7347   6.589   0.991   3.067 -0.4357 -0.1252 -0.3555
   37MOL    N76 7348   6.566   0.933   3.201  0.1371 -0.3030 -0.1170
   37MOL    H77 7349   6.382   1.071   3.049 -0.6781 -1.1664  0.9296
   37MOL    H78 7350   6.413   0.907   3.006 -1.4567  0.9923  1.5642
   37MOL    H79 7351   6.662   0.944   3.001 -1.4209 -3.5585  0.8594
   37MOL    H80 7352   6.619   1.095   3.075 -0.6483 -0.2123  2.0982
   37MOL    H81 7353   6.472   0.927   3.236 -0.7618  2.0541 -1.9659
   37MOL    C82 7354   6.664   0.868   3.262 -0.0124  0.2682  0.6194
   37MOL    O83 7355   6.778   0.859   3.214  0.3047 -0.1621 -0.0749
   37MOL    C84 7356   6.636   0.795   3.394  0.2212 -0.4008 -0.1844
   37MOL    C85 7357   6.638   0.639   3.383  0.2773 -0.2473  0.1624
   37MOL    N86 7358   6.515   0.580   3.329  0.0832  0.0226  0.1390
   37MOL    H87 7359   6.704   0.824   3.474  0.1691  0.5530 -0.4762
   37MOL    H88 7360   6.541   0.830   3.433  0.7468  0.4942  0.3278
   37MOL    H89 7361   6.721   0.611   3.317 -1.3115  1.3892 -2.6555
   37MOL    H90 7362   6.664   0.586   3.474 -0.4196 -1.3669 -0.2790
   37MOL    H91 7363   6.459   0.543   3.404 -0.1364 -0.9009 -0.4777
   37MOL    C92 7364   6.492   0.559   3.203 -1.3179 -0.4031 -0.6349
   37MOL    O93 7365   6.558   0.617   3.113 -0.1242 -0.0335  0.5319
   37MOL    C94 7366   6.381   0.463   3.165 -0.2050 -0.0749 -0.1087
   37MOL    C95 7367   6.401   0.389   3.034  0.4980 -0.3324  0.1956
   37MOL    N96 7368   6.488   0.268   3.036 -0.1763  0.1167 -0.1622
   37MOL    H97 7369   6.363   0.387   3.241 -1.5638 -2.1235 -2.4004
   37MOL    H98 7370   6.284   0.511   3.156 -0.4258 -0.9134 -2.6752
   37MOL    H99 7371   6.304   0.350   3.002 -0.3434 -0.5143  2.8853
   37MOL   H100 7372   6.427   0.458   2.954 -0.0226 -0.2396  0.1002
   37MOL   H101 7373   6.454   0.203   3.106  0.4738  0.8809  0.8965
   37MOL   C102 7374   6.607   0.254   2.979  0.3315 -0.0640 -0.5352
   37MOL   O103 7375   6.662   0.333   2.903  0.7846  0.0440  0.3506
   37MOL   C104 7376   6.688   0.130   3.018 -0.7479  0.3245  0.0887
   37MOL   C105 7377   6.775   0.155   3.151 -0.2086 -0.5792  0.1333
   37MOL   N106 7378   6.840   0.032   3.201 -0.0625 -0.2657 -0.4320
   37MOL   H107 7379   6.758   0.097   2.941  1.3456 -1.5972  2.6873
   37MOL   H108 7380   6.616   0.050   3.031 -2.1511  1.2778 -1.7187
   37MOL   H109 7381   6.845   0.233   3.121 -1.2370  0.2300 -0.1848
   37MOL   H110 7382   6.719   0.199   3.233  1.1821 -1.8897  1.8117
   37MOL   H111 7383   6.797   7.724   3.178 -1.2684 -0.1916  1.4020
   37MOL   C112 7384   6.950   0.030   3.278  0.1397 -0.0174 -0.1346
   37MOL   O113 7385   7.015   0.128   3.304 -0.2372 -0.3038  0.0531
   37MOL   C114 7386   6.993   7.666   3.324 -0.0174  0.6962 -0.2211
   37MOL   C115 7387   7.149   7.643   3.326  0.3602  0.1504 -0.3465
   37MOL   N116 7388   7.196   7.621   3.190  0.5315  0.4856 -0.5967
   37MOL   H117 7389   6.941   7.598   3.257  1.3309  0.0622 -0.6380
   37MOL   H118 7390   6.949   7.649   3.422 -0.8161 -2.0821 -1.0386
   37MOL   H119 7391   7.202   7.730   3.364  2.5676 -1.2056 -0.2057
   37MOL   H120 7392   7.181   7.564   3.395  0.9085  0.3932 -0.3222
   37MOL   H121 7393   7.181   7.523   3.167  0.7170  0.4722 -0.6624
   37MOL   C122 7394   7.283   7.697   3.127  0.2880 -0.6966  0.2290
   37MOL   O123 7395   7.333   0.020   3.167  0.4594  0.1771 -0.9337
   37MOL   C124 7396   7.335   7.636   2.995  1.1322 -0.0840  0.2179
   37MOL   C125 7397   7.480   7.595   3.012  0.2092  0.8834 -0.9628
   37MOL   N126 7398   7.497   7.449   3.025  0.1312  0.9849 -0.8814
   37MOL   H127 7399   7.330   7.714   2.919  0.7258  1.9901  2.2877
   37MOL   H128 7400   7.271   7.555   2.963  2.1808 -1.7443  2.1973
   37MOL   H129 7401   7.535   7.634   2.926  1.4225 -0.0486 -0.6289
   37MOL   H130 7402   7.534   7.638   3.096  0.3995 -1.6798  0.2672
   37MOL   H131 7403   7.500   7.407   3.117 -0.6903  0.4508 -1.0862
   37MOL   C132 7404   7.467   7.366   2.921  0.3092 -0.2636  0.2247
   37MOL   O133 7405   7.440   7.403   2.804 -0.9640  0.1278  0.2106
   37MOL   C134 7406   7.474   7.214   2.948 -0.2050 -0.0109  0.7910
   37MOL   C135 7407   7.594   7.151   2.885  0.1072  0.0524 -0.0895
   37MOL   N136 7408   7.721   7.203   2.935  0.0557  0.2647 -0.3233
   37MOL   H137 7409   7.392   7.171   2.891  0.3719 -0.4172  0.2649
   37MOL   H138 7410   7.459   7.188   3.053  2.7511  0.5926  1.4103
   37MOL   H139 7411   7.606   7.047   2.914 -1.1164 -0.2527 -0.6880
   37MOL   H140 7412   7.583   7.153   2.777 -0.7461 -2.0504 -0.0604
   37MOL   H141 7413   7.749   7.289   2.889  1.1838 -0.7199 -1.5159
   37MOL   C142 7414   0.018   7.168   3.032 -1.0629 -0.0502  0.0702
   37MOL   O143 7415   0.001   7.063   3.104 -0.6379 -0.2692  0.4773
   37MOL   C144 7416   0.138   7.256   3.058  0.3196 -0.2990 -0.0457
   37MOL   C145 7417   0.241   7.205   3.164  0.4427  0.4053 -0.2752
   37MOL   N146 7418   0.309   7.080   3.137  0.1418  0.0143  0.2665
   37MOL   H147 7419   0.095   7.344   3.106  0.5665 -0.7689  1.0376
   37MOL   H148 7420   0.183   7.287   2.963 -0.9682  1.1805 -0.1876
   37MOL   H149 7421   0.319   7.279   3.183  1.3243 -0.4127 -0.6596
   37MOL   H150 7422   0.171   7.187   3.246 -0.7471 -0.5121 -1.4708
   37MOL   H151 7423   0.322   7.053   3.041  2.9321  1.2052  0.2533
   37MOL   C152 7424   0.357   7.007   3.234  0.7035 -0.2377  0.0684
   37MOL   O153 7425   0.356   7.035   3.354  0.3529  0.2106 -0.2839
   37MOL   C154 7426   0.406   6.864   3.191  0.0499  0.1819 -0.0660
   37MOL   C155 7427   0.503   6.867   3.069  0.7782  0.5554 -0.5733
   37MOL   N156 7428   0.435   6.838   2.942 -0.2916 -0.6063 -0.1079
   37MOL   H157 7429   0.312   6.813   3.170 -0.2706  1.1776 -1.0760
   37MOL   H158 7430   0.449   6.814   3.278  0.8264  2.8711  1.1259
   37MOL   H159 7431   0.554   6.963   3.065  1.2218  0.2912 -1.5077
   37MOL   H160 7432   0.579   6.790   3.084  0.9727  0.9056  0.2324
   37MOL   H161 7433   0.395   6.745   2.942  0.3635 -0.8891 -0.5035
   37MOL   C162 7434   0.382   6.923   2.852  0.5125  0.0547 -0.4442
   37MOL   O163 7435   0.405   7.043   2.856 -0.0406  0.6056  0.5769
   37MOL   C164 7436   0.286   6.861   2.749 -0.0831  0.2681 -0.7082
   37MOL   C165 7437   0.146   6.915   2.790 -0.1323 -0.3855  0.3704
   37MOL   N166 7438   0.084   6.857   2.903 -0.4058 -0.5465 -0.3833
   37MOL   H167 7439   0.294   6.753   2.739 -1.3637  0.0228  0.7686
   37MOL   H168 7440   0.312   6.917   2.659  0.1332  2.3318  0.6061
   37MOL   H169 7441   0.138   7.023   2.798  0.1111 -0.2252 -1.4219
   37MOL   H170 7442   0.064   6.898   2.720 -1.6248  0.3941  1.8890
   37MOL   H171 7443   0.063   6.926   2.974  2.2486  0.7953 -0.8422
   37MOL   C172 7444   0.051   6.730   2.906  0.1952 -0.3121  0.2561
   37MOL   O173 7445   0.081   6.649   2.819  0.1107 -0.6758 -0.0353
   37MOL   C174 7446   7.742   6.689   3.023 -0.0008 -0.8645 -0.3497
   37MOL   C175 7447   7.648   6.579   2.984 -0.0335 -0.9956 -0.5637
   37MOL   N176 7448   7.538   6.572   3.081 -1.0406 -0.8752 -0.1007
   37MOL   H177 7449   7.680   6.772   3.058  1.2648 -0.0753  0.0649
   37MOL   H178 7450   0.032   6.651   3.098 -0.9211 -2.2959 -0.2051
   37MOL   H179 7451   7.605   6.593   2.885  3.1312 -1.6785 -2.0859
   37MOL   H180 7452   7.688   6.478   2.982  0.1839 -0.9743  1.5921
   37MOL   H181 7453   7.541   6.621   3.169 -3.1193  1.4458 -1.2480
   37MOL   C182 7454   7.430   6.498   3.063 -0.7688 -0.4901  0.0465
   37MOL   O183 7455   7.423   6.431   2.961 -0.0041  0.2111 -0.1407
   37MOL   C184 7456   7.333   6.496   3.177  0.1101 -0.2440 -0.1267
   37MOL   C185 7457   7.188   6.495   3.121  0.6020 -0.0428  0.0898
   37MOL   N186 7458   7.089   6.528   3.224 -0.0507 -0.9185  0.3638
   37MOL   H187 7459   7.333   6.581   3.245  0.2789 -2.5050  2.8076
   37MOL   H188 7460   7.347   6.408   3.239 -0.2703  1.0097  1.7690
   37MOL   H189 7461   7.187   6.546   3.025  1.2732 -0.8737 -0.3623
   37MOL   H190 7462   7.174   6.391   3.092 -1.0561 -0.1356  1.1830
   37MOL   H191 7463   7.073   6.457   3.294  1.5718 -0.5954  1.0742
   37MOL   C192 7464   7.011   6.642   3.216  0.1040 -1.2249  0.4579
   37MOL   O193 7465   7.017   6.721   3.115  0.2225  0.2237  0.0178
   37MOL   C194 7466   6.911   6.671   3.324  0.8407  0.3809 -0.1959
   37MOL   C195 7467   6.873   6.814   3.346  0.0868  0.3352  1.2832
   37MOL   N196 7468   6.979   6.917   3.367  0.4760 -0.7350 -0.2131
   37MOL   H197 7469   6.820   6.616   3.304  0.6347  1.3641 -2.0308
   37MOL   H198 7470   6.951   6.629   3.417 -0.7033  0.2841  0.4454
   37MOL   H199 7471   6.807   6.844   3.265 -1.6570 -0.6382  2.3185
   37MOL   H200 7472   6.816   6.811   3.439  0.1314 -0.9900  1.2741
   37MOL   H201 7473   7.030   6.924   3.280 -0.0675 -0.7309 -0.5349
   37MOL   H202 7474   6.946   7.008   3.395 -0.7989 -1.4497  0.6540
   38MOL     C1 7475   5.045   0.618   5.397 -0.6922 -0.3933  0.5149
   38MOL     O2 7476   4.962   0.685   5.469 -0.2361 -0.7823  0.0311
   38MOL     C3 7477   5.010   0.533   5.278  0.7475  0.7933 -0.7160
   38MOL     C4 7478   4.901   0.586   5.184 -0.3028 -0.8430  0.0912
   38MOL     N5 7479   4.932   0.720   5.145 -0.0437  0.2480 -0.2346
   38MOL     H6 7480   4.989   0.430   5.309 -2.2842  0.9724 -1.9230
   38MOL     H7 7481   5.106   0.521   5.229  0.1468 -1.0126 -1.4934
   38MOL     H8 7482   4.805   0.584   5.236 -0.6687 -1.3788 -0.5794
   38MOL     H9 7483   4.897   0.515   5.101 -2.2732 -1.1119  0.3869
   38MOL    H10 7484   5.026   0.753   5.157 -0.3324  1.2982 -0.7997
   38MOL    H11 7485   5.152   0.641   5.398 -1.1795  2.0542  2.8029
   38MOL    C12 7486   4.846   0.808   5.095  0.8193 -0.1159  0.7690
   38MOL    O13 7487   4.727   0.778   5.095 -0.0870  0.0518  0.4453
   38MOL    C14 7488   4.898   0.946   5.054 -0.5706  0.1135 -0.0377
   38MOL    C15 7489   4.859   1.060   5.154  0.3151 -0.0752 -0.3040
   38MOL    N16 7490   4.721   1.106   5.135  0.5051 -0.0244 -0.4711
   38MOL    H17 7491   4.874   0.962   4.949  1.1181 -2.3599 -0.8520
   38MOL    H18 7492   5.006   0.940   5.067 -0.4154  0.1715 -1.2316
   38MOL    H19 7493   4.882   1.038   5.258  3.7871  2.1770 -0.5364
   38MOL    H20 7494   4.916   1.150   5.134 -1.1465  1.2615  1.3347
   38MOL    H21 7495   4.703   1.132   5.039 -1.0892 -1.7611 -0.6779
   38MOL    C22 7496   4.639   1.137   5.234 -0.2376 -0.2241  1.1612
   38MOL    O23 7497   4.669   1.126   5.350  0.7899  0.9458 -0.9865
   38MOL    C24 7498   4.503   1.196   5.190  0.4926  0.1254  0.5698
   38MOL    C25 7499   4.506   1.350   5.174  0.4616  0.1438 -0.3589
   38MOL    N26 7500   4.556   1.393   5.040 -0.4231 -0.5614  0.1322
   38MOL    H27 7501   4.425   1.165   5.259  0.5301  0.3890  0.7316
   38MOL    H28 7502   4.468   1.153   5.096  0.0230 -1.4849  1.4738
   38MOL    H29 7503   4.405   1.388   5.190  0.7805  1.1018 -0.6255
   38MOL    H30 7504   4.564   1.392   5.256 -1.1905  0.5702  0.6126
   38MOL    H31 7505   4.620   1.330   4.993 -0.0022  1.4030 -2.0254
   38MOL    C32 7506   4.502   1.497   4.970 -0.3802  0.5779 -0.6393
   38MOL    O33 7507   4.423   1.570   5.027  0.0220 -0.1402  0.4881
   38MOL    C34 7508   4.545   1.517   4.823  0.8610 -0.0688 -0.5074
   38MOL    C35 7509   4.697   1.537   4.818  0.1017 -0.1965  0.6434
   38MOL    N36 7510   4.737   1.599   4.693 -0.1395 -0.1138  0.5621
   38MOL    H37 7511   4.487   1.599   4.782  2.0694  0.2572 -1.5673
   38MOL    H38 7512   4.510   1.440   4.754 -1.2361  1.4872 -1.2511
   38MOL    H39 7513   4.732   1.611   4.890  3.2041 -0.6144 -0.3760
   38MOL    H40 7514   4.745   1.440   4.826 -0.0140 -0.2445  0.7687
   38MOL    H41 7515   4.668   1.649   4.639  0.0650  0.7300  1.0750
   38MOL    C42 7516   4.862   1.626   4.655  0.1141 -0.1628  0.7681
   38MOL    O43 7517   4.959   1.604   4.727  0.2204 -0.4367 -0.2013
   38MOL    C44 7518   4.879   1.677   4.516 -0.7556  0.2460 -0.7150
   38MOL    C45 7519   4.991   1.610   4.428 -1.0594 -0.9442  0.2834
   38MOL    N46 7520   5.125   1.663   4.465 -0.1486 -0.0915 -0.2776
   38MOL    H47 7521   4.783   1.664   4.466 -1.4536  1.3748  0.3038
   38MOL    H48 7522   4.900   1.784   4.513 -1.4705  0.4152  0.1225
   38MOL    H49 7523   4.991   1.504   4.450 -1.1420 -0.9204  0.4011
   38MOL    H50 7524   4.974   1.623   4.321 -1.0665 -0.1489  0.3769
   38MOL    H51 7525   5.133   1.719   4.549  0.4194  0.2168 -0.5403
   38MOL    C52 7526   5.238   1.661   4.400  0.5904 -0.8334 -1.3498
   38MOL    O53 7527   5.244   1.602   4.289  0.2764 -0.8289  0.3901
   38MOL    C54 7528   5.358   1.730   4.459  0.1095 -0.2750  0.0242
   38MOL    C55 7529   5.489   1.666   4.428 -0.2900 -0.4761  0.3543
   38MOL    N56 7530   5.489   1.521   4.454  0.2193  0.4442 -0.1058
   38MOL    H57 7531   5.353   1.831   4.417  0.3831 -0.5958 -0.7926
   38MOL    H58 7532   5.344   1.752   4.565  0.4740 -1.1616  0.2577
   38MOL    H59 7533   5.569   1.714   4.485 -0.0655 -0.7127  0.2412
   38MOL    H60 7534   5.519   1.684   4.324 -1.2465 -1.3115 -0.0774
   38MOL    H61 7535   5.470   1.454   4.381  0.6999  1.5005 -1.2371
   38MOL    C62 7536   5.512   1.476   4.577 -0.1498  0.2511  0.0114
   38MOL    O63 7537   5.525   1.551   4.676 -0.5746 -1.0244  0.0092
   38MOL    C64 7538   5.495   1.323   4.595 -0.2060  0.4168 -0.1155
   38MOL    C65 7539   5.489   1.284   4.748 -0.2269 -0.4450 -0.5072
   38MOL    N66 7540   5.620   1.256   4.806 -0.2110  0.4744 -0.3521
   38MOL    H67 7541   5.399   1.295   4.553 -0.6740 -0.3531  1.4249
   38MOL    H68 7542   5.573   1.278   4.533 -2.0731  0.4609 -2.5731
   38MOL    H69 7543   5.439   1.357   4.812  0.8497 -0.4852  0.4058
   38MOL    H70 7544   5.418   1.201   4.751  0.3944 -0.9825 -0.4952
   38MOL    H71 7545   5.689   1.218   4.744  1.3596  0.7054  1.1948
   38MOL    C72 7546   5.647   1.262   4.936 -0.5354 -0.4465  0.0858
   38MOL    O73 7547   5.558   1.277   5.023 -0.2294 -0.6168  0.3254
   38MOL    C74 7548   5.795   1.252   4.969 -0.0137  0.3740  1.1051
   38MOL    C75 7549   5.827   1.298   5.122 -0.2424 -0.1538  1.1744
   38MOL    N76 7550   5.967   1.286   5.158  0.4538 -0.3804  0.5058
   38MOL    H77 7551   5.812   1.144   4.971  1.6820  0.6443  1.6935
   38MOL    H78 7552   5.870   1.304   4.909  0.8576 -0.8274  1.1348
   38MOL    H79 7553   5.803   1.401   5.144 -0.0344  0.0404  0.5132
   38MOL    H80 7554   5.763   1.237   5.186  1.6462 -2.4613  0.9769
   38MOL    H81 7555   6.041   1.275   5.091  0.6919  1.1740  0.5014
   38MOL    C82 7556   6.009   1.299   5.282  0.2379 -0.4493 -0.7357
   38MOL    O83 7557   5.929   1.317   5.377  0.3426 -0.2676  1.1585
   38MOL    C84 7558   6.159   1.296   5.306 -0.3486  0.2087 -0.3025
   38MOL    C85 7559   6.209   1.299   5.452  0.0595 -0.1314  0.3830
   38MOL    N86 7560   6.328   1.221   5.462  0.2397  0.8193 -0.1484
   38MOL    H87 7561   6.183   1.198   5.266  0.3195  0.3703 -0.3090
   38MOL    H88 7562   6.210   1.379   5.258 -0.1914  0.2264 -0.1096
   38MOL    H89 7563   6.216   1.404   5.481 -1.7098  0.1822 -0.2541
   38MOL    H90 7564   6.140   1.257   5.524  1.8625 -2.9246  0.5508
   38MOL    H91 7565   6.334   1.145   5.394 -0.3408  2.4065 -2.0188
   38MOL    C92 7566   6.437   1.261   5.532  0.0771 -0.2199 -0.4036
   38MOL    O93 7567   6.433   1.357   5.617  0.0494  0.5410  0.3781
   38MOL    C94 7568   6.568   1.184   5.512 -0.2898  0.2175 -0.5513
   38MOL    C95 7569   6.666   1.255   5.415  0.7379  0.2492 -0.9499
   38MOL    N96 7570   6.620   1.285   5.277  0.1962 -0.3099  0.1788
   38MOL    H97 7571   6.615   1.176   5.610  1.7123 -1.1841 -1.6009
   38MOL    H98 7572   6.539   1.090   5.466 -1.2730 -0.1186  0.7341
   38MOL    H99 7573   6.686   1.354   5.456  2.3992 -0.8096  0.8133
   38MOL   H100 7574   6.765   1.209   5.411  1.3201  1.4376 -0.4880
   38MOL   H101 7575   6.563   1.369   5.275  0.7607  0.0901  0.6624
   38MOL   C102 7576   6.618   1.200   5.177  0.6666  0.2342 -0.3928
   38MOL   O103 7577   6.681   1.101   5.181  0.1284  0.4350 -0.1549
   38MOL   C104 7578   6.540   1.240   5.053 -0.0186  0.4354  0.5338
   38MOL   C105 7579   6.419   1.137   5.033  0.3922 -0.1967  0.1009
   38MOL   N106 7580   6.365   1.137   4.901 -0.5932  0.6810 -0.2281
   38MOL   H107 7581   6.614   1.229   4.974 -1.1291 -0.6944 -0.3896
   38MOL   H108 7582   6.502   1.342   5.051  0.9873  0.8217  0.8953
   38MOL   H109 7583   6.456   1.037   5.056 -1.5459 -0.8666  0.4136
   38MOL   H110 7584   6.353   1.162   5.116  2.8039  1.4757  1.5856
   38MOL   H111 7585   6.424   1.100   4.828 -0.6502  1.4730 -0.6829
   38MOL   C112 7586   6.234   1.167   4.872 -0.3627 -0.0259 -0.0784
   38MOL   O113 7587   6.155   1.178   4.965  0.3111  0.8401 -0.3271
   38MOL   C114 7588   6.197   1.160   4.727 -0.2712  0.7845 -0.3557
   38MOL   C115 7589   6.052   1.181   4.693 -0.0362 -0.2096  1.1889
   38MOL   N116 7590   5.959   1.076   4.725 -0.3592 -0.0844 -0.2193
   38MOL   H117 7591   6.223   1.063   4.684 -1.2017  0.6576 -0.6392
   38MOL   H118 7592   6.257   1.241   4.685  0.7930 -0.1113 -0.5595
   38MOL   H119 7593   6.021   1.278   4.731  1.4414  0.1366  1.5301
   38MOL   H120 7594   6.046   1.185   4.584 -1.1837 -2.2890  1.1447
   38MOL   H121 7595   5.983   0.995   4.781  0.1172  0.3390  0.1953
   38MOL   C122 7596   5.841   1.060   4.669  1.0512 -0.6168  0.7412
   38MOL   O123 7597   5.783   1.151   4.597 -0.2726 -0.2468  0.5425
   38MOL   C124 7598   5.774   0.918   4.668 -0.0765 -0.9443 -0.2506
   38MOL   C125 7599   5.788   0.853   4.535 -0.4800  0.2674 -0.2436
   38MOL   N126 7600   5.669   0.789   4.488 -0.1730  0.3979  0.3204
   38MOL   H127 7601   5.667   0.924   4.686 -0.0838  0.6623 -0.8039
   38MOL   H128 7602   5.810   0.866   4.757  1.5693 -1.6807 -1.3142
   38MOL   H129 7603   5.800   0.933   4.462 -0.7730 -0.4672 -1.0974
   38MOL   H130 7604   5.864   0.776   4.546 -1.8555 -1.0261  0.3823
   38MOL   H131 7605   5.581   0.784   4.537 -0.4723 -2.0666 -0.3593
   38MOL   C132 7606   5.663   0.745   4.365 -0.2968  0.0585  0.3665
   38MOL   O133 7607   5.754   0.751   4.285  0.6583  0.4241 -0.6593
   38MOL   C134 7608   5.527   0.680   4.320 -0.6370  0.0499 -0.2331
   38MOL   C135 7609   5.413   0.669   4.423  0.7247 -0.1172 -0.0418
   38MOL   N136 7610   5.339   0.793   4.424  0.3486 -0.5556 -0.2045
   38MOL   H137 7611   5.550   0.576   4.298  0.0245 -0.1571  1.3295
   38MOL   H138 7612   5.487   0.731   4.233  0.7663  0.9675 -0.3587
   38MOL   H139 7613   5.350   0.593   4.376  1.4430  0.1747 -1.4902
   38MOL   H140 7614   5.454   0.630   4.517 -1.6000 -0.8939  0.6974
   38MOL   H141 7615   5.272   0.812   4.350 -1.7638 -1.0822  1.5136
   38MOL   C142 7616   5.334   0.881   4.531  0.0168  0.8594 -0.2313
   38MOL   O143 7617   5.408   0.872   4.629  0.0126 -0.9159 -0.5415
   38MOL   C144 7618   5.239   0.990   4.522  0.1951  0.2133 -0.3198
   38MOL   C145 7619   5.120   0.985   4.627 -0.6826  0.3877 -0.1596
   38MOL   N146 7620   5.050   1.108   4.639 -0.4390 -0.2081 -0.0418
   38MOL   H147 7621   5.194   0.998   4.423 -0.3934  1.2303  0.0181
   38MOL   H148 7622   5.291   1.085   4.535 -0.0721  0.3598 -0.2960
   38MOL   H149 7623   5.051   0.901   4.616  0.1252 -0.0703 -1.8783
   38MOL   H150 7624   5.162   0.973   4.727  0.3549 -0.7820 -0.7192
   38MOL   H151 7625   5.086   1.169   4.711  2.2662  0.0580 -1.5539
   38MOL   C152 7626   4.937   1.142   4.576  0.1988  0.5152 -0.2142
   38MOL   O153 7627   4.909   1.098   4.469 -0.0455 -0.1320 -0.3659
   38MOL   C154 7628   4.857   1.258   4.634 -0.2681  0.8681 -0.0421
   38MOL   C155 7629   4.702   1.233   4.605 -0.4127 -0.8535 -0.5248
   38MOL   N156 7630   4.649   1.113   4.670 -0.1435  0.4816  0.2126
   38MOL   H157 7631   4.880   1.353   4.584  1.0657  0.1864 -0.7497
   38MOL   H158 7632   4.865   1.257   4.743 -0.6101 -2.1954 -0.0083
   38MOL   H159 7633   4.647   1.325   4.627  1.0631  0.1704 -1.0335
   38MOL   H160 7634   4.690   1.220   4.498 -1.4816 -1.3462 -0.3493
   38MOL   H161 7635   4.619   1.035   4.614  1.6054 -1.0491  1.3666
   38MOL   C162 7636   4.642   1.092   4.800  0.2762 -0.3464  0.0754
   38MOL   O163 7637   4.670   1.178   4.885  0.5471  0.4204  0.3587
   38MOL   C164 7638   4.596   0.958   4.845 -0.1906  0.0956  0.0002
   38MOL   C165 7639   4.441   0.934   4.840 -0.1275 -0.4237  0.3005
   38MOL   N166 7640   4.393   0.877   4.715 -0.8176  0.1620  0.0271
   38MOL   H167 7641   4.625   0.961   4.950 -1.0341  1.3832  0.2158
   38MOL   H168 7642   4.654   0.886   4.787 -0.2557  0.2815 -0.2992
   38MOL   H169 7643   4.401   0.880   4.926  0.7049 -3.0163 -0.8847
   38MOL   H170 7644   4.387   1.028   4.852 -0.5587 -0.7905  1.3526
   38MOL   H171 7645   4.400   0.777   4.718  0.4456  0.2572  3.5937
   38MOL   C172 7646   4.348   0.944   4.606 -0.3647 -0.6682  0.1841
   38MOL   O173 7647   4.344   1.069   4.616  0.0366  0.1221 -0.4964
   38MOL   C174 7648   4.287   0.867   4.486  0.5301 -0.3039 -0.5178
   38MOL   C175 7649   4.363   0.869   4.360 -0.4555  0.4155  0.0203
   38MOL   N176 7650   4.480   0.784   4.363  0.1021  0.0823 -0.3418
   38MOL   H177 7651   4.200   0.926   4.460  2.7074  2.4246 -1.8088
   38MOL   H178 7652   4.258   0.764   4.507 -1.6262  0.5080  0.6852
   38MOL   H179 7653   4.284   0.831   4.295 -0.0370 -1.1867  0.4261
   38MOL   H180 7654   4.370   0.969   4.318 -0.4825  0.0416 -0.8988
   38MOL   H181 7655   4.470   0.686   4.342 -1.6386  0.3237 -0.6742
   38MOL   C182 7656   4.602   0.829   4.403  0.2345 -0.4483 -0.3639
   38MOL   O183 7657   4.619   0.946   4.432 -0.1186  0.1568 -0.5252
   38MOL   C184 7658   4.711   0.721   4.404  0.7170 -0.7876  0.1219
   38MOL   C185 7659   4.846   0.775   4.458 -0.4014  0.7119 -0.3667
   38MOL   N186 7660   4.946   0.663   4.468 -0.4657 -0.6014  0.0108
   38MOL   H187 7661   4.722   0.678   4.304 -0.7439 -1.0659  0.0696
   38MOL   H188 7662   4.673   0.629   4.448 -2.3647 -0.2416 -1.2448
   38MOL   H189 7663   4.878   0.857   4.394 -0.9130 -0.0795 -1.6484
   38MOL   H190 7664   4.835   0.821   4.556 -0.8960 -2.8305  1.3118
   38MOL   H191 7665   4.979   0.644   4.562  0.7652  0.0237 -0.2873
   38MOL   C192 7666   5.009   0.597   4.375 -0.2760  0.0159  0.0618
   38MOL   O193 7667   5.073   0.495   4.402  0.2730 -0.4055 -0.1628
   38MOL   C194 7668   4.982   0.641   4.230 -0.3140  0.5227  0.5580
   38MOL   C195 7669   5.110   0.716   4.178 -0.7390 -0.3597  0.0164
   38MOL   N196 7670   5.127   0.857   4.211 -0.0235  0.2576  0.1203
   38MOL   H197 7671   4.967   0.553   4.167  0.2635  1.2895 -0.6759
   38MOL   H198 7672   4.890   0.689   4.196  0.5016  0.2316 -2.1905
   38MOL   H199 7673   5.199   0.662   4.209 -0.1443  0.2366 -0.6375
   38MOL   H200 7674   5.114   0.702   4.070  0.2971  0.0814 -0.0115
   38MOL   H201 7675   5.045   0.914   4.192  0.3053  0.0473 -2.0710
   38MOL   H202 7676   5.183   0.886   4.132  0.1444 -0.0919  0.1094
   39MOL     C1 7677   5.291   4.587   2.734 -0.5884  0.0987  0.1499
   39MOL     O2 7678   5.260   4.482   2.789 -0.4315 -0.1785 -0.1768
   39MOL     C3 7679   5.269   4.608   2.584 -0.0366  0.2246 -0.2120
   39MOL     C4 7680   5.128   4.569   2.536 -0.5809  0.0669  0.6855
   39MOL     N5 7681   5.082   4.662   2.432  0.6142  0.6731  0.3872
   39MOL     H6 7682   5.340   4.570   2.511  0.0472  1.8429 -0.9908
   39MOL     H7 7683   5.275   4.716   2.569  1.3680  0.0716 -0.7945
   39MOL     H8 7684   5.054   4.579   2.615 -1.7456 -1.3807 -0.2032
   39MOL     H9 7685   5.123   4.467   2.498 -0.3564 -0.0124  0.8720
   39MOL    H10 7686   5.154   4.709   2.379 -0.4771 -2.1257 -3.8529
   39MOL    H11 7687   5.356   4.670   2.764  1.3653 -1.1599 -0.4555
   39MOL    C12 7688   4.952   4.694   2.425  0.5404 -0.3931 -0.2244
   39MOL    O13 7689   4.869   4.638   2.495 -0.3275  0.2378  0.4880
   39MOL    C14 7690   4.918   4.797   2.319 -0.2561  0.3555 -0.8118
   39MOL    C15 7691   4.769   4.848   2.323 -0.6404 -0.3635  0.4356
   39MOL    N16 7692   4.753   4.959   2.423  0.1185  0.5350  0.2830
   39MOL    H17 7693   4.925   4.754   2.220  1.4560 -1.8150  0.2142
   39MOL    H18 7694   4.981   4.887   2.316 -0.8880  0.9404  1.8728
   39MOL    H19 7695   4.749   4.882   2.221 -1.2122 -0.0500  0.6509
   39MOL    H20 7696   4.698   4.770   2.352 -1.5821  0.5046  0.5166
   39MOL    H21 7697   4.768   4.923   2.516 -1.7161  1.2139  0.8825
   39MOL    C22 7698   4.778   5.089   2.410  0.3953  0.4385 -0.5909
   39MOL    O23 7699   4.779   5.164   2.508  0.2083 -0.3048  0.2795
   39MOL    C24 7700   4.799   5.144   2.264  0.4794  0.2483  0.2986
   39MOL    C25 7701   4.859   5.286   2.270 -0.0978  0.3192 -0.2733
   39MOL    N26 7702   4.889   5.331   2.139  0.2732  0.1104 -0.3480
   39MOL    H27 7703   4.709   5.124   2.206 -0.3248  0.2097  1.5252
   39MOL    H28 7704   4.878   5.085   2.218 -0.3730 -0.5747 -0.1310
   39MOL    H29 7705   4.788   5.349   2.324  1.6414 -0.2916  2.8694
   39MOL    H30 7706   4.950   5.276   2.329  0.6693 -1.5183 -1.7191
   39MOL    H31 7707   4.985   5.324   2.107  0.7675 -0.3714  1.1931
   39MOL    C32 7708   4.794   5.373   2.052  0.6341  1.3903  0.1493
   39MOL    O33 7709   4.680   5.388   2.091 -0.6145  0.3261  0.1574
   39MOL    C34 7710   4.829   5.393   1.903 -0.5806  0.0577 -0.7740
   39MOL    C35 7711   4.848   5.542   1.868 -0.4080 -0.3440 -0.0794
   39MOL    N36 7712   4.965   5.601   1.923 -0.0358 -0.6568  0.4939
   39MOL    H37 7713   4.744   5.357   1.844 -1.8947  0.7180  0.6909
   39MOL    H38 7714   4.917   5.333   1.882 -0.9555 -0.4264 -0.9761
   39MOL    H39 7715   4.861   5.549   1.760 -0.6349  0.2718 -0.0657
   39MOL    H40 7716   4.756   5.595   1.895  0.1291  0.3124  0.4737
   39MOL    H41 7717   5.045   5.539   1.921  0.0670 -0.5037  0.0225
   39MOL    C42 7718   4.964   5.711   2.010 -0.0831 -0.0315  0.1132
   39MOL    O43 7719   4.860   5.781   2.029  0.2033  0.2895  0.3169
   39MOL    C44 7720   5.088   5.728   2.105 -0.0256  0.5699  0.5567
   39MOL    C45 7721   5.072   5.805   2.232 -0.2608 -0.2563  0.3623
   39MOL    N46 7722   5.104   5.945   2.199 -0.3883 -0.0822 -0.2848
   39MOL    H47 7723   5.123   5.626   2.122 -1.9472 -0.2240 -0.0829
   39MOL    H48 7724   5.167   5.765   2.039  0.6001 -0.8188  0.5156
   39MOL    H49 7725   4.969   5.791   2.265 -0.1920 -0.2613  0.5725
   39MOL    H50 7726   5.138   5.777   2.314  2.5350  0.3454 -1.5854
   39MOL    H51 7727   5.202   5.960   2.179  0.1060 -2.4149  0.1984
   39MOL    C52 7728   5.010   6.041   2.180 -0.6858 -1.4485  0.7880
   39MOL    O53 7729   4.894   6.042   2.229 -0.3547 -0.0800  0.0178
   39MOL    C54 7730   5.045   6.152   2.086  0.5183  0.1216 -0.7635
   39MOL    C55 7731   5.050   6.102   1.938  0.6878 -0.1115  0.3508
   39MOL    N56 7732   5.141   6.184   1.854 -0.0775 -0.3335  0.7917
   39MOL    H57 7733   4.997   6.248   2.104  0.1844 -0.0269 -0.8469
   39MOL    H58 7734   5.141   6.174   2.132 -0.1183 -1.5085  1.4246
   39MOL    H59 7735   4.956   6.111   1.884  0.4355 -0.3181  0.7500
   39MOL    H60 7736   5.067   5.995   1.930 -0.9595 -0.3477 -0.3302
   39MOL    H61 7737   5.148   6.282   1.877  0.4919  0.0315 -0.8907
   39MOL    C62 7738   5.188   6.139   1.739 -0.5417 -0.4746  0.2340
   39MOL    O63 7739   5.177   6.016   1.716 -0.1653  0.1288  0.0790
   39MOL    C64 7740   5.264   6.239   1.646  0.5826  0.0500  0.6068
   39MOL    C65 7741   5.233   6.210   1.498  0.9018 -0.1225  0.3626
   39MOL    N66 7742   5.260   6.331   1.421 -0.4485  1.0945  0.1618
   39MOL    H67 7743   5.233   6.342   1.661 -0.5960 -0.1965 -0.0738
   39MOL    H68 7744   5.373   6.243   1.658  0.6149 -0.1961  0.4005
   39MOL    H69 7745   5.292   6.123   1.470 -0.2194 -1.3238  1.6489
   39MOL    H70 7746   5.132   6.176   1.476  1.1402 -0.0214 -0.9097
   39MOL    H71 7747   5.351   6.355   1.386 -1.1219  2.7832 -0.4873
   39MOL    C72 7748   5.174   6.415   1.374 -0.1192 -0.2579  0.1749
   39MOL    O73 7749   5.053   6.405   1.402  0.2483  0.3969 -0.3858
   39MOL    C74 7750   5.208   6.527   1.270  0.8113  0.2615  0.1893
   39MOL    C75 7751   5.132   6.662   1.290 -0.0143 -0.1293  0.6001
   39MOL    N76 7752   5.134   6.734   1.416 -0.2579 -0.1586  0.4589
   39MOL    H77 7753   5.317   6.532   1.270  0.8952 -0.5586  2.6670
   39MOL    H78 7754   5.187   6.488   1.171  0.3359 -0.5939  0.6202
   39MOL    H79 7755   5.175   6.727   1.214  0.0026 -2.6138 -1.5901
   39MOL    H80 7756   5.025   6.652   1.271 -0.1055  1.5194  0.1940
   39MOL    H81 7757   5.224   6.778   1.430 -0.0163 -0.2755 -0.6944
   39MOL    C82 7758   5.045   6.744   1.513 -0.0458  0.5572 -0.1659
   39MOL    O83 7759   4.931   6.691   1.506  0.1999 -0.4750  0.1050
   39MOL    C84 7760   5.078   6.844   1.631 -0.4065  0.5068  0.2531
   39MOL    C85 7761   4.964   6.919   1.682 -0.0935  0.9535  1.0315
   39MOL    N86 7762   5.011   7.015   1.786 -0.1087  0.0491 -0.1820
   39MOL    H87 7763   5.125   6.792   1.714  0.6588 -0.6872 -1.0700
   39MOL    H88 7764   5.154   6.916   1.600  0.7941 -1.5406 -1.6822
   39MOL    H89 7765   4.911   6.960   1.596 -0.0931  1.2443  1.1685
   39MOL    H90 7766   4.889   6.855   1.727  1.1525 -0.0036  1.7594
   39MOL    H91 7767   5.026   7.108   1.748  0.2260  0.3306  0.6264
   39MOL    C92 7768   5.037   6.996   1.919 -0.1448  0.0913  0.1239
   39MOL    O93 7769   5.016   6.888   1.977  1.0139  0.0663  0.0279
   39MOL    C94 7770   5.113   7.106   1.993  0.1714  0.9113  0.3806
   39MOL    C95 7771   5.027   7.235   2.005  0.3798 -0.0458 -0.1977
   39MOL    N96 7772   4.929   7.232   2.117  0.3404 -0.3373 -0.1828
   39MOL    H97 7773   5.136   7.066   2.091  1.0079  1.4403  0.4014
   39MOL    H98 7774   5.207   7.125   1.942  0.8729 -0.0068  1.3142
   39MOL    H99 7775   5.099   7.316   2.014  0.2990 -0.0371  0.3869
   39MOL   H100 7776   4.978   7.251   1.909  1.4435 -1.1826 -0.9425
   39MOL   H101 7777   4.951   7.177   2.199 -2.3520 -1.5046 -0.2066
   39MOL   C102 7778   4.832   7.325   2.126  0.0698  0.0627 -0.3271
   39MOL   O103 7779   4.804   7.402   2.037  0.3002 -0.2452  0.2640
   39MOL   C104 7780   4.755   7.327   2.265 -0.0163  0.2622  0.5511
   39MOL   C105 7781   4.602   7.355   2.271 -0.1727 -1.0969  0.4687
   39MOL   N106 7782   4.562   7.491   2.238 -0.0040 -0.3714  0.3884
   39MOL   H107 7783   4.802   7.408   2.321  1.7301  0.7297 -1.5269
   39MOL   H108 7784   4.777   7.238   2.324 -0.3254 -0.4381 -0.3760
   39MOL   H109 7785   4.562   7.289   2.193  2.0713 -1.2351 -0.5910
   39MOL   H110 7786   4.556   7.332   2.367 -0.6611  1.4548  0.8839
   39MOL   H111 7787   4.633   7.549   2.195 -1.7601  0.4469 -1.4671
   39MOL   C112 7788   4.433   7.531   2.223 -0.2762  0.3488  0.8569
   39MOL   O113 7789   4.334   7.470   2.269  0.7113  0.3723  0.1354
   39MOL   C114 7790   4.413   7.663   2.148 -0.3241 -0.6701 -0.6443
   39MOL   C115 7791   4.459   7.661   2.001  0.6200 -0.3939  0.5470
   39MOL   N116 7792   4.361   7.618   1.902  0.2045  0.6045 -0.2470
   39MOL   H117 7793   4.462   7.752   2.188 -1.3413 -0.0074 -0.8732
   39MOL   H118 7794   4.307   7.687   2.151  0.1923  1.8857 -1.9582
   39MOL   H119 7795   4.481   7.763   1.970 -1.6014  0.0638  0.3733
   39MOL   H120 7796   4.561   7.622   2.001  1.2292  1.1809  0.4100
   39MOL   H121 7797   4.332   7.690   1.837 -2.6535 -0.2074  0.0888
   39MOL   C122 7798   4.329   7.494   1.868  0.4942  0.7501 -0.0146
   39MOL   O123 7799   4.349   7.395   1.940  0.2616  0.0246  0.0181
   39MOL   C124 7800   4.250   7.470   1.735 -0.1334  0.3082 -0.3327
   39MOL   C125 7801   4.276   7.330   1.678  0.0821  0.5198  0.3193
   39MOL   N126 7802   4.376   7.339   1.581  0.9047  0.6836  0.4171
   39MOL   H127 7803   4.258   7.550   1.661 -1.4109  1.4860  0.7821
   39MOL   H128 7804   4.145   7.471   1.763 -0.7013  1.8894 -2.3760
   39MOL   H129 7805   4.295   7.245   1.743 -0.3868 -0.5141 -0.8961
   39MOL   H130 7806   4.189   7.292   1.625 -1.6510  2.2840  1.7894
   39MOL   H131 7807   4.456   7.282   1.604 -0.0077 -0.1725  1.5046
   39MOL   C132 7808   4.362   7.407   1.468  0.0462  0.0481  0.3586
   39MOL   O133 7809   4.255   7.451   1.431 -0.0851  0.2034 -0.0112
   39MOL   C134 7810   4.494   7.419   1.386 -0.3976  0.4178  0.2249
   39MOL   C135 7811   4.525   7.295   1.297  0.3694 -0.8915 -0.1358
   39MOL   N136 7812   4.619   7.207   1.354 -0.4082 -0.1151  0.0948
   39MOL   H137 7813   4.576   7.457   1.446  1.1369 -1.4887 -0.6174
   39MOL   H138 7814   4.478   7.501   1.316  1.5722 -0.8125 -1.7334
   39MOL   H139 7815   4.434   7.237   1.280 -0.7342  0.6691  0.3409
   39MOL   H140 7816   4.543   7.332   1.196 -2.8308  0.7534 -0.1637
   39MOL   H141 7817   4.603   7.172   1.447  1.0478 -1.0464  0.0002
   39MOL   C142 7818   4.746   7.202   1.314  0.1255 -0.0620  0.5553
   39MOL   O143 7819   4.799   7.275   1.234  0.3905 -0.4057 -0.7660
   39MOL   C144 7820   4.828   7.098   1.383  0.7396  0.6692 -0.0696
   39MOL   C145 7821   4.949   7.045   1.304  0.2839 -0.0827 -0.5012
   39MOL   N146 7822   5.076   7.094   1.353 -0.0314 -0.0948 -0.0016
   39MOL   H147 7823   4.771   7.008   1.408  0.5747  0.5312 -0.9319
   39MOL   H148 7824   4.867   7.133   1.478  0.7059 -0.7182  0.4734
   39MOL   H149 7825   4.962   6.937   1.309 -3.0698 -0.6312 -2.0520
   39MOL   H150 7826   4.936   7.066   1.198  1.0505  2.2065 -0.1638
   39MOL   H151 7827   5.072   7.158   1.431  1.7203 -0.4065  0.3685
   39MOL   C152 7828   5.195   7.076   1.290  0.2347 -0.2020  0.5631
   39MOL   O153 7829   5.197   7.020   1.180  0.0597  0.0326 -0.6617
   39MOL   C154 7830   5.318   7.127   1.355  0.0959 -0.0949 -0.3333
   39MOL   C155 7831   5.424   7.192   1.256 -0.4806 -0.4375  0.4383
   39MOL   N156 7832   5.561   7.162   1.301  0.2525  0.3908 -0.3125
   39MOL   H157 7833   5.365   7.049   1.415 -2.4177 -1.3840  0.0316
   39MOL   H158 7834   5.282   7.196   1.431  0.9158 -0.5072  0.4481
   39MOL   H159 7835   5.424   7.142   1.159  0.1566 -0.4855  0.4593
   39MOL   H160 7836   5.402   7.299   1.250 -2.3911 -0.8400  0.0432
   39MOL   H161 7837   5.624   7.100   1.255  0.8639  0.2660  0.6789
   39MOL   C162 7838   5.607   7.211   1.419 -0.1854  0.0275 -0.4216
   39MOL   O163 7839   5.556   7.308   1.476  0.0053  0.1976 -0.9166
   39MOL   C164 7840   5.743   7.156   1.474 -0.0212 -0.3968  0.3034
   39MOL   C165 7841   5.731   7.097   1.615  0.5088  0.2263 -0.2895
   39MOL   N166 7842   5.858   7.043   1.657 -0.4762  0.2475  0.5723
   39MOL   H167 7843   5.812   7.240   1.485 -1.5379  0.8057  0.8243
   39MOL   H168 7844   5.786   7.088   1.401 -0.0581  0.9924 -1.0269
   39MOL   H169 7845   5.692   7.171   1.685  2.2709  0.4724  0.4538
   39MOL   H170 7846   5.648   7.026   1.615 -0.3732  1.2342 -1.3214
   39MOL   H171 7847   5.931   7.113   1.654 -1.1675  0.9094 -1.1974
   39MOL   C172 7848   5.882   6.937   1.734 -0.2274 -0.3438 -0.9483
   39MOL   O173 7849   5.795   6.854   1.757  0.3585  0.1217  0.1952
   39MOL   C174 7850   6.025   6.926   1.799  0.1121  0.1370  1.0243
   39MOL   C175 7851   6.093   6.785   1.793  0.0172 -0.2154 -0.2743
   39MOL   N176 7852   6.236   6.784   1.788  0.2328  0.3190  0.8601
   39MOL   H177 7853   6.009   6.959   1.902 -0.9189 -0.3950  1.0449
   39MOL   H178 7854   6.082   7.010   1.761 -3.0329  1.6775 -0.4529
   39MOL   H179 7855   6.053   6.725   1.875  0.2440 -0.9725 -0.7126
   39MOL   H180 7856   6.073   6.729   1.702 -0.7071  1.4536 -1.1667
   39MOL   H181 7857   6.279   6.717   1.727 -1.5673  0.9309 -1.1545
   39MOL   C182 7858   6.320   6.853   1.862  0.1845 -0.6303  0.1566
   39MOL   O183 7859   6.287   6.927   1.958 -0.1829  0.2287  0.2062
   39MOL   C184 7860   6.466   6.857   1.804 -0.2538 -0.8662  0.0351
   39MOL   C185 7861   6.546   6.737   1.852  0.4916  0.0177  0.7077
   39MOL   N186 7862   6.691   6.757   1.816 -0.0313 -0.3279 -0.0915
   39MOL   H187 7863   6.512   6.946   1.846  0.6653 -1.6132  0.6462
   39MOL   H188 7864   6.465   6.855   1.695  2.4444 -0.7803 -0.0311
   39MOL   H189 7865   6.535   6.734   1.961  0.4123 -0.9161  0.6752
   39MOL   H190 7866   6.498   6.651   1.807  2.4401 -1.1877  0.8988
   39MOL   H191 7867   6.729   6.849   1.799  0.5108 -0.4178  0.6144
   39MOL   C192 7868   6.781   6.658   1.802  0.8369 -0.5695  0.3602
   39MOL   O193 7869   6.755   6.540   1.816  0.0721  0.5529  0.1230
   39MOL   C194 7870   6.921   6.702   1.749 -0.3400 -0.6808  0.0401
   39MOL   C195 7871   7.033   6.727   1.851 -0.3157 -0.2763 -0.1497
   39MOL   N196 7872   7.002   6.842   1.926  0.0106  0.4856  0.0784
   39MOL   H197 7873   6.941   6.630   1.670 -2.9333  0.9332 -2.1692
   39MOL   H198 7874   6.901   6.790   1.687  2.4685  1.2600  1.7516
   39MOL   H199 7875   7.042   6.639   1.914  1.2083  0.1345  0.2029
   39MOL   H200 7876   7.117   6.733   1.782  0.2349  1.1126  0.6246
   39MOL   H201 7877   7.086   6.891   1.953  0.0262  1.6430 -1.9906
   39MOL   H202 7878   6.954   6.901   1.860 -0.3451  3.3611  2.8167
   40MOL     C1 7879   0.894   0.537   2.956  0.0016 -0.1694  0.1278
   40MOL     O2 7880   0.897   0.623   2.866  0.0640  0.2437  0.2225
   40MOL     C3 7881   0.867   0.395   2.914 -0.1043 -0.6904 -0.2103
   40MOL     C4 7882   0.922   0.290   3.007 -0.1014 -0.2320  0.0031
   40MOL     N5 7883   0.857   0.283   3.135  0.0015  0.1910  0.3815
   40MOL     H6 7884   0.915   0.388   2.817 -0.5059 -1.2668 -0.3713
   40MOL     H7 7885   0.762   0.375   2.890 -0.5458  1.1385  0.1032
   40MOL     H8 7886   1.027   0.310   3.029  0.4187 -3.2294  0.4517
   40MOL     H9 7887   0.917   0.196   2.951  0.5467  0.6316 -1.5462
   40MOL    H10 7888   0.782   0.348   3.156 -1.0465 -0.7611 -0.3680
   40MOL    H11 7889   0.919   0.569   3.057 -2.0087  1.5608  0.1115
   40MOL    C12 7890   0.885   0.183   3.215  0.1559  0.6406  0.2552
   40MOL    O13 7891   0.970   0.097   3.189 -0.0072 -0.4294  0.5425
   40MOL    C14 7892   0.807   0.179   3.345 -0.1827  0.5150 -0.5673
   40MOL    C15 7893   0.876   0.124   3.476  0.4116 -0.2757 -0.5038
   40MOL    N16 7894   0.863   7.758   3.493 -0.2691 -0.4385 -0.0454
   40MOL    H17 7895   0.711   0.129   3.333 -0.1473  0.9922 -3.1093
   40MOL    H18 7896   0.786   0.284   3.367 -1.6452  0.1773 -0.3115
   40MOL    H19 7897   0.978   0.162   3.477  0.3761 -0.1840  0.2703
   40MOL    H20 7898   0.828   0.176   3.559  2.5457  1.4372 -0.2935
   40MOL    H21 7899   0.770   7.719   3.499 -0.6048  0.0537 -1.6832
   40MOL    C22 7900   0.961   7.669   3.505 -0.6847  0.1777 -0.5123
   40MOL    O23 7901   1.078   7.704   3.525  0.3303 -0.6601  0.2814
   40MOL    C24 7902   0.922   7.524   3.500 -0.1289 -0.2036 -0.1242
   40MOL    C25 7903   0.995   7.435   3.601  0.5602  0.4956  0.6053
   40MOL    N26 7904   1.139   7.422   3.571 -0.0874  0.5647 -0.0676
   40MOL    H27 7905   0.937   7.483   3.400 -1.2402  0.7824 -0.7160
   40MOL    H28 7906   0.815   7.520   3.524 -0.6128  0.0808 -2.1645
   40MOL    H29 7907   0.998   7.472   3.703  0.2067  0.1346  0.7479
   40MOL    H30 7908   0.950   7.335   3.598  1.3494  0.1447  0.1314
   40MOL    H31 7909   1.177   7.492   3.508 -3.0551  1.3355 -1.1017
   40MOL    C32 7910   1.223   7.341   3.635  0.3034 -0.1498 -0.4127
   40MOL    O33 7911   1.189   7.244   3.693  0.2748  0.0515 -0.0748
   40MOL    C34 7912   1.372   7.367   3.626 -0.1611  0.1051 -0.7629
   40MOL    C35 7913   1.434   7.298   3.509 -0.6249 -0.3732  0.3004
   40MOL    N36 7914   1.581   7.330   3.505 -0.2383  0.3372 -0.2513
   40MOL    H37 7915   1.421   7.330   3.716  0.6452 -1.1384 -1.6819
   40MOL    H38 7916   1.382   7.475   3.613 -1.0219  0.5361  1.9153
   40MOL    H39 7917   1.436   7.189   3.501 -2.3186 -0.4476  0.6856
   40MOL    H40 7918   1.380   7.333   3.421 -0.3696  0.6390  0.5414
   40MOL    H41 7919   1.641   7.250   3.518 -0.0047 -0.0975 -3.4974
   40MOL    C42 7920   1.635   7.451   3.486  0.7253  0.7998 -0.1458
   40MOL    O43 7921   1.563   7.547   3.461  0.0244 -0.0673  0.5999
   40MOL    C44 7922   1.786   7.466   3.507 -0.7082  0.0858  0.2356
   40MOL    C45 7923   1.849   7.520   3.371 -0.2867  0.5119  0.3093
   40MOL    N46 7924   1.978   7.457   3.342  0.0862  0.4042 -0.2148
   40MOL    H47 7925   1.787   7.546   3.580 -0.0617  2.7912 -2.6480
   40MOL    H48 7926   1.834   7.376   3.546  1.6570  0.6333 -1.3375
   40MOL    H49 7927   1.777   7.496   3.294  0.7130 -0.8327 -0.2252
   40MOL    H50 7928   1.859   7.627   3.387  0.1921  0.3648  1.0370
   40MOL    H51 7929   2.062   7.512   3.349 -0.5498  1.2453  1.1790
   40MOL    C52 7930   2.003   7.342   3.281  0.0694 -0.1699 -0.5115
   40MOL    O53 7931   1.909   7.268   3.252  0.6652  0.1931  0.4711
   40MOL    C54 7932   2.150   7.297   3.263  0.2249 -0.5125  0.0124
   40MOL    C55 7933   2.156   7.167   3.190 -0.2174 -0.4856 -0.4669
   40MOL    N56 7934   2.290   7.134   3.149  0.0308  0.1241 -0.1222
   40MOL    H57 7935   2.196   7.379   3.208 -2.9528  1.5584  0.3200
   40MOL    H58 7936   2.210   7.288   3.354 -0.5019 -2.3098  0.3335
   40MOL    H59 7937   2.106   7.188   3.096 -1.5396 -0.5763  0.1946
   40MOL    H60 7938   2.106   7.080   3.234  0.1017 -0.2543  0.3729
   40MOL    H61 7939   2.347   7.205   3.105  1.3389  0.7940  2.5665
   40MOL    C62 7940   2.366   7.032   3.175  0.1087 -0.2008  1.0725
   40MOL    O63 7941   2.329   6.930   3.226 -0.7676 -0.0122 -0.1982
   40MOL    C64 7942   2.508   7.050   3.119 -0.1118  0.0416  0.3510
   40MOL    C65 7943   2.609   7.106   3.213 -0.1984 -0.5242  0.5782
   40MOL    N66 7944   2.575   7.236   3.270  0.2305 -0.7951 -0.3711
   40MOL    H67 7945   2.545   6.951   3.094 -0.2420 -0.0930  0.6940
   40MOL    H68 7946   2.514   7.103   3.024 -2.8753 -0.6018 -0.2183
   40MOL    H69 7947   2.643   7.043   3.295  0.3679 -0.1503  0.6330
   40MOL    H70 7948   2.701   7.115   3.155 -1.2875  0.0678 -1.0841
   40MOL    H71 7949   2.523   7.240   3.357  0.6732 -1.2283 -0.0784
   40MOL    C72 7950   2.627   7.350   3.240 -0.3867  0.9588  0.3856
   40MOL    O73 7951   2.702   7.376   3.144  0.4747  0.1797  0.1299
   40MOL    C74 7952   2.600   7.457   3.342 -1.2773  0.1469 -0.0400
   40MOL    C75 7953   2.468   7.532   3.316  0.4426 -0.6740 -1.0986
   40MOL    N76 7954   2.409   7.564   3.447  0.3758  0.1697 -0.3997
   40MOL    H77 7955   2.617   7.411   3.439 -2.1472  3.0922  1.5636
   40MOL    H78 7956   2.678   7.533   3.335 -0.1766 -1.0887 -1.6451
   40MOL    H79 7957   2.476   7.622   3.255 -1.4949  0.2912  0.0200
   40MOL    H80 7958   2.388   7.469   3.276  0.0871  0.0441 -1.5251
   40MOL    H81 7959   2.479   7.561   3.519  0.7089  1.4103 -0.6739
   40MOL    C82 7960   2.294   7.622   3.474  0.3518  0.2754  0.1238
   40MOL    O83 7961   2.208   7.632   3.387 -0.4136  0.3349  0.4542
   40MOL    C84 7962   2.267   7.662   3.623  0.2450  0.5833 -0.2073
   40MOL    C85 7963   2.134   7.601   3.670 -0.4974 -0.2396 -0.4654
   40MOL    N86 7964   2.136   7.581   3.815  0.0683 -0.1220 -0.5172
   40MOL    H87 7965   2.354   7.632   3.682 -1.2661  2.9129  3.4077
   40MOL    H88 7966   2.267   7.771   3.631  1.2222  0.6015 -0.3443
   40MOL    H89 7967   2.062   7.679   3.647  1.8043  1.8589 -0.8170
   40MOL    H90 7968   2.116   7.510   3.613 -0.3039  0.0920 -1.0657
   40MOL    H91 7969   2.204   7.633   3.869  1.6842 -2.7966  0.0792
   40MOL    C92 7970   2.015   7.558   3.879 -0.3892  0.3979  0.4891
   40MOL    O93 7971   1.911   7.513   3.820  0.3124  0.5254  0.6590
   40MOL    C94 7972   2.011   7.589   4.030  0.1964  0.7756 -0.2898
   40MOL    C95 7973   1.945   7.487   4.123  1.1497  0.3882  0.1842
   40MOL    N96 7974   2.016   7.353   4.132 -0.0032 -0.3144  0.3447
   40MOL    H97 7975   2.108   7.609   4.075 -0.9426  0.8994  2.2078
   40MOL    H98 7976   1.953   7.681   4.037 -0.7423  0.1732 -0.0146
   40MOL    H99 7977   1.941   7.530   4.223  0.9553  0.2556  0.2332
   40MOL   H100 7978   1.840   7.473   4.099  0.5594  1.9804  1.7321
   40MOL   H101 7979   2.015   7.292   4.052 -2.4547  1.0992 -0.7462
   40MOL   C102 7980   2.082   7.318   4.239 -0.1578  0.1334  0.4898
   40MOL   O103 7981   2.108   7.394   4.332  0.4241 -0.2626 -0.0769
   40MOL   C104 7982   2.141   7.174   4.234 -0.1856  0.6399 -0.3246
   40MOL   C105 7983   2.282   7.159   4.160  0.3457 -0.4071  0.9909
   40MOL   N106 7984   2.318   7.018   4.137 -0.4485 -0.3574  0.8133
   40MOL   H107 7985   2.071   7.103   4.192 -3.8228  2.8517  1.7065
   40MOL   H108 7986   2.164   7.145   4.337 -1.2780 -0.8920 -0.5073
   40MOL   H109 7987   2.284   7.215   4.067  0.2517  0.9504  1.7898
   40MOL   H110 7988   2.360   7.202   4.223  0.0140  0.6218  0.7206
   40MOL   H111 7989   2.324   6.980   4.044 -1.0322 -1.1930  1.1166
   40MOL   C112 7990   2.358   6.938   4.234 -0.0483 -0.3797 -0.6222
   40MOL   O113 7991   2.371   6.974   4.352 -0.8631  0.2177  0.0933
   40MOL   C114 7992   2.388   6.795   4.205 -0.1477 -0.3541 -0.2127
   40MOL   C115 7993   2.294   6.700   4.277 -0.6530  0.0099  0.5093
   40MOL   N116 7994   2.183   6.675   4.189  0.0241 -1.1666  0.7417
   40MOL   H117 7995   2.496   6.783   4.213  0.0509  0.0547 -2.0879
   40MOL   H118 7996   2.377   6.786   4.097 -1.6154  3.6098 -0.4874
   40MOL   H119 7997   2.358   6.615   4.300  0.4121  1.3513  2.6759
   40MOL   H120 7998   2.259   6.732   4.376 -0.7678 -2.4542  1.3023
   40MOL   H121 7999   2.210   6.663   4.092 -1.5443  0.5211  0.0736
   40MOL   C122 8000   2.056   6.675   4.229 -0.5443  1.0421 -0.8062
   40MOL   O123 8001   2.021   6.672   4.348  0.0801 -0.3401 -0.3432
   40MOL   C124 8002   1.947   6.643   4.129  0.4733  0.5267  0.1509
   40MOL   C125 8003   1.891   6.767   4.053 -0.9071 -0.5901  0.0634
   40MOL   N126 8004   1.806   6.859   4.129  0.4458 -0.2639  0.5175
   40MOL   H127 8005   1.866   6.594   4.184  1.5593 -1.3040  0.1631
   40MOL   H128 8006   1.970   6.572   4.050  1.9019 -0.0935  1.1081
   40MOL   H129 8007   1.969   6.830   4.009 -1.1221  0.4086  1.1010
   40MOL   H130 8008   1.843   6.731   3.962 -0.1264 -1.6519  0.0621
   40MOL   H131 8009   1.853   6.910   4.203 -2.5952 -0.8449  2.9545
   40MOL   C132 8010   1.677   6.857   4.134  0.0577  0.3628  0.1112
   40MOL   O133 8011   1.616   6.782   4.055 -0.3148  0.2761  0.0199
   40MOL   C134 8012   1.606   6.967   4.210  0.5569 -0.1398 -0.2764
   40MOL   C135 8013   1.554   6.921   4.357  0.3250 -0.1052 -0.0420
   40MOL   N136 8014   1.405   6.880   4.362  0.4545  0.3930  0.0024
   40MOL   H137 8015   1.527   7.013   4.150  0.0045 -0.0257  0.5323
   40MOL   H138 8016   1.683   7.043   4.214 -0.7574  1.2638 -1.0357
   40MOL   H139 8017   1.622   6.838   4.379  1.5758  1.1003  0.7177
   40MOL   H140 8018   1.580   7.003   4.423  0.3252 -0.4732  0.4158
   40MOL   H141 8019   1.342   6.919   4.294  1.2110 -0.4341 -1.1810
   40MOL   C142 8020   1.356   6.782   4.442 -0.1567  0.0811 -0.6326
   40MOL   O143 8021   1.424   6.720   4.525  0.4530 -0.1803 -0.0167
   40MOL   C144 8022   1.209   6.755   4.438 -0.3501  0.3121  0.2314
   40MOL   C145 8023   1.164   6.701   4.297 -0.2659 -0.1814 -0.6637
   40MOL   N146 8024   1.164   6.550   4.295  0.0326  0.1860  0.7140
   40MOL   H147 8025   1.155   6.846   4.464 -2.9102 -1.2073  0.4007
   40MOL   H148 8026   1.172   6.686   4.513 -2.5251  0.1287 -0.9509
   40MOL   H149 8027   1.067   6.740   4.267 -0.9554 -2.6966 -1.8141
   40MOL   H150 8028   1.226   6.715   4.208 -0.4014  0.8259 -0.6095
   40MOL   H151 8029   1.216   6.509   4.219 -2.3635  0.9521 -1.4423
   40MOL   C152 8030   1.079   6.472   4.366 -0.0355 -0.1465  0.1412
   40MOL   O153 8031   0.995   6.519   4.449  0.4798  0.0492  0.0056
   40MOL   C154 8032   1.070   6.332   4.312 -0.1702  0.0831  0.8292
   40MOL   C155 8033   1.004   6.236   4.413 -0.2707  0.0212 -0.4972
   40MOL   N156 8034   1.026   6.101   4.374 -0.4144 -0.3463  0.2374
   40MOL   H157 8035   1.171   6.298   4.290 -1.3126 -0.7746 -3.4680
   40MOL   H158 8036   1.027   6.332   4.212  0.7866 -1.1199  0.4112
   40MOL   H159 8037   1.044   6.245   4.514  2.1910  0.1295 -1.4394
   40MOL   H160 8038   0.897   6.258   4.408 -0.5450 -0.2335  3.2400
   40MOL   H161 8039   1.095   6.048   4.426  1.1617  2.3220  0.9638
   40MOL   C162 8040   0.973   6.027   4.274  0.9181 -0.3405  0.2407
   40MOL   O163 8041   0.886   6.078   4.199 -0.6308  1.0890  0.0149
   40MOL   C164 8042   1.024   5.887   4.251  0.3276  0.6748 -0.1528
   40MOL   C165 8043   1.006   5.837   4.104 -0.6278  0.4510  0.3481
   40MOL   N166 8044   1.004   5.691   4.101  0.1055  1.1361 -0.6189
   40MOL   H167 8045   0.967   5.821   4.316  0.4276 -0.9870 -1.7063
   40MOL   H168 8046   1.131   5.876   4.272  0.6330 -1.0016 -2.3420
   40MOL   H169 8047   0.914   5.881   4.065  1.0230  1.2900 -2.7552
   40MOL   H170 8048   1.088   5.881   4.047  0.8488 -0.4665  1.7160
   40MOL   H171 8049   1.018   5.637   4.185  1.8233  0.1173 -1.5383
   40MOL   C172 8050   0.993   5.610   3.999  0.5593 -0.8033 -0.2135
   40MOL   O173 8051   0.968   5.653   3.887 -0.2419  0.1331 -0.1179
   40MOL   C174 8052   1.015   5.464   4.029 -0.2927  0.5657 -0.4464
   40MOL   C175 8053   0.920   5.371   3.967 -0.1712  0.4800 -0.2704
   40MOL   N176 8054   0.797   5.362   4.044  0.6604  0.0562 -0.0309
   40MOL   H177 8055   1.012   5.451   4.137 -0.1415 -0.1882 -0.5310
   40MOL   H178 8056   1.112   5.438   3.987  0.2777 -0.4829  1.4821
   40MOL   H179 8057   0.909   5.407   3.864 -1.6663  0.2380 -0.2156
   40MOL   H180 8058   0.975   5.277   3.974  0.2953  0.8165  0.5913
   40MOL   H181 8059   0.753   5.451   4.062 -1.0930 -1.6355  4.9749
   40MOL   C182 8060   0.752   5.250   4.100 -0.1530 -0.7214  0.6299
   40MOL   O183 8061   0.807   5.141   4.083 -0.0551 -0.1363 -0.9846
   40MOL   C184 8062   0.643   5.269   4.200  0.1080  0.1872 -0.5309
   40MOL   C185 8063   0.662   5.206   4.339  0.3014  0.5220 -0.2222
   40MOL   N186 8064   0.532   5.203   4.409  0.0564 -0.2224  0.1938
   40MOL   H187 8065   0.557   5.234   4.143 -0.1023 -0.1232 -0.0248
   40MOL   H188 8066   0.616   5.374   4.208  0.1828  0.0889  1.1904
   40MOL   H189 8067   0.686   5.101   4.321  1.4052  0.6088  0.6790
   40MOL   H190 8068   0.732   5.259   4.404 -0.6071 -0.0690  1.2614
   40MOL   H191 8069   0.496   5.291   4.444  0.5361 -0.2526  0.7789
   40MOL   C192 8070   0.472   5.099   4.461  0.7194 -0.3372  0.0515
   40MOL   O193 8071   0.502   4.983   4.447 -0.0483  0.2591  0.2478
   40MOL   C194 8072   0.357   5.137   4.555  0.6143  0.6397  0.3690
   40MOL   C195 8073   0.400   5.181   4.699 -0.7011 -0.0439 -0.4712
   40MOL   N196 8074   0.476   5.303   4.689 -0.2777 -0.3211 -0.0083
   40MOL   H197 8075   0.298   5.218   4.512 -0.5018 -0.4825 -0.2458
   40MOL   H198 8076   0.290   5.052   4.565 -0.4380  1.4400  0.1513
   40MOL   H199 8077   0.313   5.193   4.764  0.6801 -2.5127  1.9387
   40MOL   H200 8078   0.469   5.108   4.742  0.6061  0.7353 -1.1897
   40MOL   H201 8079   0.470   5.356   4.775  2.7222 -0.2017  0.1954
   40MOL   H202 8080   0.571   5.284   4.658 -0.2367  0.3110 -0.2820
   41MOL     C1 8081   0.272   6.671   1.103  0.3190  0.4007  0.1187
   41MOL     O2 8082   0.357   6.751   1.146  0.0328  0.1718  0.3822
   41MOL     C3 8083   0.186   6.704   0.991 -0.6251  0.8040 -0.1015
   41MOL     C4 8084   0.117   6.841   1.008 -0.8148 -0.4302  0.3563
   41MOL     N5 8085   7.776   6.821   1.082 -0.0710  0.0074 -0.3445
   41MOL     H6 8086   0.112   6.627   0.969  0.4729 -0.1709 -0.4378
   41MOL     H7 8087   0.244   6.712   0.899 -1.1775 -0.7942 -0.6051
   41MOL     H8 8088   0.097   6.894   0.915 -1.3258  0.6125  1.0547
   41MOL     H9 8089   0.175   6.918   1.059  1.0120 -2.3497  1.2780
   41MOL    H10 8090   7.722   6.737   1.068 -0.2823 -0.1876  1.4462
   41MOL    H11 8091   0.261   6.575   1.154 -1.0550  0.0229 -0.8660
   41MOL    C12 8092   7.730   6.906   1.183 -0.3847  1.0668  0.5109
   41MOL    O13 8093   0.004   7.015   1.207  0.2354  0.0316  0.7088
   41MOL    C14 8094   7.614   6.856   1.267 -0.0552  0.9232 -0.0193
   41MOL    C15 8095   7.645   6.856   1.418  0.5689 -0.2990 -0.0750
   41MOL    N16 8096   7.765   6.774   1.453 -0.0163  0.2576  0.4500
   41MOL    H17 8097   7.595   6.753   1.238  2.9239  0.2314  0.3595
   41MOL    H18 8098   7.526   6.918   1.247 -1.2611 -0.8734 -0.4511
   41MOL    H19 8099   7.659   6.962   1.436 -0.2574 -0.4219  1.3028
   41MOL    H20 8100   7.558   6.827   1.476 -0.6063 -1.0300 -2.1333
   41MOL    H21 8101   0.001   6.690   1.398  2.2358  0.8646  0.1415
   41MOL    C22 8102   0.082   6.811   1.539  0.6308 -0.7364  0.1654
   41MOL    O23 8103   0.076   6.921   1.598  0.2016  0.3843  0.1285
   41MOL    C24 8104   0.206   6.717   1.552 -0.7410 -0.2504 -0.1067
   41MOL    C25 8105   0.340   6.791   1.554 -0.0441 -0.0692  0.0096
   41MOL    N26 8106   0.447   6.715   1.612  0.0431  0.4099  0.0208
   41MOL    H27 8107   0.201   6.641   1.474 -3.0310  0.0425 -0.2909
   41MOL    H28 8108   0.195   6.656   1.642  1.9579 -2.5174 -1.2368
   41MOL    H29 8109   0.371   6.818   1.453  0.1591 -0.2394  0.0252
   41MOL    H30 8110   0.322   6.891   1.592  0.7243  0.8855 -2.0629
   41MOL    H31 8111   0.462   6.620   1.582 -0.2219  0.1852  0.5819
   41MOL    C32 8112   0.518   6.752   1.715 -0.3243  1.0740  1.1018
   41MOL    O33 8113   0.520   6.866   1.754  0.2576 -0.4799  0.1433
   41MOL    C34 8114   0.615   6.648   1.775 -0.0402  0.3765 -0.6357
   41MOL    C35 8115   0.612   6.635   1.925  0.2773  0.5424  0.0214
   41MOL    N36 8116   0.658   6.502   1.974  0.4544 -0.0730 -0.1735
   41MOL    H37 8117   0.714   6.669   1.734 -0.2842  0.8072 -1.0110
   41MOL    H38 8118   0.594   6.556   1.720  0.9231 -0.6495  0.6920
   41MOL    H39 8119   0.668   6.719   1.966 -1.1786  0.5495  2.0629
   41MOL    H40 8120   0.513   6.657   1.962  0.9443  0.1856  2.0693
   41MOL    H41 8121   0.583   6.433   1.976 -0.7957  1.2669  0.1300
   41MOL    C42 8122   0.783   6.458   1.982 -0.6338  0.5381 -0.1504
   41MOL    O43 8123   0.881   6.528   1.956  0.0179  0.0197 -0.3864
   41MOL    C44 8124   0.804   6.311   2.017  0.4251 -0.2816  0.0438
   41MOL    C45 8125   0.758   6.212   1.901  0.3880  0.1629 -0.3573
   41MOL    N46 8126   0.676   6.099   1.958 -0.6551  0.2419 -0.1503
   41MOL    H47 8127   0.911   6.294   2.031  0.3479 -1.1998 -0.4656
   41MOL    H48 8128   0.763   6.291   2.116 -1.2358 -2.7194 -1.1023
   41MOL    H49 8129   0.700   6.273   1.832  0.8246  2.4339  1.2378
   41MOL    H50 8130   0.844   6.176   1.845 -0.3938 -0.5850 -1.0799
   41MOL    H51 8131   0.575   6.099   1.953 -0.6722 -0.2167  0.1757
   41MOL    C52 8132   0.734   6.002   2.029 -0.9609 -0.0684 -0.3549
   41MOL    O53 8133   0.858   5.985   2.034  1.1199 -0.4346 -0.3565
   41MOL    C54 8134   0.648   5.894   2.100 -0.3712  0.0929  0.4161
   41MOL    C55 8135   0.699   5.859   2.245 -0.4609  0.1296 -0.0593
   41MOL    N56 8136   0.674   5.958   2.346  0.2356 -0.7707  0.2745
   41MOL    H57 8137   0.541   5.912   2.097 -0.1288  1.4270 -0.4754
   41MOL    H58 8138   0.665   5.806   2.038 -0.3561  0.5127 -0.1820
   41MOL    H59 8139   0.796   5.810   2.231 -0.8304 -1.2534  2.0346
   41MOL    H60 8140   0.637   5.773   2.270  1.1655 -2.0906 -3.3017
   41MOL    H61 8141   0.625   6.037   2.308  2.1874 -0.6750 -2.1349
   41MOL    C62 8142   0.742   5.970   2.462 -0.5664 -0.1488  0.6998
   41MOL    O63 8143   0.816   5.881   2.503 -0.2538 -0.2592  0.3074
   41MOL    C64 8144   0.708   6.091   2.552  0.1047 -0.1057 -0.5611
   41MOL    C65 8145   0.615   6.049   2.673 -0.6862  0.2791 -0.5383
   41MOL    N66 8146   0.585   6.171   2.745 -0.0362  0.3841 -0.5625
   41MOL    H67 8147   0.795   6.142   2.591 -2.4260  3.1176  1.0654
   41MOL    H68 8148   0.661   6.163   2.486  0.6311  2.3275  1.6581
   41MOL    H69 8149   0.521   6.000   2.647 -0.0376 -2.3626  1.8659
   41MOL    H70 8150   0.673   5.989   2.743 -2.5769 -1.6445 -0.5609
   41MOL    H71 8151   0.664   6.195   2.803 -0.5328  1.9106 -0.4751
   41MOL    C72 8152   0.488   6.255   2.720 -0.7386  0.5878  0.1440
   41MOL    O73 8153   0.396   6.236   2.642  0.3463 -0.1686 -0.2760
   41MOL    C74 8154   0.488   6.383   2.806  0.3521  0.5081  0.4048
   41MOL    C75 8155   0.559   6.513   2.757 -0.2132 -0.6480  0.0870
   41MOL    N76 8156   0.693   6.486   2.690 -0.0265  0.9780 -0.1786
   41MOL    H77 8157   0.385   6.404   2.833  0.5340 -1.2391  2.6092
   41MOL    H78 8158   0.528   6.355   2.904 -0.0769  1.5949  0.8886
   41MOL    H79 8159   0.494   6.566   2.687  0.2298  0.6788  0.6569
   41MOL    H80 8160   0.573   6.586   2.837  1.0126 -1.9748  1.1192
   41MOL    H81 8161   0.761   6.456   2.757  0.1738 -1.2762 -1.3455
   41MOL    C82 8162   0.715   6.467   2.563 -0.0827 -0.3075  0.2622
   41MOL    O83 8163   0.621   6.470   2.479 -0.4848 -0.5271 -0.0151
   41MOL    C84 8164   0.854   6.431   2.519  0.7609  0.3532 -0.7629
   41MOL    C85 8165   0.861   6.380   2.370  0.0787  0.3719 -0.6313
   41MOL    N86 8166   0.989   6.363   2.306 -0.2387 -0.2584  0.4829
   41MOL    H87 8167   0.915   6.521   2.527 -2.8097  2.7894  0.3003
   41MOL    H88 8168   0.888   6.356   2.590 -0.5117 -0.1251 -0.6449
   41MOL    H89 8169   0.813   6.283   2.359 -0.2807  0.5486 -0.6531
   41MOL    H90 8170   0.809   6.450   2.304 -0.9965  0.5291  0.3557
   41MOL    H91 8171   1.016   6.439   2.245  1.8005 -1.3281  0.0088
   41MOL    C92 8172   1.069   6.258   2.338 -0.0996 -0.5641 -0.5374
   41MOL    O93 8173   1.035   6.166   2.404  0.2908  0.0043 -0.6689
   41MOL    C94 8174   1.201   6.255   2.253 -0.6161 -0.1789 -0.0175
   41MOL    C95 8175   1.264   6.117   2.227 -0.1424 -0.9684 -0.1865
   41MOL    N96 8176   1.335   6.057   2.338  0.0186 -0.2351 -0.1517
   41MOL    H97 8177   1.186   6.319   2.166  0.7258 -0.1477 -0.2387
   41MOL    H98 8178   1.264   6.317   2.317 -0.9800 -0.3689  0.5363
   41MOL    H99 8179   1.185   6.053   2.188  0.4454 -1.0149 -1.3540
   41MOL   H100 8180   1.339   6.136   2.149  0.7191 -2.3611  0.2888
   41MOL   H101 8181   1.281   5.996   2.399 -0.6877  0.8456  0.3272
   41MOL   C102 8182   1.456   6.094   2.382  0.1913  0.6645 -0.2455
   41MOL   O103 8183   1.541   6.148   2.318 -0.0805  0.7815 -0.5097
   41MOL   C104 8184   1.482   6.074   2.529  0.3465 -0.0692  0.1489
   41MOL   C105 8185   1.438   6.186   2.623 -0.0584  0.2356  0.3063
   41MOL   N106 8186   1.298   6.194   2.652  0.4180 -0.2793  0.0236
   41MOL   H107 8187   1.590   6.059   2.541  0.0720 -0.3940  2.4227
   41MOL   H108 8188   1.442   5.982   2.571 -0.3998  0.0110 -0.3782
   41MOL   H109 8189   1.493   6.177   2.717 -1.4044  0.2326  1.1140
   41MOL   H110 8190   1.463   6.276   2.568  1.2160 -1.0050 -1.2102
   41MOL   H111 8191   1.240   6.247   2.588  0.4748  1.3611  1.3108
   41MOL   C112 8192   1.234   6.105   2.730  0.0016  0.6248  0.0988
   41MOL   O113 8193   1.293   6.022   2.796  0.1353  0.0657 -0.1299
   41MOL   C114 8194   1.076   6.114   2.739  0.2996 -0.2977  0.0228
   41MOL   C115 8195   1.008   6.086   2.874  0.3936  0.3012 -0.6723
   41MOL   N116 8196   0.996   6.207   2.953  0.0585  0.3542  0.5820
   41MOL   H117 8197   1.046   6.044   2.661  0.8461 -0.5424  0.0288
   41MOL   H118 8198   1.046   6.214   2.709  1.6175  0.7599  2.1635
   41MOL   H119 8199   0.912   6.045   2.841 -0.8485  2.8768 -0.3616
   41MOL   H120 8200   1.062   6.007   2.927 -0.9506 -0.3402 -0.2132
   41MOL   H121 8201   1.076   6.234   3.008  0.3365  2.0029 -0.6128
   41MOL   C122 8202   0.885   6.288   2.951 -0.2148  0.8068 -0.8181
   41MOL   O123 8203   0.796   6.274   2.871  0.2029 -0.0537  0.3501
   41MOL   C124 8204   0.893   6.391   3.072  0.5548 -0.6237  0.1714
   41MOL   C125 8205   0.810   6.523   3.050 -0.5190 -0.6429 -0.1935
   41MOL   N126 8206   0.844   6.623   3.154  0.1241  0.0657  0.2970
   41MOL   H127 8207   0.994   6.422   3.098 -0.4437  1.0891  2.0939
   41MOL   H128 8208   0.850   6.336   3.156 -1.1551  1.0480  0.4033
   41MOL   H129 8209   0.826   6.568   2.952  0.1844 -1.0420 -0.2652
   41MOL   H130 8210   0.706   6.491   3.057 -0.4829 -0.6570  0.3145
   41MOL   H131 8211   0.936   6.665   3.143 -0.1327  0.2162 -1.4677
   41MOL   C132 8212   0.768   6.670   3.250 -0.4588  0.5242  0.1032
   41MOL   O133 8213   0.666   6.619   3.287  0.3056 -0.0193  0.5075
   41MOL   C134 8214   0.830   6.782   3.332  0.0871 -0.3578 -0.4980
   41MOL   C135 8215   0.758   6.794   3.468 -0.2377  0.4524 -0.3645
   41MOL   N136 8216   0.818   6.888   3.562 -0.3654  0.1300 -0.3644
   41MOL   H137 8217   0.816   6.881   3.291 -0.0061  1.1759  3.0240
   41MOL   H138 8218   0.934   6.763   3.359  0.2972 -0.3061 -1.2645
   41MOL   H139 8219   0.662   6.843   3.452 -0.7768  0.0667  1.5655
   41MOL   H140 8220   0.745   6.698   3.517  0.7807  0.0251 -0.9291
   41MOL   H141 8221   0.893   6.947   3.531  0.2138 -1.6539 -2.4642
   41MOL   C142 8222   0.771   6.922   3.684  0.2455 -0.1853  0.7039
   41MOL   O143 8223   0.676   6.866   3.737 -0.7290 -0.1460 -0.1754
   41MOL   C144 8224   0.844   7.036   3.758 -0.4589 -0.2438 -0.5966
   41MOL   C145 8225   0.751   7.164   3.784  0.5907  0.6890  0.6949
   41MOL   N146 8226   0.692   7.225   3.667  0.1361  0.0105 -0.5797
   41MOL   H147 8227   0.934   7.057   3.699  0.4274  2.1677  1.4677
   41MOL   H148 8228   0.883   7.007   3.856 -0.5601  2.1078  0.1782
   41MOL   H149 8229   0.667   7.140   3.849 -0.6088  2.3491 -0.2075
   41MOL   H150 8230   0.791   7.250   3.837 -1.9077  2.1071  0.3502
   41MOL   H151 8231   0.738   7.213   3.578  0.4198 -1.8977 -0.1828
   41MOL   C152 8232   0.571   7.282   3.669 -0.1367  0.4404 -0.3762
   41MOL   O153 8233   0.498   7.285   3.764  0.1861  0.1198  0.3009
   41MOL   C154 8234   0.510   7.322   3.538  0.8075  0.1208  0.0013
   41MOL   C155 8235   0.427   7.451   3.551  0.4852 -0.1391  0.0539
   41MOL   N156 8236   0.424   7.543   3.438  0.0773  0.5514  0.2282
   41MOL   H157 8237   0.446   7.239   3.507 -0.5468  1.0348  0.2746
   41MOL   H158 8238   0.593   7.324   3.467 -0.7600  0.6677 -1.8691
   41MOL   H159 8239   0.326   7.427   3.582  0.5826 -0.6695 -0.0337
   41MOL   H160 8240   0.469   7.516   3.628  0.7331  0.1414 -0.3109
   41MOL   H161 8241   0.349   7.533   3.370 -0.7550  0.8916  1.0930
   41MOL   C162 8242   0.526   7.622   3.405  0.0590 -0.5402  0.0671
   41MOL   O163 8243   0.610   7.662   3.487  0.1110 -0.2741  0.3682
   41MOL   C164 8244   0.527   7.674   3.260  0.0786  0.0103  0.0896
   41MOL   C165 8245   0.654   7.641   3.186  0.0343  0.2564 -0.6601
   41MOL   N166 8246   0.672   7.498   3.154  0.2487  0.3274  0.3993
   41MOL   H167 8247   0.511   0.001   3.251  1.1484 -0.0037 -2.2068
   41MOL   H168 8248   0.437   7.622   3.226  0.0512 -1.1465  1.8474
   41MOL   H169 8249   0.656   7.697   3.092 -0.5914  0.0891 -0.7761
   41MOL   H170 8250   0.746   7.680   3.228 -0.5221  1.3251 -0.4244
   41MOL   H171 8251   0.759   7.464   3.192  1.1589  0.4065 -1.5218
   41MOL   C172 8252   0.603   7.419   3.072 -0.1530 -0.1055  0.3690
   41MOL   O173 8253   0.503   7.472   3.018 -0.5932  0.8062  0.1852
   41MOL   C174 8254   0.641   7.274   3.047  0.6255  0.4132  0.5199
   41MOL   C175 8255   0.713   7.265   2.909  0.0297 -0.2501 -0.1688
   41MOL   N176 8256   0.712   7.133   2.851  0.2104  0.1667  0.2919
   41MOL   H177 8257   0.552   7.212   3.044  0.4669  0.7287 -2.7770
   41MOL   H178 8258   0.704   7.234   3.127  0.2633 -1.8637 -0.3134
   41MOL   H179 8259   0.659   7.331   2.841 -1.9923 -1.1554  0.5391
   41MOL   H180 8260   0.808   7.318   2.900 -0.3221  0.3534 -0.3785
   41MOL   H181 8261   0.639   7.114   2.785  0.4638 -0.2142  0.1163
   41MOL   C182 8262   0.808   7.046   2.864 -0.6443  0.9132  0.2404
   41MOL   O183 8263   0.913   7.063   2.922  0.2024 -0.0779 -0.1339
   41MOL   C184 8264   0.772   6.908   2.802 -0.5355  0.2060 -0.3202
   41MOL   C185 8265   0.895   6.847   2.732 -0.2344 -0.0407  0.2724
   41MOL   N186 8266   0.933   6.909   2.608 -0.0117 -0.5332  0.4958
   41MOL   H187 8267   0.694   6.925   2.728 -1.3117 -1.1388  0.1749
   41MOL   H188 8268   0.744   6.846   2.887  0.1000  0.2648 -0.0670
   41MOL   H189 8269   0.988   6.859   2.787 -1.8440  0.7810  2.9204
   41MOL   H190 8270   0.879   6.741   2.717  2.3545 -0.5143  0.5845
   41MOL   H191 8271   1.005   6.980   2.617  0.4480 -0.7248 -1.2867
   41MOL   C192 8272   0.934   6.849   2.489  0.3879 -0.6386  0.0698
   41MOL   O193 8273   0.855   6.758   2.457  0.3179  0.7675 -0.0629
   41MOL   C194 8274   1.023   6.905   2.379  0.3182 -0.0012 -0.1399
   41MOL   C195 8275   1.049   6.816   2.249 -0.4032  0.1513 -0.2232
   41MOL   N196 8276   0.939   6.808   2.162  0.4121  0.2376 -0.8937
   41MOL   H197 8277   0.975   7.001   2.357 -0.6942 -0.1982  1.1538
   41MOL   H198 8278   1.118   6.930   2.425 -0.6002  0.7969  1.3679
   41MOL   H199 8279   1.133   6.858   2.193  0.7164  0.6748  1.7868
   41MOL   H200 8280   1.069   6.710   2.266  1.3062  0.7228  1.4261
   41MOL   H201 8281   0.858   6.767   2.205  0.4756  1.7346  0.6974
   41MOL   H202 8282   0.956   6.744   2.085  2.7529 -1.0578  0.6384
   42MOL     C1 8283   0.314   7.386   2.166  0.4125  0.2234 -0.0708
   42MOL     O2 8284   0.256   7.416   2.060  0.8145  0.7091 -0.0223
   42MOL     C3 8285   0.436   7.457   2.215 -0.4312 -0.8861 -0.0032
   42MOL     C4 8286   0.406   7.567   2.309 -0.6977 -0.3731  0.3230
   42MOL     N5 8287   0.339   7.677   2.239  0.6327 -0.5439 -0.2333
   42MOL     H6 8288   0.503   7.493   2.137 -0.7867 -2.4698 -1.0690
   42MOL     H7 8289   0.491   7.376   2.263 -0.7050 -0.0006  1.8457
   42MOL     H8 8290   0.496   7.605   2.356 -0.4379 -0.8093  0.1813
   42MOL     H9 8291   0.337   7.530   2.386 -2.6667 -0.2849 -1.3341
   42MOL    H10 8292   0.241   7.688   2.261 -0.0559  0.0992 -3.2823
   42MOL    H11 8293   0.286   7.296   2.222 -0.7434  0.1876 -0.6900
   42MOL    C12 8294   0.392   7.743   2.133  0.2666 -0.1663  0.0584
   42MOL    O13 8295   0.505   7.753   2.107 -0.1990  0.1540 -0.1641
   42MOL    C14 8296   0.285   0.021   2.040  0.1759  1.0080  0.2857
   42MOL    C15 8297   0.301   0.168   1.998 -0.4470  0.2121 -0.2076
   42MOL    N16 8298   0.208   0.204   1.890  0.0609  0.4663  0.2459
   42MOL    H17 8299   0.187   0.014   2.087 -0.7492 -1.0924 -1.8504
   42MOL    H18 8300   0.286   7.743   1.948  1.0657  0.2070  0.7910
   42MOL    H19 8301   0.276   0.230   2.084  0.5597  0.0504  0.2005
   42MOL    H20 8302   0.403   0.183   1.965 -0.5541  0.8950 -0.2347
   42MOL    H21 8303   0.122   0.152   1.882  0.3875 -0.0256 -0.0985
   42MOL    C22 8304   0.231   0.300   1.802 -0.3898  0.6890  0.5761
   42MOL    O23 8305   0.337   0.357   1.795 -0.3262 -0.0675 -0.0073
   42MOL    C24 8306   0.118   0.344   1.703 -0.1050  0.1657 -0.6044
   42MOL    C25 8307   0.098   0.255   1.580 -0.6012 -0.5688  0.4394
   42MOL    N26 8308   0.064   0.109   1.599  0.2758 -0.4900  0.4686
   42MOL    H27 8309   0.127   0.448   1.671  0.8384 -0.2536 -1.7538
   42MOL    H28 8310   0.024   0.335   1.757 -0.2911  2.7076 -0.4740
   42MOL    H29 8311   0.014   0.293   1.521  0.4677 -1.3823 -1.6780
   42MOL    H30 8312   0.186   0.267   1.517  0.1336  1.6581  1.8233
   42MOL    H31 8313   7.754   0.093   1.642 -0.3444 -1.2037 -1.0448
   42MOL    C32 8314   0.129   0.010   1.545 -0.5759  0.2173 -0.3117
   42MOL    O33 8315   0.236   0.029   1.488  0.2924  0.1735 -0.4777
   42MOL    C34 8316   0.071   7.641   1.552 -0.6986  0.1875  0.0644
   42MOL    C35 8317   0.041   7.593   1.691 -0.0751  0.3697 -0.5628
   42MOL    N36 8318   0.047   7.445   1.700  0.5212 -0.3372 -0.1816
   42MOL    H37 8319   0.157   7.577   1.528 -0.3977  0.1029  1.3140
   42MOL    H38 8320   7.769   7.619   1.484 -0.2318 -2.4429  0.3037
   42MOL    H39 8321   0.109   7.634   1.765  0.1666 -0.2354 -0.4495
   42MOL    H40 8322   7.724   7.629   1.726 -0.3363 -0.0511 -0.8379
   42MOL    H41 8323   0.116   7.395   1.646 -0.5799 -1.3239 -0.6924
   42MOL    C42 8324   7.722   7.374   1.743 -0.0931  0.4417  0.0877
   42MOL    O43 8325   7.612   7.421   1.767 -0.1693  0.3555 -0.1754
   42MOL    C44 8326   7.751   7.221   1.761  0.8185 -0.0620  0.3664
   42MOL    C45 8327   0.048   7.193   1.891 -1.1671  0.5613 -0.8170
   42MOL    N46 8328   0.080   7.044   1.899  0.0422 -0.2041  0.5963
   42MOL    H47 8329   7.655   7.171   1.759 -0.9865  3.1945  1.6946
   42MOL    H48 8330   0.023   7.191   1.670 -1.6380 -0.3685 -0.9882
   42MOL    H49 8331   0.139   7.246   1.915 -2.5832  1.7851  2.0798
   42MOL    H50 8332   7.760   7.217   1.972 -0.5222 -0.4980  0.0627
   42MOL    H51 8333   0.026   6.988   1.834  2.8446 -0.7604 -1.3167
   42MOL    C52 8334   0.172   6.985   1.974 -0.9129 -0.2574  0.3975
   42MOL    O53 8335   0.226   7.049   2.062 -0.1259 -0.0188 -0.1165
   42MOL    C54 8336   0.192   6.836   1.951 -0.4573 -0.1290 -0.7023
   42MOL    C55 8337   0.221   6.740   2.064  0.7414  0.3369 -1.1953
   42MOL    N56 8338   0.105   6.707   2.149 -0.6637  0.3636  0.2193
   42MOL    H57 8339   0.113   6.796   1.887 -0.1633 -1.5600 -0.2021
   42MOL    H58 8340   0.278   6.839   1.884  1.5512  1.6126  1.8560
   42MOL    H59 8341   0.306   6.776   2.122 -0.4745 -0.5262  1.1754
   42MOL    H60 8342   0.254   6.648   2.016 -0.9386 -0.6141 -0.5488
   42MOL    H61 8343   0.097   6.761   2.234 -0.4741 -0.6606  0.9077
   42MOL    C62 8344   0.015   6.615   2.121  0.3801 -0.2910 -0.9386
   42MOL    O63 8345   0.022   6.535   2.033 -0.7937 -0.1767 -0.2799
   42MOL    C64 8346   7.667   6.619   2.211 -0.6148  0.0075  0.1652
   42MOL    C65 8347   7.581   6.484   2.211 -0.6396 -0.1793 -0.6546
   42MOL    N66 8348   7.478   6.478   2.108 -0.0550 -0.3481 -0.2690
   42MOL    H67 8349   7.708   6.616   2.311  2.2197 -1.1635 -0.9966
   42MOL    H68 8350   7.615   6.714   2.199  0.6045  0.6818  0.1547
   42MOL    H69 8351   7.639   6.393   2.196 -0.8378 -0.4862  0.3742
   42MOL    H70 8352   7.532   6.464   2.307  0.2279  1.9240  0.2711
   42MOL    H71 8353   7.508   6.458   2.014  0.0420 -0.3663 -0.2346
   42MOL    C72 8354   7.347   6.499   2.129 -0.4851 -0.4920 -0.3651
   42MOL    O73 8355   7.272   6.468   2.037 -0.0744 -1.0865  0.1922
   42MOL    C74 8356   7.295   6.554   2.268  0.2054  0.6347 -0.6692
   42MOL    C75 8357   7.152   6.610   2.262 -0.0369  0.6324  0.2047
   42MOL    N76 8358   7.160   6.757   2.225  0.0548  0.1815  0.2013
   42MOL    H77 8359   7.297   6.475   2.343 -0.2164 -0.0309 -1.3495
   42MOL    H78 8360   7.366   6.628   2.304 -1.1615  0.3706  2.7611
   42MOL    H79 8361   7.097   6.562   2.181 -3.2098  0.9264  2.0963
   42MOL    H80 8362   7.097   6.595   2.355  0.4664 -2.2541  0.0845
   42MOL    H81 8363   7.194   6.781   2.133 -1.6466  0.7104 -0.2990
   42MOL    C82 8364   7.121   6.862   2.306  0.2192 -0.1521 -0.2185
   42MOL    O83 8365   7.078   6.859   2.420  0.3216  0.3281  0.1041
   42MOL    C84 8366   7.117   6.995   2.232  0.5326 -0.1658 -0.7487
   42MOL    C85 8367   7.038   7.111   2.296  0.3653 -0.1609  0.6137
   42MOL    N86 8368   6.898   7.068   2.291 -0.2443 -0.6284  0.6334
   42MOL    H87 8369   7.220   7.029   2.233  1.8413 -3.8848  0.0017
   42MOL    H88 8370   7.088   6.978   2.128  0.8516  0.9066 -1.0156
   42MOL    H89 8371   7.078   7.127   2.397  0.9903 -0.6042  0.4390
   42MOL    H90 8372   7.057   7.204   2.242  0.3445 -0.5575 -0.0758
   42MOL    H91 8373   6.875   6.984   2.343 -1.6375 -0.4388  0.3518
   42MOL    C92 8374   6.799   7.122   2.222 -0.1283  0.1167 -0.2014
   42MOL    O93 8375   6.804   7.223   2.157  0.0395 -0.3709 -0.2500
   42MOL    C94 8376   6.666   7.048   2.226 -0.3884  0.5867 -0.0341
   42MOL    C95 8377   6.659   6.955   2.100 -0.0075 -1.0020  0.3093
   42MOL    N96 8378   6.746   6.834   2.109 -0.1338 -0.1645  0.0175
   42MOL    H97 8379   6.658   6.987   2.316  1.0642  0.5444  0.0819
   42MOL    H98 8380   6.575   7.108   2.228  0.2538  1.6897 -2.3212
   42MOL    H99 8381   6.556   6.927   2.079 -0.1808  0.3606 -0.7632
   42MOL   H100 8382   6.686   7.011   2.010 -1.1227  0.0210  0.5920
   42MOL   H101 8383   6.833   6.840   2.059 -1.1988 -0.9909 -1.9701
   42MOL   C102 8384   6.710   6.728   2.184  0.0031  0.4423 -0.0230
   42MOL   O103 8385   6.598   6.715   2.238  0.6191  0.0939 -0.6569
   42MOL   C104 8386   6.797   6.609   2.195  0.0924  0.4620  0.1296
   42MOL   C105 8387   6.731   6.475   2.184 -0.0256 -0.1958 -0.0960
   42MOL   N106 8388   6.674   6.429   2.309 -0.3956  0.1808 -0.2221
   42MOL   H107 8389   6.869   6.628   2.275  0.4617 -0.4180  0.0161
   42MOL   H108 8390   6.860   6.624   2.108 -1.3978  0.1979 -1.0200
   42MOL   H109 8391   6.663   6.486   2.100  2.2093 -0.2449 -1.9486
   42MOL   H110 8392   6.808   6.403   2.157  0.5672  0.8564 -1.2542
   42MOL   H111 8393   6.706   6.470   2.396 -1.0337 -1.3429  0.7435
   42MOL   C112 8394   6.589   6.328   2.314  0.1020  0.6616  0.4395
   42MOL   O113 8395   6.527   6.288   2.214 -0.0287 -0.2729 -0.0136
   42MOL   C114 8396   6.551   6.276   2.458  0.2113 -0.4329  0.5659
   42MOL   C115 8397   6.427   6.348   2.517 -0.3932  0.1162 -0.2657
   42MOL   N116 8398   6.482   6.472   2.562 -0.1441  0.4075  0.3247
   42MOL   H117 8399   6.637   6.285   2.524 -0.2425  0.8640  0.9877
   42MOL   H118 8400   6.534   6.171   2.433  0.9708 -0.5661  0.6082
   42MOL   H119 8401   6.342   6.356   2.448 -1.8012 -2.8665  1.0403
   42MOL   H120 8402   6.381   6.296   2.602  0.1038 -1.0598 -0.7109
   42MOL   H121 8403   6.580   6.495   2.570  0.1143 -0.4319 -0.4490
   42MOL   C122 8404   6.406   6.580   2.606  0.4214 -1.0549 -0.2029
   42MOL   O123 8405   6.279   6.585   2.594  0.3246 -0.1819  0.2351
   42MOL   C124 8406   6.490   6.685   2.678 -0.4084 -0.4857 -0.3545
   42MOL   C125 8407   6.583   6.770   2.584  0.4054  0.2352  0.7259
   42MOL   N126 8408   6.726   6.772   2.612 -0.1343  1.3100  0.1137
   42MOL   H127 8409   6.550   6.628   2.748 -1.3684 -2.3078 -0.9993
   42MOL   H128 8410   6.428   6.755   2.735  0.7421  1.0602 -0.9624
   42MOL   H129 8411   6.551   6.741   2.484  0.8360 -2.4985  1.3185
   42MOL   H130 8412   6.550   6.873   2.586  0.1588  0.2060 -1.0840
   42MOL   H131 8413   6.767   6.847   2.666  0.6689  1.4820 -0.7269
   42MOL   C132 8414   6.804   6.663   2.618  0.1339 -0.3900 -0.5403
   42MOL   O133 8415   6.770   6.550   2.576 -0.3600  0.0733 -0.3931
   42MOL   C134 8416   6.952   6.685   2.661 -0.4745  0.1507  0.0138
   42MOL   C135 8417   6.975   6.612   2.793  0.8749 -0.0117 -0.1372
   42MOL   N136 8418   7.007   6.468   2.783  0.5934 -0.2894 -0.0710
   42MOL   H137 8419   6.964   6.793   2.667 -0.8884  0.1337  1.3957
   42MOL   H138 8420   7.021   6.659   2.581 -0.5854  1.3440 -0.4809
   42MOL   H139 8421   7.050   6.664   2.853 -0.4273  0.6460  0.9452
   42MOL   H140 8422   6.883   6.619   2.851  1.2132  1.5092  0.2402
   42MOL   H141 8423   6.943   6.398   2.817  0.4033  0.0505  0.2756
   42MOL   C142 8424   7.114   6.415   2.732 -0.3749 -0.8457 -0.0687
   42MOL   O143 8425   7.212   6.477   2.705 -0.1938 -0.1484  0.6676
   42MOL   C144 8426   7.111   6.265   2.712 -0.3753  0.1283 -0.1341
   42MOL   C145 8427   7.251   6.202   2.698 -0.3866 -0.4621  0.6289
   42MOL   N146 8428   7.335   6.208   2.821  0.1052  0.1444 -0.1702
   42MOL   H147 8429   7.059   6.238   2.620  1.8969  0.0834 -1.4410
   42MOL   H148 8430   7.055   6.224   2.796  0.0953  1.1285  0.6792
   42MOL   H149 8431   7.245   6.097   2.667 -0.4758 -0.3571  0.2919
   42MOL   H150 8432   7.288   6.259   2.613 -0.7051 -0.1910  0.6695
   42MOL   H151 8433   7.392   6.289   2.843 -0.9258  0.6035  0.8740
   42MOL   C152 8434   7.360   6.100   2.892  0.2196 -0.0759 -0.7712
   42MOL   O153 8435   7.297   5.991   2.880 -0.0065 -0.3335  0.1546
   42MOL   C154 8436   7.481   6.118   2.987 -0.2342 -0.3891 -0.1734
   42MOL   C155 8437   7.573   5.994   2.981 -0.4812 -0.6473 -0.9067
   42MOL   N156 8438   7.671   6.012   3.088  0.0387  0.3584 -0.0667
   42MOL   H157 8439   7.429   6.123   3.083 -2.2210  0.7042 -1.2725
   42MOL   H158 8440   7.529   6.213   2.967 -1.7601 -0.2549 -3.5479
   42MOL   H159 8441   7.514   5.902   2.982 -3.5411  1.2427  0.9152
   42MOL   H160 8442   7.628   5.994   2.887  1.9776  1.1228  0.4950
   42MOL   H161 8443   7.741   6.083   3.073  0.9193 -0.2997  0.8300
   42MOL   C162 8444   7.702   5.927   3.187 -0.3085  0.3723 -0.1143
   42MOL   O163 8445   7.640   5.820   3.197  0.3030 -0.3203 -0.2455
   42MOL   C164 8446   0.038   5.972   3.275 -0.4655  0.3827  0.0154
   42MOL   C165 8447   0.148   5.862   3.313 -0.1043  0.3540  0.3965
   42MOL   N166 8448   0.162   5.821   3.452 -0.3359  0.5437  1.2476
   42MOL   H167 8449   7.757   5.986   3.365 -1.3428 -1.1271 -0.3261
   42MOL   H168 8450   0.092   6.063   3.249  0.4429  0.1743  1.1215
   42MOL   H169 8451   0.119   5.769   3.264 -0.3542  1.4253 -1.5194
   42MOL   H170 8452   0.248   5.880   3.273  0.5023  1.3262  2.2927
   42MOL   H171 8453   0.111   5.736   3.471 -2.1817  1.0931 -0.9620
   42MOL   C172 8454   0.224   5.888   3.549 -0.0952  0.3300  0.2175
   42MOL   O173 8455   0.273   6.002   3.533 -0.8309  0.1804  0.0589
   42MOL   C174 8456   0.218   5.826   3.691  0.1006 -0.0141  0.4449
   42MOL   C175 8457   0.252   5.906   3.818 -0.4463 -0.3454  0.1523
   42MOL   N176 8458   0.378   5.979   3.805  0.1294 -0.1904 -0.0583
   42MOL   H177 8459   0.271   5.731   3.684  0.9617  0.5155 -0.2669
   42MOL   H178 8460   0.117   5.788   3.705 -0.3816 -0.3274 -3.3599
   42MOL   H179 8461   0.172   5.976   3.843  0.3097  1.7251 -2.9220
   42MOL   H180 8462   0.251   5.833   3.899 -2.0485 -0.7876 -0.2406
   42MOL   H181 8463   0.407   5.994   3.710 -4.5697  1.1029 -1.4445
   42MOL   C182 8464   0.458   6.019   3.905 -0.2309  0.6196  0.5519
   42MOL   O183 8465   0.436   5.993   4.022 -0.3575 -0.5086  0.3459
   42MOL   C184 8466   0.582   6.089   3.859 -0.1764  0.0893 -0.5555
   42MOL   C185 8467   0.590   6.234   3.898 -0.7664 -0.5644 -0.2958
   42MOL   N186 8468   0.621   6.244   4.044  0.0500 -0.3515  0.1379
   42MOL   H187 8469   0.602   6.072   3.753  3.2030  1.2435 -0.1816
   42MOL   H188 8470   0.669   6.033   3.893  0.0034  0.3425 -0.5899
   42MOL   H189 8471   0.669   6.282   3.840  1.8550 -2.6104  1.4310
   42MOL   H190 8472   0.495   6.279   3.871  1.0128  3.5353 -0.1977
   42MOL   H191 8473   0.689   6.178   4.078 -0.5212 -0.1471  1.7400
   42MOL   C192 8474   0.601   6.354   4.115  0.0873 -0.2184  0.9529
   42MOL   O193 8475   0.543   6.456   4.069 -0.0497  0.0740 -0.1257
   42MOL   C194 8476   0.670   6.359   4.252  0.4050 -0.1004  0.1878
   42MOL   C195 8477   0.625   6.464   4.356  0.3760 -0.1242  0.0682
   42MOL   N196 8478   0.706   6.437   4.470  0.3823  1.0135 -0.1969
   42MOL   H197 8479   0.657   6.261   4.298 -0.7579  0.1668  0.4329
   42MOL   H198 8480   0.777   6.379   4.245 -0.0102  2.9898  1.6550
   42MOL   H199 8481   0.657   6.561   4.317  1.1792  0.5391  2.2806
   42MOL   H200 8482   0.518   6.476   4.375  0.3383  1.1729 -0.9024
   42MOL   H201 8483   0.797   6.479   4.460  1.6036 -1.1350  1.4829
   42MOL   H202 8484   0.669   6.478   4.555 -0.6506 -0.3611  0.0436
   43MOL     C1 8485   4.317   3.000   5.208 -0.3933  1.0036  0.4781
   43MOL     O2 8486   4.279   2.969   5.098 -0.1775  0.3008 -0.3326
   43MOL     C3 8487   4.328   2.897   5.319 -0.0155  0.1677  0.0818
   43MOL     C4 8488   4.439   2.920   5.408  0.5859  0.0016 -0.2011
   43MOL     N5 8489   4.566   2.904   5.342 -0.8184 -0.7657  0.0446
   43MOL     H6 8490   4.330   2.792   5.287 -1.1516 -0.3536  1.6401
   43MOL     H7 8491   4.239   2.917   5.380  1.3537  0.8732  1.8984
   43MOL     H8 8492   4.417   2.848   5.487 -1.9551 -0.4404 -1.2612
   43MOL     H9 8493   4.441   3.022   5.447 -2.1544 -0.1565  0.4797
   43MOL    H10 8494   4.608   2.983   5.296  2.5202 -1.0172  2.4896
   43MOL    H11 8495   4.354   3.096   5.243  0.1569  0.3692  1.6613
   43MOL    C12 8496   4.626   2.787   5.326 -1.1072 -0.0933  0.2481
   43MOL    O13 8497   4.584   2.684   5.374 -0.0366 -0.0156  0.4264
   43MOL    C14 8498   4.751   2.774   5.242  0.1205 -0.1235 -0.1483
   43MOL    C15 8499   4.882   2.817   5.321 -0.0947 -0.2216  0.1075
   43MOL    N16 8500   4.928   2.717   5.417  0.5680 -0.0979  0.4087
   43MOL    H17 8501   4.742   2.843   5.158 -1.9025  2.1594  1.8667
   43MOL    H18 8502   4.760   2.677   5.193  0.2690 -0.8495  1.3015
   43MOL    H19 8503   4.957   2.849   5.248 -0.9765 -0.6826 -1.0100
   43MOL    H20 8504   4.867   2.899   5.392  0.5162 -0.2867  0.3161
   43MOL    H21 8505   4.954   2.737   5.513  1.6145  1.0135 -0.0890
   43MOL    C22 8506   4.935   2.588   5.395  0.4555  0.1957 -0.3392
   43MOL    O23 8507   4.922   2.543   5.285  0.0370 -0.5744 -0.1949
   43MOL    C24 8508   4.974   2.500   5.515 -0.0958 -0.5249 -0.0869
   43MOL    C25 8509   4.995   2.351   5.493 -0.2612 -0.3205  0.0490
   43MOL    N26 8510   4.868   2.280   5.511  0.5186 -0.1526 -0.1266
   43MOL    H27 8511   4.909   2.520   5.601 -1.7614  2.6905 -2.0339
   43MOL    H28 8512   5.071   2.534   5.550 -1.0790  1.5416  0.7160
   43MOL    H29 8513   5.038   2.331   5.396 -0.5436 -2.0271  0.2657
   43MOL    H30 8514   5.070   2.308   5.560  0.2972  1.0456  0.3131
   43MOL    H31 8515   4.798   2.317   5.574  1.0540  1.3968 -0.4074
   43MOL    C32 8516   4.843   2.163   5.457  0.0406  0.4922 -0.7445
   43MOL    O33 8517   4.918   2.116   5.375 -0.1398 -0.2201  0.1970
   43MOL    C34 8518   4.715   2.083   5.510 -0.2569 -0.3638 -0.1204
   43MOL    C35 8519   4.751   1.931   5.522 -0.4659  0.5103 -0.3590
   43MOL    N36 8520   4.834   1.892   5.636 -0.1558  0.6071 -0.4357
   43MOL    H37 8521   4.642   2.097   5.429 -0.2317 -1.6426 -0.3670
   43MOL    H38 8522   4.683   2.130   5.603  1.2076 -0.2415  0.3298
   43MOL    H39 8523   4.654   1.885   5.540  0.4261  0.1375  3.9582
   43MOL    H40 8524   4.791   1.902   5.425 -0.5408 -1.0398  0.0681
   43MOL    H41 8525   4.921   1.847   5.613 -0.8076  0.1795 -2.1119
   43MOL    C42 8526   4.819   1.915   5.763  1.0089  0.1165  1.5800
   43MOL    O43 8527   4.711   1.961   5.804  0.0072 -0.2172 -0.0975
   43MOL    C44 8528   4.943   1.888   5.845 -0.2581  0.2395 -0.5977
   43MOL    C45 8529   4.923   1.847   5.994  0.1464  0.2291 -0.8028
   43MOL    N46 8530   4.865   1.715   6.006 -0.2312 -0.0988 -0.6881
   43MOL    H47 8531   5.014   1.817   5.802  0.8287  1.1692 -0.3588
   43MOL    H48 8532   4.999   1.981   5.851  0.8526 -0.4262 -0.5526
   43MOL    H49 8533   5.008   1.846   6.063 -0.7912 -0.9352  0.3618
   43MOL    H50 8534   4.846   1.917   6.027 -0.4230 -0.9825  0.4910
   43MOL    H51 8535   4.765   1.721   6.000 -0.4589  0.8876  2.7671
   43MOL    C52 8536   4.939   1.603   6.016  0.3021  0.2920 -0.1780
   43MOL    O53 8537   5.062   1.599   6.038 -0.2972 -0.0501 -0.1646
   43MOL    C54 8538   4.860   1.474   6.002 -0.0465 -0.8014  0.9976
   43MOL    C55 8539   4.780   1.432   6.134  0.4760  0.5969 -0.0356
   43MOL    N56 8540   4.696   1.311   6.124 -0.0484 -0.1779 -0.2052
   43MOL    H57 8541   4.792   1.501   5.921 -0.8278  1.0904  2.2325
   43MOL    H58 8542   4.920   1.396   5.955 -0.8228 -0.4877 -0.5495
   43MOL    H59 8543   4.717   1.518   6.158  0.1024  0.0481  0.9885
   43MOL    H60 8544   4.860   1.427   6.208  0.3678 -1.8276 -0.0584
   43MOL    H61 8545   4.702   1.254   6.041 -2.3895 -0.4496 -0.1945
   43MOL    C62 8546   4.618   1.270   6.220  0.4910 -0.2142  0.1840
   43MOL    O63 8547   4.599   1.342   6.314 -0.6066  0.0247  0.4182
   43MOL    C64 8548   4.549   1.133   6.216 -0.3543  0.8880 -0.2906
   43MOL    C65 8549   4.594   1.035   6.330  0.3461  0.0303  0.5311
   43MOL    N66 8550   4.720   0.966   6.311 -0.5794  0.1664  0.1216
   43MOL    H67 8551   4.442   1.147   6.226 -0.6679 -0.5819 -1.5682
   43MOL    H68 8552   4.567   1.090   6.118  0.3384  1.2914 -0.3500
   43MOL    H69 8553   4.603   1.091   6.423 -2.9044  0.5977  0.5508
   43MOL    H70 8554   4.522   0.956   6.351  1.2123 -0.4954  1.5646
   43MOL    H71 8555   4.781   0.999   6.237  1.2612  0.3834  1.6763
   43MOL    C72 8556   4.779   0.888   6.404  0.1388 -0.1256 -0.9509
   43MOL    O73 8557   4.714   0.849   6.496 -0.2526 -0.0548 -0.0082
   43MOL    C74 8558   4.929   0.853   6.398  0.1333  0.3174 -0.5951
   43MOL    C75 8559   5.010   0.857   6.529 -0.4908  0.2328 -0.1815
   43MOL    N76 8560   5.028   0.984   6.589 -1.0614 -0.1649 -0.3410
   43MOL    H77 8561   4.944   0.764   6.337  2.3988 -0.0365  0.4124
   43MOL    H78 8562   4.978   0.924   6.331  1.4750  0.3963  0.4364
   43MOL    H79 8563   4.956   0.785   6.591  0.8923 -2.6750 -2.2709
   43MOL    H80 8564   5.103   0.804   6.509 -0.6143  0.1781 -0.6027
   43MOL    H81 8565   4.968   1.012   6.665 -0.7556  0.6797 -0.4038
   43MOL    C82 8566   5.117   1.073   6.549  0.2756 -0.0668 -0.6959
   43MOL    O83 8567   5.217   1.053   6.479 -0.6719 -0.1656 -0.1861
   43MOL    C84 8568   5.091   1.212   6.605 -0.2246 -0.5520 -0.1816
   43MOL    C85 8569   4.976   1.279   6.522 -0.5360 -0.3965 -0.1698
   43MOL    N86 8570   4.981   1.424   6.537 -0.2832 -0.6582  0.3047
   43MOL    H87 8571   5.069   1.217   6.711  1.2625  0.1602  0.1153
   43MOL    H88 8572   5.183   1.271   6.599 -0.0255 -0.5350  2.7512
   43MOL    H89 8573   4.973   1.253   6.416  0.1052  0.1406 -0.3208
   43MOL    H90 8574   4.882   1.255   6.572 -1.2567  0.4418 -1.1008
   43MOL    H91 8575   4.914   1.466   6.599 -0.4078  3.5927 -2.4635
   43MOL    C92 8576   5.035   1.508   6.453  0.9162 -0.0796 -0.5963
   43MOL    O93 8577   5.100   1.466   6.357 -0.5517  0.6716  0.0454
   43MOL    C94 8578   5.021   1.656   6.464 -0.0770  0.1584  0.1573
   43MOL    C95 8579   5.004   1.746   6.334  0.2982  0.1508 -0.0710
   43MOL    N96 8580   5.131   1.758   6.259 -0.7134 -0.1651 -0.0839
   43MOL    H97 8581   4.933   1.668   6.527  0.1791  1.9578  0.1968
   43MOL    H98 8582   5.102   1.691   6.529 -1.1040  1.0306  1.0064
   43MOL    H99 8583   4.925   1.709   6.268 -0.2585 -1.5013  1.4815
   43MOL   H100 8584   4.983   1.850   6.360 -0.8727  0.1350 -0.8855
   43MOL   H101 8585   5.134   1.684   6.190  0.3109  0.6840 -0.9796
   43MOL   C102 8586   5.234   1.835   6.293 -0.3907  0.2839  0.1615
   43MOL   O103 8587   5.222   1.922   6.375 -0.0760 -0.3258 -0.2037
   43MOL   C104 8588   5.363   1.827   6.205 -0.3527  0.3388  0.1522
   43MOL   C105 8589   5.390   1.962   6.119  0.8315  0.4295 -0.6160
   43MOL   N106 8590   5.439   2.070   6.205  0.0361 -0.0548  0.0109
   43MOL   H107 8591   5.349   1.745   6.134 -2.8004  2.1704 -1.5514
   43MOL   H108 8592   5.443   1.802   6.275  0.1162  0.3142 -0.3875
   43MOL   H109 8593   5.459   1.927   6.043 -1.4733 -0.8060 -2.1812
   43MOL   H110 8594   5.298   1.991   6.070  1.5062  0.7080 -1.7350
   43MOL   H111 8595   5.517   2.048   6.265 -0.8106 -0.0215  1.1407
   43MOL   C112 8596   5.375   2.182   6.220 -0.0208  0.0384 -0.0965
   43MOL   O113 8597   5.280   2.214   6.154 -0.1134 -0.1195  0.0490
   43MOL   C114 8598   5.438   2.286   6.310 -0.6243 -0.9207  0.0583
   43MOL   C115 8599   5.535   2.389   6.241  0.1378  0.6175 -0.5434
   43MOL   N116 8600   5.651   2.331   6.177  0.2060  0.0980  0.0543
   43MOL   H117 8601   5.501   2.234   6.382  0.7136  0.5333 -0.0434
   43MOL   H118 8602   5.361   2.339   6.365 -1.0474  0.2459 -1.6273
   43MOL   H119 8603   5.474   2.447   6.172  0.6700  0.4692 -1.1438
   43MOL   H120 8604   5.575   2.460   6.314 -0.4049 -0.5334  0.8938
   43MOL   H121 8605   5.675   2.235   6.193  0.5964  0.3783  1.1881
   43MOL   C122 8606   5.700   2.375   6.059  0.0441 -0.9226 -0.4116
   43MOL   O123 8607   5.668   2.484   6.015 -0.0407 -0.3637 -0.3026
   43MOL   C124 8608   5.793   2.282   5.990  0.0414  0.0545 -1.0862
   43MOL   C125 8609   5.900   2.344   5.900 -0.3186 -0.4140 -0.4338
   43MOL   N126 8610   6.023   2.369   5.961  0.4249  0.2311 -0.5956
   43MOL   H127 8611   5.735   2.211   5.932 -0.0407 -2.6314  2.1363
   43MOL   H128 8612   5.841   2.215   6.062 -0.8496  0.1085 -0.4460
   43MOL   H129 8613   5.915   2.272   5.819 -0.1717  0.3375 -1.0782
   43MOL   H130 8614   5.862   2.435   5.852  2.6722 -0.7610 -3.6257
   43MOL   H131 8615   6.023   2.361   6.061  2.5930  0.9664 -0.5044
   43MOL   C132 8616   6.127   2.418   5.896  0.2749 -0.5944  0.7594
   43MOL   O133 8617   6.125   2.442   5.776 -0.0496 -0.2923  0.2990
   43MOL   C134 8618   6.257   2.442   5.970 -0.0562 -0.1108 -0.3314
   43MOL   C135 8619   6.375   2.489   5.878  0.2729  0.2830 -0.3490
   43MOL   N136 8620   6.413   2.389   5.781 -0.3584  0.4753 -0.3939
   43MOL   H137 8621   6.261   2.347   6.024 -0.2530  0.5162  0.7970
   43MOL   H138 8622   6.247   2.507   6.056 -1.6611  0.1774 -0.7250
   43MOL   H139 8623   6.347   2.576   5.820 -2.5254  0.4978  1.2256
   43MOL   H140 8624   6.464   2.520   5.933 -0.5669  4.1683 -1.0766
   43MOL   H141 8625   6.390   2.394   5.683 -2.5426  1.5141  0.1276
   43MOL   C142 8626   6.474   2.273   5.818 -0.4323 -0.3893 -0.4916
   43MOL   O143 8627   6.498   2.245   5.940 -0.1058  0.0881 -0.2702
   43MOL   C144 8628   6.510   2.176   5.705  0.2394 -0.8232 -0.8898
   43MOL   C145 8629   6.443   2.038   5.721  0.2151  0.0619 -0.5554
   43MOL   N146 8630   6.305   2.052   5.718 -0.0647  0.1389  0.3246
   43MOL   H147 8631   6.617   2.158   5.711  0.0506 -1.6826 -0.0189
   43MOL   H148 8632   6.481   2.207   5.605 -3.4002 -0.3555  0.2452
   43MOL   H149 8633   6.477   1.977   5.637 -1.2712 -1.1127 -0.3270
   43MOL   H150 8634   6.477   1.981   5.807  0.6035  1.2851  0.1185
   43MOL   H151 8635   6.251   2.046   5.803  0.8402 -2.3453  0.7843
   43MOL   C152 8636   6.232   2.069   5.607 -0.4529 -0.8520 -0.7252
   43MOL   O153 8637   6.285   2.074   5.498 -0.0018 -0.4413  0.3379
   43MOL   C154 8638   6.078   2.056   5.628 -0.1702 -0.0829  0.2704
   43MOL   C155 8639   5.984   2.104   5.518  0.9063  0.0830 -0.0170
   43MOL   N156 8640   5.865   2.022   5.525  0.2929 -0.2550 -0.4337
   43MOL   H157 8641   6.046   2.097   5.724  0.0510 -1.2777  0.8609
   43MOL   H158 8642   6.049   1.952   5.644 -0.9760 -0.5033 -3.4425
   43MOL   H159 8643   5.959   2.210   5.529 -0.5762  0.0014 -2.2928
   43MOL   H160 8644   6.026   2.081   5.420  0.1193 -0.6425 -0.1941
   43MOL   H161 8645   5.866   1.931   5.482 -2.0891 -0.5572  0.0379
   43MOL   C162 8646   5.763   2.050   5.607  0.0911  1.0649  0.4501
   43MOL   O163 8647   5.756   2.153   5.672  0.3926 -0.4195 -0.3003
   43MOL   C164 8648   5.636   1.971   5.609 -0.0156 -0.3835 -0.5940
   43MOL   C165 8649   5.613   1.912   5.754  0.0211  0.2949  0.7733
   43MOL   N166 8650   5.493   1.832   5.761  0.4808  0.0498 -0.7162
   43MOL   H167 8651   5.653   1.889   5.540 -0.7401  0.1714 -1.4482
   43MOL   H168 8652   5.549   2.017   5.562  0.8931 -0.1798 -2.1074
   43MOL   H169 8653   5.704   1.870   5.797  0.2262  2.0537  2.0893
   43MOL   H170 8654   5.607   2.001   5.816 -0.5623  0.2154  0.8389
   43MOL   H171 8655   5.408   1.855   5.711 -1.2698  0.5769  2.4282
   43MOL   C172 8656   5.477   1.727   5.837 -0.2525 -0.1704  0.5185
   43MOL   O173 8657   5.572   1.679   5.901 -0.3408  0.0492  0.2732
   43MOL   C174 8658   5.341   1.660   5.838 -0.0930 -0.0116 -0.3668
   43MOL   C175 8659   5.352   1.504   5.851  0.8739  0.9078  0.0567
   43MOL   N176 8660   5.418   1.441   5.734  0.4267  0.4646 -0.8703
   43MOL   H177 8661   5.282   1.692   5.751  0.2301 -2.2026 -1.4290
   43MOL   H178 8662   5.277   1.698   5.917 -0.7162 -0.6265 -0.5661
   43MOL   H179 8663   5.419   1.488   5.936 -0.9195  0.0072  1.3365
   43MOL   H180 8664   5.257   1.461   5.882  0.6350 -0.3628 -2.3006
   43MOL   H181 8665   5.430   1.496   5.651 -0.1549  1.1894 -0.4837
   43MOL   C182 8666   5.459   1.311   5.734 -0.1577  0.6087 -0.0026
   43MOL   O183 8667   5.461   1.241   5.834 -0.2822  0.4766  0.2616
   43MOL   C184 8668   5.534   1.264   5.606 -0.5807  0.1910 -0.5354
   43MOL   C185 8669   5.662   1.186   5.617  0.6528  0.3411  0.3147
   43MOL   N186 8670   5.715   1.145   5.488  0.0648 -0.2693 -0.4549
   43MOL   H187 8671   5.549   1.352   5.544 -0.5967 -0.5211 -1.5529
   43MOL   H188 8672   5.465   1.211   5.540 -0.1057 -0.1134 -0.7911
   43MOL   H189 8673   5.735   1.254   5.662  1.6707 -0.2138 -0.4864
   43MOL   H190 8674   5.638   1.103   5.684  0.1247 -0.7530 -1.2106
   43MOL   H191 8675   5.799   1.192   5.457  0.2014  0.6367  1.2380
   43MOL   C192 8676   5.671   1.030   5.432 -0.1091 -0.2491 -0.4732
   43MOL   O193 8677   5.573   0.971   5.477  0.3210 -0.5157 -0.7210
   43MOL   C194 8678   5.757   0.973   5.313  0.2860 -0.2744 -0.4115
   43MOL   C195 8679   5.663   0.947   5.192  0.3157 -0.2277  0.1265
   43MOL   N196 8680   5.713   0.871   5.077 -0.2135 -0.5877 -0.1452
   43MOL   H197 8681   5.839   1.039   5.284  1.1501 -1.2808 -0.2727
   43MOL   H198 8682   5.804   0.877   5.333 -0.9922 -1.7881 -4.3340
   43MOL   H199 8683   5.578   0.886   5.225  0.8669 -1.4875 -0.7505
   43MOL   H200 8684   5.624   1.042   5.157  0.7547 -0.6279 -1.5050
   43MOL   H201 8685   5.729   0.776   5.108  2.1394  0.0155  0.6098
   43MOL   H202 8686   5.804   0.903   5.048  0.3820 -2.4973 -0.4279
   44MOL     C1 8687   5.161   4.862   6.051 -0.5377  0.1524 -0.9334
   44MOL     O2 8688   5.115   4.764   6.117  0.0402 -0.1430  0.3486
   44MOL     C3 8689   5.304   4.863   5.995 -0.1594 -1.1276  0.6403
   44MOL     C4 8690   5.393   4.747   6.032 -0.5218  0.4221 -0.3803
   44MOL     N5 8691   5.411   4.733   6.177  0.1732  0.0853  0.1699
   44MOL     H6 8692   5.342   4.956   6.037  0.2047 -0.1203 -1.8383
   44MOL     H7 8693   5.305   4.870   5.886 -2.8194  0.3536  0.6850
   44MOL     H8 8694   5.495   4.766   5.997 -0.2807 -0.9134 -0.4561
   44MOL     H9 8695   5.371   4.654   5.978  1.2023  1.1181 -2.3524
   44MOL    H10 8696   5.327   4.753   6.229 -0.9304 -2.2384 -0.6311
   44MOL    H11 8697   5.106   4.955   6.035 -0.9386  0.4808  2.1018
   44MOL    C12 8698   5.519   4.690   6.251  0.4975 -0.9800 -0.1597
   44MOL    O13 8699   5.625   4.653   6.199 -0.1006 -0.0184 -0.1570
   44MOL    C14 8700   5.508   4.705   6.408 -0.0230  0.3105  0.5548
   44MOL    C15 8701   5.593   4.607   6.499  0.1619 -0.3102  0.4051
   44MOL    N16 8702   5.635   4.674   6.619  0.2360 -0.6503 -0.2058
   44MOL    H17 8703   5.400   4.704   6.426 -0.2213  0.6384 -0.6081
   44MOL    H18 8704   5.548   4.806   6.413  0.3378  0.2252 -0.5153
   44MOL    H19 8705   5.527   4.523   6.522  2.3678 -2.1735 -0.0105
   44MOL    H20 8706   5.683   4.562   6.457 -0.6609 -0.9733 -0.6735
   44MOL    H21 8707   5.704   4.746   6.604 -0.8927  0.5880  0.4675
   44MOL    C22 8708   5.598   4.639   6.743 -0.8697  0.0797  0.2772
   44MOL    O23 8709   5.522   4.543   6.764 -0.2149  0.7336 -0.0473
   44MOL    C24 8710   5.654   4.739   6.853 -0.3900  0.0649  0.1525
   44MOL    C25 8711   5.746   4.661   6.947 -0.8779  0.1332 -0.3918
   44MOL    N26 8712   5.796   4.761   7.052 -0.5926 -0.4815  0.0083
   44MOL    H27 8713   5.568   4.787   6.902 -2.1819 -2.3268 -0.5501
   44MOL    H28 8714   5.718   4.809   6.801  0.2839 -1.8184 -1.5988
   44MOL    H29 8715   5.691   4.578   6.991 -0.9024 -0.0529 -0.7740
   44MOL    H30 8716   5.828   4.619   6.889 -0.8615  0.2971 -0.4876
   44MOL    H31 8717   5.742   4.772   7.137 -1.1635  0.9339 -0.5342
   44MOL    C32 8718   5.923   4.789   7.072  0.1618 -0.0575 -0.2879
   44MOL    O33 8719   6.008   4.763   6.981 -0.2048 -0.3097  0.4501
   44MOL    C34 8720   5.956   4.860   7.210  0.1147  0.0828  0.5186
   44MOL    C35 8721   6.040   4.986   7.206  0.2839 -0.1354 -0.3030
   44MOL    N36 8722   6.186   4.959   7.205 -0.2318 -0.0269  0.0260
   44MOL    H37 8723   5.997   4.790   7.283 -2.4966  1.0014  2.9359
   44MOL    H38 8724   5.858   4.877   7.253 -0.7258 -3.1611  0.0544
   44MOL    H39 8725   6.014   5.035   7.112 -0.1669 -0.9337 -0.5903
   44MOL    H40 8726   6.021   5.044   7.296 -3.5238 -1.6161 -0.0701
   44MOL    H41 8727   6.226   4.897   7.274 -0.6671  1.6240  1.7922
   44MOL    C42 8728   6.278   4.996   7.115  0.5742  0.9124  0.4476
   44MOL    O43 8729   6.245   5.075   7.025  0.1431 -0.3968  0.3096
   44MOL    C44 8730   6.421   4.962   7.137 -0.2142 -0.4469 -0.3157
   44MOL    C45 8731   6.511   4.954   7.016 -0.2874  0.3045  0.6183
   44MOL    N46 8732   6.628   4.865   7.043 -0.0272  0.0036 -0.2292
   44MOL    H47 8733   6.464   5.035   7.207  0.5921 -0.3929 -0.8677
   44MOL    H48 8734   6.429   4.867   7.189 -0.3939 -0.0996  0.3623
   44MOL    H49 8735   6.457   4.912   6.931  1.6585  1.1155 -1.0837
   44MOL    H50 8736   6.537   5.056   6.989 -1.6554  0.5859  0.3351
   44MOL    H51 8737   6.654   4.849   7.140  1.3710 -1.4937 -0.8208
   44MOL    C52 8738   6.695   4.796   6.948  0.2353  0.9499 -0.8810
   44MOL    O53 8739   6.660   4.804   6.829  0.0783 -0.3054  0.0046
   44MOL    C54 8740   6.810   4.704   6.986 -0.2805 -0.6148 -0.0927
   44MOL    C55 8741   6.837   4.585   6.884 -0.0897  0.1175  0.5652
   44MOL    N56 8742   6.952   4.502   6.937 -0.0224  0.3566 -0.5979
   44MOL    H57 8743   6.900   4.761   7.009 -0.1811 -1.8117  2.6920
   44MOL    H58 8744   6.783   4.640   7.070  0.2275 -0.7649 -0.0426
   44MOL    H59 8745   6.859   4.614   6.782  0.2225 -3.5792 -0.4807
   44MOL    H60 8746   6.754   4.514   6.882 -1.3375  1.5589  0.3942
   44MOL    H61 8747   6.924   4.429   7.000  1.4593 -0.5092 -0.9317
   44MOL    C62 8748   7.088   4.520   6.912 -0.5422  0.0157 -0.3484
   44MOL    O63 8749   7.137   4.599   6.825 -0.1427 -0.0951 -0.2309
   44MOL    C64 8750   7.185   4.454   7.004 -0.5058  0.7854  0.5069
   44MOL    C65 8751   7.270   4.552   7.103 -0.6907 -0.5397  0.1162
   44MOL    N66 8752   7.182   4.584   7.218  0.1869  0.5741 -0.5315
   44MOL    H67 8753   7.139   4.377   7.066  0.0617  0.9140  1.0894
   44MOL    H68 8754   7.254   4.401   6.939 -0.2725  1.3945  0.2541
   44MOL    H69 8755   7.355   4.498   7.144  0.8985  2.1711  0.5421
   44MOL    H70 8756   7.326   4.634   7.058  0.8627 -0.3801  2.2836
   44MOL    H71 8757   7.167   4.516   7.291 -0.5644  1.7873  0.4703
   44MOL    C72 8758   7.103   4.687   7.229  0.7834  0.5812 -0.1375
   44MOL    O73 8759   7.113   4.788   7.157  0.1133 -0.3584 -0.7996
   44MOL    C74 8760   6.999   4.684   7.339  0.2384 -0.0235 -0.3298
   44MOL    C75 8761   6.961   4.815   7.399  0.1285  0.0568  0.2044
   44MOL    N76 8762   6.834   4.800   7.480  0.4430 -0.0790 -0.7089
   44MOL    H77 8763   6.913   4.633   7.297  0.6665 -1.1004  0.0990
   44MOL    H78 8764   7.041   4.614   7.411  0.6665  0.5684 -0.0021
   44MOL    H79 8765   7.042   4.855   7.459 -0.1848  1.3199 -0.2036
   44MOL    H80 8766   6.941   4.891   7.323 -0.1243  0.7245  0.9305
   44MOL    H81 8767   6.841   4.747   7.566  1.4741  0.4216 -0.4694
   44MOL    C82 8768   6.713   4.834   7.427 -0.5052 -0.6509 -0.0647
   44MOL    O83 8769   6.691   4.859   7.306 -0.0986  0.1331  0.7162
   44MOL    C84 8770   6.602   4.839   7.530  0.3135  0.5082 -0.3989
   44MOL    C85 8771   6.464   4.883   7.479  0.2630  0.1384 -0.1787
   44MOL    N86 8772   6.377   4.932   7.584  0.3534  0.1583 -0.6888
   44MOL    H87 8773   6.590   4.745   7.584  0.9309  1.0040  0.6143
   44MOL    H88 8774   6.631   4.916   7.602 -1.8469  0.1956  0.8251
   44MOL    H89 8775   6.484   4.964   7.408 -0.5888  0.2147 -0.3438
   44MOL    H90 8776   6.422   4.798   7.424 -0.1368  0.1118  0.1686
   44MOL    H91 8777   6.431   4.971   7.660 -0.0974 -1.1890  0.3455
   44MOL    C92 8778   6.240   4.914   7.596  0.1185  0.1695 -1.0061
   44MOL    O93 8779   6.174   4.845   7.523  0.2107  0.3769  0.4905
   44MOL    C94 8780   6.177   4.983   7.710 -0.5210 -0.4664 -0.2282
   44MOL    C95 8781   6.040   5.043   7.686 -0.4227  0.3664  0.2539
   44MOL    N96 8782   6.034   5.134   7.569 -0.0105 -0.1422 -0.4911
   44MOL    H97 8783   6.177   4.909   0.010 -0.4076 -0.4564 -0.2189
   44MOL    H98 8784   6.242   5.066   7.739 -1.7655  0.8672 -1.1487
   44MOL    H99 8785   5.968   4.963   7.667  0.0902  0.0138 -0.2208
   44MOL   H100 8786   6.002   5.103   7.768 -2.7638  1.6265 -1.6790
   44MOL   H101 8787   6.031   5.082   7.482 -1.8513 -0.8509 -0.0163
   44MOL   C102 8788   6.058   5.261   7.582 -0.0161 -0.4979  0.0140
   44MOL   O103 8789   6.078   5.315   7.688 -0.5420  0.1285  0.5308
   44MOL   C104 8790   6.061   5.346   7.453 -0.6527  0.5489  0.5937
   44MOL   C105 8791   6.091   5.494   7.479 -0.7074 -0.0728 -0.4985
   44MOL   N106 8792   5.965   5.571   7.485 -0.1412 -0.6324  0.8874
   44MOL   H107 8793   5.965   5.330   7.404 -0.4052  0.3372  0.1704
   44MOL   H108 8794   6.142   5.303   7.394  0.1219  0.3159  1.8106
   44MOL   H109 8795   6.142   5.512   7.573 -0.4647 -1.1440 -0.4150
   44MOL   H110 8796   6.165   5.530   7.407 -0.4848 -1.6283 -1.0719
   44MOL   H111 8797   5.923   5.592   7.574 -0.1320  2.6538  0.2095
   44MOL   C112 8798   5.919   5.636   7.378  1.1930 -0.2471 -0.5939
   44MOL   O113 8799   5.958   5.612   7.264  0.8324  1.0803  0.0090
   44MOL   C114 8800   5.811   5.740   7.400 -0.4524 -0.2589  0.6521
   44MOL   C115 8801   5.729   5.795   7.272  0.3506  0.1910 -0.0296
   44MOL   N116 8802   5.819   5.854   7.169  0.4912 -0.4342  0.3904
   44MOL   H117 8803   5.838   5.815   7.474 -1.2387  1.0873 -0.3956
   44MOL   H118 8804   5.733   5.681   7.449 -0.3110 -0.1803  0.9693
   44MOL   H119 8805   5.673   5.713   7.226 -1.2692  0.6163  1.1413
   44MOL   H120 8806   5.653   5.863   7.309  0.3271 -0.7786  1.7671
   44MOL   H121 8807   5.871   5.788   7.113  1.3475  0.3506  0.2546
   44MOL   C122 8808   5.848   5.978   7.150  0.1392  1.1390  0.0035
   44MOL   O123 8809   5.771   6.068   7.191 -1.3597 -0.4800  0.5339
   44MOL   C124 8810   5.980   6.004   7.079  0.1047 -0.2444 -0.9327
   44MOL   C125 8811   6.088   6.086   7.159  0.0153 -0.3883 -0.5822
   44MOL   N126 8812   6.111   6.044   7.296  0.5844  0.0595 -0.1667
   44MOL   H127 8813   5.953   6.049   6.983 -2.5516 -0.1239 -0.1900
   44MOL   H128 8814   6.021   5.906   7.054  0.3421 -0.5347  0.5871
   44MOL   H129 8815   6.186   6.087   7.112  0.1098 -1.0538 -0.4005
   44MOL   H130 8816   6.056   6.188   7.178 -1.0846 -1.4514  4.0397
   44MOL   H131 8817   6.049   6.084   7.366 -0.8757 -1.8206 -0.3410
   44MOL   C132 8818   6.209   5.956   7.327  0.2288  0.1592  0.0687
   44MOL   O133 8819   6.293   5.915   7.245 -0.3020 -0.4520  0.6281
   44MOL   C134 8820   6.215   5.902   7.468 -0.6315 -0.1951 -0.5889
   44MOL   C135 8821   6.335   5.954   7.553 -0.2223 -0.2786 -0.5295
   44MOL   N136 8822   6.463   5.938   7.495 -0.3859 -0.1044 -0.0482
   44MOL   H137 8823   6.221   5.794   7.474 -2.3003 -0.2021  1.8549
   44MOL   H138 8824   6.118   5.917   7.515 -1.2779  0.9409 -2.2119
   44MOL   H139 8825   6.322   6.059   7.582  0.8805 -0.5974  1.1897
   44MOL   H140 8826   6.338   5.892   7.642 -0.2014 -0.2516 -0.5104
   44MOL   H141 8827   6.478   5.997   7.415 -1.6219 -3.8716 -3.2196
   44MOL   C142 8828   6.522   5.815   7.481 -0.4236  0.2641 -0.2664
   44MOL   O143 8829   6.475   5.718   7.531  0.2015 -0.2644 -0.0230
   44MOL   C144 8830   6.651   5.794   7.402  0.3590  0.8725 -0.9063
   44MOL   C145 8831   6.631   5.672   7.312 -1.1170  0.0214  0.0670
   44MOL   N146 8832   6.534   5.700   7.203  0.3283 -0.4211  0.2347
   44MOL   H147 8833   6.731   5.775   7.473  1.3034 -0.3595 -2.2635
   44MOL   H148 8834   6.687   5.883   7.351  3.1026 -0.7145 -1.8539
   44MOL   H149 8835   6.724   5.644   7.262  1.3802  2.7396  2.9825
   44MOL   H150 8836   6.606   5.587   7.376  3.1896 -0.8666  0.7303
   44MOL   H151 8837   6.457   5.762   7.223  0.9902  0.4567  0.0822
   44MOL   C152 8838   6.525   5.625   7.092  0.1217 -0.8196 -0.1594
   44MOL   O153 8839   6.603   5.539   7.056  0.5923 -0.2567 -0.4956
   44MOL   C154 8840   6.397   5.656   7.007 -0.5466 -0.6343 -0.2233
   44MOL   C155 8841   6.379   5.585   6.867 -0.1530  0.6060 -0.5533
   44MOL   N156 8842   6.382   5.435   6.881 -0.1772 -0.1956  0.4883
   44MOL   H157 8843   6.418   5.761   6.986 -0.7997 -0.8894 -1.8352
   44MOL   H158 8844   6.315   5.631   7.073  1.8643 -0.8271  2.8247
   44MOL   H159 8845   6.283   5.613   6.822  0.2708  1.0317 -1.1953
   44MOL   H160 8846   6.469   5.609   6.811  0.3934 -0.2518 -0.0523
   44MOL   H161 8847   6.391   5.399   6.975  0.9278 -1.5850 -0.1458
   44MOL   C162 8848   6.390   5.358   6.772 -0.6063 -0.4970  0.2659
   44MOL   O163 8849   6.385   5.392   6.655 -0.1415  0.2786  0.2577
   44MOL   C164 8850   6.403   5.207   6.798  0.7153  0.2659 -0.1537
   44MOL   C165 8851   6.507   5.137   6.705 -0.1112  0.2615 -0.0068
   44MOL   N166 8852   6.629   5.215   6.693 -0.1004 -0.0413  0.1007
   44MOL   H167 8853   6.308   5.155   6.792  1.1247 -0.4679 -0.2786
   44MOL   H168 8854   6.437   5.194   6.901  1.1094  2.3045 -0.0018
   44MOL   H169 8855   6.535   5.041   6.749  2.1475  1.8728  2.2349
   44MOL   H170 8856   6.460   5.122   6.608  2.2308  0.5110 -1.2082
   44MOL   H171 8857   6.627   5.264   6.605  0.0501 -2.3240 -1.2077
   44MOL   C172 8858   6.724   5.251   6.784 -0.7505  0.7509  0.3380
   44MOL   O173 8859   6.739   5.196   6.894  0.0754 -0.0984  0.4625
   44MOL   C174 8860   6.832   5.350   6.740  0.6923  0.7210 -0.3230
   44MOL   C175 8861   6.789   5.495   6.758 -0.2445 -0.2185 -0.5425
   44MOL   N176 8862   6.822   5.538   6.897 -0.7320  0.5307  0.7768
   44MOL   H177 8863   6.852   5.326   6.635  0.5699 -3.3808  0.4866
   44MOL   H178 8864   6.931   5.339   6.785  0.5982  0.7851 -0.1006
   44MOL   H179 8865   6.828   5.557   6.677 -1.4048 -0.4609 -1.2983
   44MOL   H180 8866   6.680   5.501   6.750 -0.6469 -0.9774  3.4537
   44MOL   H181 8867   6.747   5.529   6.963 -2.7955  0.3578 -1.5236
   44MOL   C182 8868   6.938   5.594   6.943 -0.5116  0.9747  0.1923
   44MOL   O183 8869   7.035   5.622   6.870 -0.2106 -0.1840 -0.2389
   44MOL   C184 8870   6.942   5.623   7.094 -0.3673 -0.4461  0.2806
   44MOL   C185 8871   7.078   5.670   7.158  0.4955  0.2918  0.4345
   44MOL   N186 8872   7.076   5.819   7.151 -0.1832  0.2827 -0.1734
   44MOL   H187 8873   6.912   5.526   7.135 -3.5820 -1.2221 -3.4835
   44MOL   H188 8874   6.860   5.693   7.108 -0.1298  0.0870 -0.9454
   44MOL   H189 8875   7.089   5.631   7.260  1.9457  0.3634  0.3275
   44MOL   H190 8876   7.169   5.633   7.110  0.0866  1.4646 -1.2630
   44MOL   H191 8877   7.014   5.853   7.079  0.4382  1.4558 -0.1779
   44MOL   C192 8878   7.131   5.894   7.246  0.2530 -0.1451  0.2928
   44MOL   O193 8879   7.196   5.839   7.336  0.5054  0.1190 -0.7367
   44MOL   C194 8880   7.105   6.046   7.245  0.1580  0.8589 -0.4618
   44MOL   C195 8881   7.219   6.136   7.301  0.0480  0.0463  0.1986
   44MOL   N196 8882   7.321   6.181   7.203 -0.2848  0.3075 -0.2029
   44MOL   H197 8883   7.087   6.079   7.143  0.3798  1.3595 -0.3422
   44MOL   H198 8884   7.015   6.050   7.307  0.7938 -2.4933  0.8155
   44MOL   H199 8885   7.174   6.227   7.339  0.1150  0.1499  0.0315
   44MOL   H200 8886   7.274   6.089   7.382 -0.0808  2.0386  1.4682
   44MOL   H201 8887   7.406   6.178   7.257 -0.3469 -1.2664 -0.1581
   44MOL   H202 8888   7.337   6.124   7.121  0.0373 -1.9372  1.3879
   45MOL     C1 8889   0.278   3.397   1.022  0.0686  0.2958 -0.3328
   45MOL     O2 8890   0.355   3.340   0.942  0.2744  0.0011 -0.0652
   45MOL     C3 8891   0.124   3.403   0.995  0.4467  0.4535  0.6398
   45MOL     C4 8892   0.093   3.412   0.846 -0.8637  0.2244  0.4985
   45MOL     N5 8893   0.111   3.546   0.797 -0.5022  0.3712 -0.5023
   45MOL     H6 8894   0.076   3.489   1.041  0.4401 -0.5969  2.6482
   45MOL     H7 8895   0.089   3.312   1.045  2.5665 -0.1380  1.1109
   45MOL     H8 8896   7.772   3.374   0.828 -0.0141 -2.3340  0.8573
   45MOL     H9 8897   0.157   3.339   0.795 -1.0495 -0.5294  1.3331
   45MOL    H10 8898   0.206   3.574   0.782  0.0002  0.5770  2.7894
   45MOL    H11 8899   0.308   3.431   1.122 -2.1077  0.3880  0.3037
   45MOL    C12 8900   0.018   3.634   0.759 -0.1264  0.0871  0.1508
   45MOL    O13 8901   7.680   3.609   0.780 -0.1513 -0.2103  0.3501
   45MOL    C14 8902   0.065   3.773   0.716 -0.3355 -0.1621  0.5452
   45MOL    C15 8903   7.747   3.881   0.775  0.3825  0.6531  0.1801
   45MOL    N16 8904   7.737   4.007   0.697  0.4659 -0.0180 -0.1891
   45MOL    H17 8905   0.071   3.773   0.607 -0.1700  0.7751  0.5472
   45MOL    H18 8906   0.157   3.793   0.771 -0.2017  1.5079 -0.2411
   45MOL    H19 8907   7.647   3.840   0.793  1.4839 -1.8026  0.7840
   45MOL    H20 8908   7.780   3.897   0.878  0.7443 -0.2814  0.2082
   45MOL    H21 8909   0.024   4.015   0.622 -1.8886 -0.3850 -2.3983
   45MOL    C22 8910   7.660   4.109   0.737  0.1207 -0.2252 -0.0176
   45MOL    O23 8911   7.593   4.097   0.840 -0.7117 -0.1137  0.2772
   45MOL    C24 8912   7.655   4.231   0.647 -0.3932 -0.0334  0.0750
   45MOL    C25 8913   7.611   4.207   0.496  0.1781 -0.0485 -0.3279
   45MOL    N26 8914   7.708   4.166   0.398 -0.0597 -0.2663  0.2515
   45MOL    H27 8915   7.754   4.277   0.642 -0.1445 -0.8265 -3.7594
   45MOL    H28 8916   7.586   4.298   0.698  0.0583  0.0953  0.5226
   45MOL    H29 8917   7.537   4.128   0.509 -0.0236  0.3361  0.9096
   45MOL    H30 8918   7.560   4.297   0.465 -0.5449  0.0852  1.2331
   45MOL    H31 8919   0.001   4.102   0.427  0.9309  0.6538 -0.1719
   45MOL    C32 8920   7.718   4.204   0.272 -0.0185  0.5198  0.0275
   45MOL    O33 8921   7.630   4.264   0.210  0.0674  0.6144  0.5079
   45MOL    C34 8922   0.067   4.165   0.197 -0.1956  0.3678  0.0620
   45MOL    C35 8923   0.138   4.273   0.115 -0.2870 -0.1282 -0.0902
   45MOL    N36 8924   0.276   4.260   0.089  0.0623 -0.1170  0.5077
   45MOL    H37 8925   0.045   4.078   0.135  0.6862  0.7257 -0.7572
   45MOL    H38 8926   0.139   4.112   0.259 -1.2936 -1.7791 -0.4330
   45MOL    H39 8927   0.095   4.284   0.016  1.1531  1.1636 -0.5798
   45MOL    H40 8928   0.127   4.369   0.164  0.2851  0.2695 -0.7352
   45MOL    H41 8929   0.325   4.348   0.080  2.3066 -1.0567  2.6801
   45MOL    C42 8930   0.348   4.156   0.041 -0.2260 -0.4852  0.1548
   45MOL    O43 8931   0.301   4.046   0.037 -0.5148  0.3628  0.3457
   45MOL    C44 8932   0.490   4.192   7.779 -0.2244 -0.2217 -0.1732
   45MOL    C45 8933   0.571   4.076   7.711  0.3745  0.1899 -0.6865
   45MOL    N46 8934   0.614   4.099   7.565 -0.1357  0.0851  0.5430
   45MOL    H47 8935   0.475   4.276   7.711 -0.0877  0.4336  0.5976
   45MOL    H48 8936   0.551   4.240   0.076  0.9919  1.2512 -1.9851
   45MOL    H49 8937   0.649   4.051   0.002 -2.5883 -1.2909  2.1754
   45MOL    H50 8938   0.502   3.993   7.697 -0.6386  0.7668  0.7375
   45MOL    H51 8939   0.572   4.039   7.495  2.0355  0.6521 -1.3121
   45MOL    C52 8940   0.714   4.190   7.536  0.2870 -0.3336  0.3995
   45MOL    O53 8941   0.765   4.275   7.615 -0.0264  0.9639 -0.1882
   45MOL    C54 8942   0.753   4.190   7.382 -0.0672 -0.1837 -0.1427
   45MOL    C55 8943   0.791   4.326   7.320 -0.3432  0.3048 -0.9628
   45MOL    N56 8944   0.669   4.405   7.278 -0.2721 -0.9218  0.0407
   45MOL    H57 8945   0.837   4.122   7.377  0.9042  0.9419  0.5197
   45MOL    H58 8946   0.669   4.151   7.324 -0.9631  1.5159 -0.0493
   45MOL    H59 8947   0.862   4.299   7.242  0.7021  0.1234  0.0346
   45MOL    H60 8948   0.856   4.386   7.383 -1.2363  0.4485 -0.1691
   45MOL    H61 8949   0.596   4.415   7.346 -0.1454  0.4048 -0.0198
   45MOL    C62 8950   0.644   4.449   7.158  0.2643  1.2037 -0.8146
   45MOL    O63 8951   0.716   4.432   7.062 -0.3724 -0.2105 -0.0514
   45MOL    C64 8952   0.516   4.534   7.147 -0.7976 -0.6135 -0.2047
   45MOL    C65 8953   0.543   4.666   7.071 -0.2133  0.5673 -0.3716
   45MOL    N66 8954   0.428   4.721   7.016  0.2560 -0.4187  0.7039
   45MOL    H67 8955   0.443   4.477   7.089 -0.0157 -0.6198 -1.1943
   45MOL    H68 8956   0.482   4.558   7.247  0.2815 -0.3023  0.0880
   45MOL    H69 8957   0.605   4.737   7.127 -2.1072  1.8447  0.1435
   45MOL    H70 8958   0.608   4.638   6.988  0.4855 -0.3150  0.4550
   45MOL    H71 8959   0.334   4.689   7.038 -1.0766  1.4018 -2.0797
   45MOL    C72 8960   0.433   4.844   6.951 -0.1563 -0.0556 -0.3088
   45MOL    O73 8961   0.543   4.887   6.909 -0.0561 -0.6882  0.2616
   45MOL    C74 8962   0.300   4.905   6.911 -0.2163  0.5314  0.2627
   45MOL    C75 8963   0.304   5.044   6.852  0.1373  0.7087 -0.4665
   45MOL    N76 8964   0.394   5.139   6.934 -0.6819  0.8377 -0.1646
   45MOL    H77 8965   0.250   4.841   6.839  1.4481  0.3742 -0.7755
   45MOL    H78 8966   0.235   4.905   6.999 -1.1596 -0.2236 -0.4142
   45MOL    H79 8967   0.341   5.027   6.751 -5.0479  0.2540 -2.4611
   45MOL    H80 8968   0.203   5.086   6.849  0.4823  2.0460  3.7422
   45MOL    H81 8969   0.422   5.103   7.024 -0.8073  0.4108 -0.2923
   45MOL    C82 8970   0.428   5.264   6.893  0.3857  0.0913 -0.1358
   45MOL    O83 8971   0.419   5.313   6.775  0.9554 -0.0240 -0.0073
   45MOL    C84 8972   0.473   5.359   7.004  0.3106 -1.1903  0.7569
   45MOL    C85 8973   0.468   5.507   6.965 -0.3760 -0.2788 -0.1176
   45MOL    N86 8974   0.332   5.544   6.951  0.2728 -0.1757  0.1768
   45MOL    H87 8975   0.422   5.338   7.098 -1.5995 -0.8949 -0.1860
   45MOL    H88 8976   0.581   5.349   7.018  0.4676 -1.7464 -0.7267
   45MOL    H89 8977   0.515   5.560   7.048 -0.4721 -0.2681 -0.0713
   45MOL    H90 8978   0.530   5.526   6.877  0.4469 -2.8916 -0.1396
   45MOL    H91 8979   0.286   5.501   6.872  0.3515 -0.6004  0.3615
   45MOL    C92 8980   0.265   5.613   7.039  0.0527 -0.4698  0.3256
   45MOL    O93 8981   0.307   5.658   7.146  0.1539  0.0528 -0.3605
   45MOL    C94 8982   0.120   5.626   6.990 -0.8256  0.4516  0.9250
   45MOL    C95 8983   0.036   5.495   6.971  0.7367 -0.5116 -0.4308
   45MOL    N96 8984   0.011   5.439   7.105  0.0829  0.7383 -0.3287
   45MOL    H97 8985   0.075   5.687   7.068  0.6539  2.6388  0.1497
   45MOL    H98 8986   0.129   5.683   6.898  0.6912 -2.4253 -0.7849
   45MOL    H99 8987   7.726   5.533   6.922  0.0964 -0.2999  0.8794
   45MOL   H100 8988   0.079   5.416   6.910  1.6952 -2.2258  2.3521
   45MOL   H101 8989   7.720   5.486   7.158  0.9021  1.4697  0.1394
   45MOL   C102 8990   0.077   5.336   7.167 -0.1065 -0.3723 -0.3334
   45MOL   O103 8991   0.154   5.267   7.106 -0.3733 -0.2610  0.1560
   45MOL   C104 8992   0.054   5.321   7.320 -0.0964 -0.7650  0.3310
   45MOL   C105 8993   0.098   5.443   7.410 -0.6100 -0.2291  0.1277
   45MOL   N106 8994   0.233   5.485   7.387  0.4560 -0.1959  0.3593
   45MOL   H107 8995   0.119   5.237   7.348 -0.6746 -0.6907  1.9028
   45MOL   H108 8996   7.731   5.293   7.338 -0.7717  0.8939 -0.8339
   45MOL   H109 8997   0.027   5.526   7.404 -2.7613 -1.8654  2.0788
   45MOL   H110 8998   0.093   5.411   7.514 -2.0612  1.8559  0.7402
   45MOL   H111 8999   0.242   5.550   7.310 -1.2540 -1.4565 -0.9503
   45MOL   C112 9000   0.337   5.435   7.449  0.0555 -0.3660  0.0451
   45MOL   O113 9001   0.331   5.340   7.524 -0.3533  0.7868 -0.4302
   45MOL   C114 9002   0.472   5.506   7.422  0.0147  0.0256 -0.4071
   45MOL   C115 9003   0.594   5.437   7.490  0.0716 -0.4441 -0.2655
   45MOL   N116 9004   0.727   5.490   7.453  0.4317  0.4211  0.6515
   45MOL   H117 9005   0.469   5.613   7.444  1.0435  0.1869 -0.9922
   45MOL   H118 9006   0.494   5.517   7.316  1.8852 -2.2388 -0.3112
   45MOL   H119 9007   0.576   5.415   7.595 -2.4719 -0.8497 -0.7708
   45MOL   H120 9008   0.609   5.336   7.451  0.3633 -0.3996 -0.2699
   45MOL   H121 9009   0.780   5.443   7.381 -0.2467  2.5629 -1.3224
   45MOL   C122 9010   0.772   5.607   7.497 -0.0210 -0.1516 -0.4681
   45MOL   O123 9011   0.693   5.685   7.546  0.6445 -0.5716  0.0830
   45MOL   C124 9012   0.925   5.627   7.498  0.6177  0.7105  0.2100
   45MOL   C125 9013   0.975   5.737   7.401  0.2942 -0.1390 -0.6565
   45MOL   N126 9014   0.917   5.867   7.427  0.2781 -0.3100 -0.1872
   45MOL   H127 9015   0.985   5.537   7.491 -0.6333 -0.2259  1.2254
   45MOL   H128 9016   0.936   5.668   7.599 -1.5633  1.2769  0.2459
   45MOL   H129 9017   1.083   5.749   7.407 -0.0201  3.2317 -0.8114
   45MOL   H130 9018   0.949   5.704   7.300 -0.8279 -1.4121  0.0194
   45MOL   H131 9019   0.818   5.868   7.445 -0.1893 -1.6778 -2.4851
   45MOL   C132 9020   0.979   5.983   7.408 -0.3397  0.2732 -0.8796
   45MOL   O133 9021   1.094   6.000   7.382  0.2979  0.5671 -0.6047
   45MOL   C134 9022   0.891   6.109   7.422 -0.0667 -0.4753 -0.1460
   45MOL   C135 9023   0.779   6.096   7.317 -0.6820 -0.2034  0.3539
   45MOL   N136 9024   0.720   6.232   7.290 -0.1929  0.2728  0.6189
   45MOL   H137 9025   0.939   6.206   7.407 -0.8257  0.0827  0.9953
   45MOL   H138 9026   0.861   6.128   7.525 -0.0788  2.0143 -0.5653
   45MOL   H139 9027   0.832   6.066   7.227 -0.0716 -0.9824  0.9615
   45MOL   H140 9028   0.708   6.021   7.349 -0.5928 -0.0414  0.9480
   45MOL   H141 9029   0.759   6.298   7.223 -0.0019  0.4900  0.9433
   45MOL   C142 9030   0.604   6.276   7.343 -0.7305  0.0605 -0.4714
   45MOL   O143 9031   0.544   6.207   7.423 -0.7090  0.3406  0.1405
   45MOL   C144 9032   0.564   6.415   7.301  0.0091  0.3105  0.1976
   45MOL   C145 9033   0.469   6.421   7.180 -0.1374 -0.5263  0.0027
   45MOL   N146 9034   0.331   6.409   7.229  0.1651 -0.2716 -0.4221
   45MOL   H147 9035   0.650   6.481   7.290  0.7319 -0.6458  0.0595
   45MOL   H148 9036   0.506   6.469   7.376  0.7016 -0.4279  1.2722
   45MOL   H149 9037   0.491   6.507   7.117  1.6061 -0.9022  0.0899
   45MOL   H150 9038   0.483   6.334   7.115  0.6835 -0.0445 -0.4621
   45MOL   H151 9039   0.301   6.316   7.255  1.5193 -0.5058  0.3215
   45MOL   C152 9040   0.234   6.499   7.220 -0.1985 -0.0915 -0.5680
   45MOL   O153 9041   0.245   6.614   7.177 -0.6780  0.2275  0.2426
   45MOL   C154 9042   0.102   6.441   7.266  0.3320 -0.0212 -0.2398
   45MOL   C155 9043   7.763   6.467   7.171 -0.3477  0.2093  0.3907
   45MOL   N156 9044   7.774   6.369   7.055  0.1151 -0.6511 -0.1595
   45MOL   H157 9045   0.073   6.506   7.349  1.2305 -0.4773  0.4400
   45MOL   H158 9046   0.105   6.341   7.308 -1.3166 -0.5852 -1.4450
   45MOL   H159 9047   7.668   6.451   7.221  1.0069 -1.5914  2.5233
   45MOL   H160 9048   7.771   6.572   7.143 -0.7460  0.0494 -0.3217
   45MOL   H161 9049   0.050   6.390   6.974  2.0309 -2.3497  0.6968
   45MOL   C162 9050   7.726   6.244   7.051  0.1112  0.1595  0.1923
   45MOL   O163 9051   7.665   6.192   7.144 -0.5960 -0.3039  0.1058
   45MOL   C164 9052   7.750   6.156   6.930 -0.6323 -0.5292 -0.0956
   45MOL   C165 9053   0.083   6.053   6.942 -0.0896  0.2617 -0.0885
   45MOL   N166 9054   0.172   6.055   6.815  0.3302  0.4400  0.1080
   45MOL   H167 9055   7.754   6.200   6.831  0.3913  1.5223  0.8166
   45MOL   H168 9056   7.665   6.088   6.930 -2.1139  1.2047  2.3603
   45MOL   H169 9057   0.152   6.074   7.023 -1.6364  0.5911  1.1547
   45MOL   H170 9058   0.037   5.955   6.956  1.3556 -0.4172 -0.0088
   45MOL   H171 9059   0.169   5.978   6.750 -1.1257 -0.0494  0.7191
   45MOL   C172 9060   0.252   6.153   6.778 -0.3669 -0.4923  0.0229
   45MOL   O173 9061   0.284   6.243   6.855  0.6380 -0.4656  0.6477
   45MOL   C174 9062   0.316   6.152   6.644 -0.2829  0.6815  0.3666
   45MOL   C175 9063   0.218   6.182   6.529  0.5992  0.1206 -0.2206
   45MOL   N176 9064   0.172   6.060   6.452 -0.1579  0.2764  0.2353
   45MOL   H177 9065   0.370   6.057   6.638 -0.7063  0.4898 -0.5696
   45MOL   H178 9066   0.396   6.226   6.648  1.8661 -1.6421  1.5839
   45MOL   H179 9067   0.134   6.240   6.566 -0.3797 -1.6214  0.3892
   45MOL   H180 9068   0.259   6.255   6.461  3.0711 -0.9890  0.0339
   45MOL   H181 9069   0.099   6.004   6.494 -1.1130  2.5455  1.6865
   45MOL   C182 9070   0.233   6.037   6.336  0.5910  0.1692 -0.4576
   45MOL   O183 9071   0.309   6.115   6.283 -0.4491 -0.4307  0.5297
   45MOL   C184 9072   0.211   5.894   6.275 -0.0226  0.0252 -0.1287
   45MOL   C185 9073   0.291   5.867   6.144  0.9125  0.4456 -0.0501
   45MOL   N186 9074   0.322   5.731   6.121 -0.0875  0.6461 -0.2419
   45MOL   H187 9075   0.108   5.886   6.242 -1.3166  1.4962  3.3088
   45MOL   H188 9076   0.216   5.814   6.350  1.9192  0.4053  0.1786
   45MOL   H189 9077   0.246   5.915   6.057 -0.2131 -0.1729  0.1855
   45MOL   H190 9078   0.384   5.924   6.144  0.8019  0.6262 -0.3652
   45MOL   H191 9079   0.294   5.684   6.037  0.8120  1.1771 -0.8449
   45MOL   C192 9080   0.395   5.653   6.199  0.8702  0.3137 -0.0925
   45MOL   O193 9081   0.453   5.690   6.296  0.3377  0.1282  0.0138
   45MOL   C194 9082   0.394   5.510   6.155 -0.3857  0.3140  0.4339
   45MOL   C195 9083   0.531   5.434   6.165  0.4217  0.1238  0.2210
   45MOL   N196 9084   0.623   5.454   6.047  0.4310  0.1254 -0.6095
   45MOL   H197 9085   0.329   5.454   6.222 -0.0628 -0.3116  0.2295
   45MOL   H198 9086   0.345   5.500   6.058 -0.4276 -1.7623  0.6290
   45MOL   H199 9087   0.593   5.464   6.250  0.5024  0.8256 -0.0794
   45MOL   H200 9088   0.514   5.327   6.173  0.8371  0.1386  1.3850
   45MOL   H201 9089   0.713   5.408   6.042 -0.6307 -1.8867 -1.9453
   45MOL   H202 9090   0.643   5.553   6.044 -0.0453  0.3025  1.2109
   46MOL     C1 9091   6.115   2.606   5.511 -0.4514 -0.4354 -0.1937
   46MOL     O2 9092   6.188   2.699   5.475 -0.4941  0.2393 -0.1429
   46MOL     C3 9093   6.133   2.473   5.462 -0.3536 -1.0159 -0.1196
   46MOL     C4 9094   6.115   2.465   5.305 -0.3743  0.8750 -0.3591
   46MOL     N5 9095   6.189   2.355   5.245 -0.2539  0.0089 -0.1067
   46MOL     H6 9096   6.069   2.407   5.521 -0.0577  0.0724  1.4463
   46MOL     H7 9097   6.234   2.452   5.496 -0.8095  1.4734  3.0320
   46MOL     H8 9098   6.145   2.559   5.258  1.1029  1.3434  1.4767
   46MOL     H9 9099   6.009   2.467   5.280 -0.8259 -0.1841  1.3742
   46MOL    H10 9100   6.288   2.355   5.267 -0.1011  2.3217 -0.6674
   46MOL    H11 9101   6.026   2.623   5.572 -0.6156  0.7192 -0.7235
   46MOL    C12 9102   6.150   2.247   5.188  0.0119  0.3430 -0.2881
   46MOL    O13 9103   6.032   2.228   5.165 -0.4029 -0.4283 -0.4644
   46MOL    C14 9104   6.254   2.136   5.163  0.4462  0.4208 -0.3229
   46MOL    C15 9105   6.225   2.025   5.060  0.4646 -0.4555 -0.1554
   46MOL    N16 9106   6.126   2.067   4.958  0.0185 -0.8810 -0.0290
   46MOL    H17 9107   6.292   2.091   5.255  0.8291  0.4460 -0.4660
   46MOL    H18 9108   6.351   2.180   5.138 -0.3064  1.1732 -1.9513
   46MOL    H19 9109   6.318   1.982   5.025  0.4156 -0.6904  0.0020
   46MOL    H20 9110   6.169   1.948   5.113 -3.2838 -0.4423 -3.8388
   46MOL    H21 9111   6.063   2.140   4.987  0.6083  0.0286 -1.0194
   46MOL    C22 9112   6.117   2.026   4.828 -0.4565 -0.2073 -0.6586
   46MOL    O23 9113   6.203   1.952   4.778 -0.0501  0.6780 -0.7589
   46MOL    C24 9114   6.004   2.079   4.745  0.1346 -0.8098  0.5312
   46MOL    C25 9115   6.008   2.234   4.710  0.0734 -0.2788  0.0452
   46MOL    N26 9116   5.991   2.320   4.822  0.3490  0.0042  0.2026
   46MOL    H27 9117   5.910   2.058   4.797 -0.3920 -0.5876 -0.3082
   46MOL    H28 9118   6.005   2.033   4.646 -0.3094  3.3998 -1.5155
   46MOL    H29 9119   6.092   2.271   4.651 -0.5821 -0.9869 -1.3696
   46MOL    H30 9120   5.929   2.258   4.638  0.9894  1.7226 -0.3352
   46MOL    H31 9121   6.070   2.376   4.848  0.5468 -0.3162  0.2995
   46MOL    C32 9122   5.874   2.361   4.864 -0.4388 -0.7639  0.4194
   46MOL    O33 9123   5.776   2.306   4.825 -0.1327 -0.2315 -0.4781
   46MOL    C34 9124   5.863   2.492   4.945  0.4481  0.4140  0.2964
   46MOL    C35 9125   5.762   2.594   4.887  0.0520  0.0866  0.4994
   46MOL    N36 9126   5.721   2.697   4.982 -0.5216 -0.1338 -0.2004
   46MOL    H37 9127   5.953   2.553   4.939  0.6421  0.1909  0.9081
   46MOL    H38 9128   5.844   2.454   5.045 -0.3805  0.7304  0.2631
   46MOL    H39 9129   5.804   2.647   4.801  1.5752 -2.1932 -0.2060
   46MOL    H40 9130   5.674   2.541   4.851  0.6946 -0.7540  0.1516
   46MOL    H41 9131   5.782   2.777   4.992 -0.4244 -0.1246 -0.8001
   46MOL    C42 9132   5.642   2.680   5.084  0.6358 -0.3521 -0.0669
   46MOL    O43 9133   5.582   2.570   5.096 -0.2041 -0.0086 -0.1920
   46MOL    C44 9134   5.622   2.795   5.182  0.0057  1.1197  0.6201
   46MOL    C45 9135   5.642   2.756   5.332 -0.1114  0.0876 -0.1074
   46MOL    N46 9136   5.585   2.860   5.416  0.3002  0.2879 -0.5893
   46MOL    H47 9137   5.688   2.877   5.154 -0.5765  1.0924 -0.9013
   46MOL    H48 9138   5.520   2.828   5.161 -0.5142 -0.7817  0.0207
   46MOL    H49 9139   5.583   2.671   5.367  0.6333 -0.6434 -0.6134
   46MOL    H50 9140   5.748   2.738   5.348 -0.3925 -1.5271  0.0052
   46MOL    H51 9141   5.647   2.934   5.448  0.3921 -0.4839  1.0980
   46MOL    C52 9142   5.455   2.884   5.445  0.3898  0.5666 -0.1587
   46MOL    O53 9143   5.364   2.815   5.397  0.1235  0.4527  0.0105
   46MOL    C54 9144   5.424   2.993   5.543 -0.4279 -0.2331 -0.6279
   46MOL    C55 9145   5.293   3.073   5.527  0.1587  0.5223  0.9419
   46MOL    N56 9146   5.219   3.088   5.647 -0.3487 -0.3884 -0.6905
   46MOL    H57 9147   5.450   2.967   5.646  0.3252  2.0358 -0.2215
   46MOL    H58 9148   5.504   3.062   5.516 -3.0936  1.9714 -3.1495
   46MOL    H59 9149   5.218   3.023   5.465  0.4243  1.4647 -0.1577
   46MOL    H60 9150   5.301   3.164   5.467 -2.3654 -0.8639 -1.6233
   46MOL    H61 9151   5.156   3.012   5.667 -0.0549 -0.3260  0.5272
   46MOL    C62 9152   5.234   3.187   5.732  0.2714  0.4176 -0.2092
   46MOL    O63 9153   5.316   3.279   5.720  0.3597 -0.0212  0.3162
   46MOL    C64 9154   5.146   3.183   5.862  0.8090 -0.3547 -0.6282
   46MOL    C65 9155   5.224   3.228   5.992 -0.8388 -0.0335  0.2604
   46MOL    N66 9156   5.149   3.204   6.112  0.1943 -0.1441 -0.9273
   46MOL    H67 9157   5.060   3.250   5.862  0.4477 -0.7327  3.2094
   46MOL    H68 9158   5.094   3.089   5.880 -1.4404  1.2367  1.5517
   46MOL    H69 9159   5.321   3.177   5.991 -1.0173 -0.3626 -1.0365
   46MOL    H70 9160   5.256   3.332   5.980 -0.6754 -0.0003  0.9566
   46MOL    H71 9161   5.108   3.282   6.162 -1.5776 -1.0293 -0.9360
   46MOL    C72 9162   5.125   3.083   6.168  0.6147  0.2449 -0.5442
   46MOL    O73 9163   5.141   2.979   6.100  0.7852  0.1232 -0.2743
   46MOL    C74 9164   5.060   3.079   6.304  0.6667 -0.2798  0.0799
   46MOL    C75 9165   5.153   3.117   6.428 -0.4111  0.3155  0.0101
   46MOL    N76 9166   5.205   3.250   6.415  0.2764  0.6382  0.8606
   46MOL    H77 9167   4.977   3.150   6.298  1.7499  0.9866 -0.2149
   46MOL    H78 9168   5.014   2.983   6.330  0.0054  0.2716  0.9906
   46MOL    H79 9169   5.092   3.104   6.518  1.2827  1.3518  1.3350
   46MOL    H80 9170   5.238   3.048   6.433  0.1124  1.0029  0.6289
   46MOL    H81 9171   5.229   3.279   6.321  2.0276 -0.8240  0.8278
   46MOL    C82 9172   5.279   3.320   6.505 -0.0067 -0.7908 -0.9745
   46MOL    O83 9173   5.283   3.275   6.622 -0.2003  0.2292 -0.3449
   46MOL    C84 9174   5.358   3.451   6.469  0.3135 -0.0758  0.9075
   46MOL    C85 9175   5.265   3.559   6.412  0.1683  0.0485 -0.7567
   46MOL    N86 9176   5.304   3.696   6.425 -0.1743 -0.0409  0.0969
   46MOL    H87 9177   5.397   3.494   6.561  0.5950  0.4552  0.5447
   46MOL    H88 9178   5.442   3.428   6.403  0.2898 -1.0292  1.2066
   46MOL    H89 9179   5.244   3.532   6.308 -0.5584 -0.0032 -0.5941
   46MOL    H90 9180   5.168   3.554   6.460  0.9947  2.0416  1.1797
   46MOL    H91 9181   5.329   3.729   6.517 -0.1967 -3.2841  1.3367
   46MOL    C92 9182   5.293   3.789   6.330 -0.2937  1.1262 -0.1314
   46MOL    O93 9183   5.248   3.768   6.218 -0.2913 -0.2530  0.0308
   46MOL    C94 9184   5.320   3.931   6.370  0.2373 -0.0307 -0.2455
   46MOL    C95 9185   5.366   4.029   6.253 -0.5108 -0.3385  0.5361
   46MOL    N96 9186   5.273   4.138   6.237 -0.6571  0.0198  0.2074
   46MOL    H97 9187   5.223   3.958   6.412 -0.1832  1.2914 -1.9838
   46MOL    H98 9188   5.393   3.943   6.450 -1.1462 -0.8991  1.1493
   46MOL    H99 9189   5.464   4.075   6.265 -1.1575  0.9377  0.9186
   46MOL   H100 9190   5.384   3.977   6.159  1.8190 -0.6726  1.1473
   46MOL   H101 9191   5.188   4.137   6.292 -0.6887  1.9863  0.2410
   46MOL   C102 9192   5.272   4.235   6.141  0.1503 -0.0457  0.2451
   46MOL   O103 9193   5.367   4.259   6.070 -0.7528  0.5532  0.2470
   46MOL   C104 9194   5.147   4.320   6.130 -0.0361  0.5566  0.1735
   46MOL   C105 9195   5.106   4.341   5.982 -0.2855 -0.9063  0.4044
   46MOL   N106 9196   5.022   4.459   5.959 -0.0117  0.0554 -0.2355
   46MOL   H107 9197   5.171   4.420   6.165  0.9666  0.9360 -1.5781
   46MOL   H108 9198   5.071   4.285   6.201  0.8059  0.6169  1.1065
   46MOL   H109 9199   5.187   4.331   5.910 -1.0494 -1.0914 -0.4550
   46MOL   H110 9200   5.042   4.258   5.952 -0.0463 -1.6039  1.8068
   46MOL   H111 9201   4.943   4.481   6.018 -1.9438  0.5758 -2.9176
   46MOL   C112 9202   5.042   4.546   5.859 -0.3237  0.5109  0.7041
   46MOL   O113 9203   5.146   4.544   5.788 -0.2023  0.1498 -0.4333
   46MOL   C114 9204   4.930   4.649   5.849 -0.2710  0.3803 -0.6142
   46MOL   C115 9205   4.925   4.714   5.713  0.8532 -0.0542 -0.6981
   46MOL   N116 9206   4.860   4.633   5.617 -0.1727  0.7163  0.3921
   46MOL   H117 9207   4.945   4.731   5.920  0.4979  1.1349 -1.6194
   46MOL   H118 9208   4.834   4.604   5.871 -0.2804  0.0268 -1.3553
   46MOL   H119 9209   4.867   4.807   5.713  1.8098  0.5503 -1.1818
   46MOL   H120 9210   5.025   4.744   5.680  0.3948  0.9175 -1.2364
   46MOL   H121 9211   4.784   4.571   5.644 -0.5530  0.8276 -0.4257
   46MOL   C122 9212   4.878   4.646   5.487 -0.2142  0.2362  0.1292
   46MOL   O123 9213   4.958   4.722   5.439  0.0563 -0.1065 -0.0119
   46MOL   C124 9214   4.790   4.563   5.386  0.3939  0.4852 -0.6800
   46MOL   C125 9215   4.756   4.651   5.259 -0.0003 -0.4131 -0.3639
   46MOL   N126 9216   4.611   4.648   5.224  0.4217  0.1701  1.0663
   46MOL   H127 9217   4.695   4.537   5.432  1.0285 -0.5330  0.0573
   46MOL   H128 9218   4.845   4.471   5.368 -0.1580 -0.0592  0.4301
   46MOL   H129 9219   4.792   4.752   5.275  1.4326 -0.7325 -1.4804
   46MOL   H130 9220   4.823   4.622   5.178  1.6714 -0.0177  0.8689
   46MOL   H131 9221   4.548   4.677   5.297  0.6530  0.3739  1.1872
   46MOL   C132 9222   4.566   4.596   5.114  0.7790  0.7317 -0.3188
   46MOL   O133 9223   4.639   4.527   5.039 -0.0365  0.1230 -0.0709
   46MOL   C134 9224   4.411   4.621   5.083 -0.0112  0.1771  0.4101
   46MOL   C135 9225   4.368   4.598   4.937 -0.0908 -0.2442  0.1868
   46MOL   N136 9226   4.369   4.463   4.889  0.3876  0.1975 -0.0420
   46MOL   H137 9227   4.389   4.725   5.105  1.5347  1.0102 -1.8604
   46MOL   H138 9228   4.346   4.565   5.151 -0.2988 -1.5238 -1.2051
   46MOL   H139 9229   4.272   4.646   4.922 -0.4633 -0.8103  0.7335
   46MOL   H140 9230   4.429   4.659   4.871 -3.3094  1.8000 -1.0251
   46MOL   H141 9231   4.401   4.386   4.947 -1.2980 -0.6399 -0.1812
   46MOL   C142 9232   4.331   4.425   4.761  0.0016 -0.5995 -0.3152
   46MOL   O143 9233   4.304   4.510   4.678 -0.2591 -0.0155 -0.4474
   46MOL   C144 9234   4.347   4.276   4.729  0.3656  0.1344 -0.5641
   46MOL   C145 9235   4.231   4.225   4.643  1.2411  0.5555  0.4923
   46MOL   N146 9236   4.265   4.101   4.574 -0.4671  0.2878  0.4815
   46MOL   H147 9237   4.343   4.215   4.819  0.9292  0.3951 -0.3558
   46MOL   H148 9238   4.441   4.248   4.681  0.0930 -2.1969  0.2280
   46MOL   H149 9239   4.143   4.192   4.698  1.1946 -1.9113 -0.9566
   46MOL   H150 9240   4.203   4.299   4.568  2.1260  0.1095 -0.2793
   46MOL   H151 9241   4.258   4.018   4.631 -0.1803  2.5326  3.9424
   46MOL   C152 9242   4.317   4.087   4.453 -0.1479 -0.0686 -0.3335
   46MOL   O153 9243   4.330   4.184   4.375 -0.0292 -0.3170 -0.1006
   46MOL   C154 9244   4.359   3.947   4.412  0.7114 -0.0791  0.0211
   46MOL   C155 9245   4.378   3.930   4.262  0.2956 -0.6504 -0.0570
   46MOL   N156 9246   4.382   3.791   4.213  0.0317 -0.2480  0.3043
   46MOL   H157 9247   4.285   3.877   4.452 -0.5110  0.9542 -0.4074
   46MOL   H158 9248   4.453   3.928   4.463 -1.7994 -0.5938  4.7175
   46MOL   H159 9249   4.298   3.977   4.207 -0.2287  0.5818  1.7132
   46MOL   H160 9250   4.473   3.974   4.231 -0.8837  2.2308  0.2932
   46MOL   H161 9251   4.295   3.752   4.179 -0.4881 -0.8810  2.2739
   46MOL   C162 9252   4.488   3.719   4.192  0.3274  0.0144  0.4038
   46MOL   O163 9253   4.603   3.765   4.210 -0.0149  0.0239 -0.2108
   46MOL   C164 9254   4.482   3.579   4.126  0.4463 -0.3779 -0.2121
   46MOL   C165 9255   4.552   3.461   4.190 -0.3803 -0.7437 -0.7559
   46MOL   N166 9256   4.683   3.437   4.139  0.2110 -0.2048  0.1799
   46MOL   H167 9257   4.524   3.595   4.027  0.5333 -1.5022 -0.3598
   46MOL   H168 9258   4.377   3.552   4.111  0.2940  0.5703 -0.8806
   46MOL   H169 9259   4.547   3.475   4.298  1.7745 -0.7121 -0.6426
   46MOL   H170 9260   4.495   3.372   4.163 -1.4008 -0.3380  0.0427
   46MOL   H171 9261   4.718   3.501   4.069  1.1417 -1.3640 -0.4402
   46MOL   C172 9262   4.757   3.328   4.170  0.2129 -0.0881  0.0688
   46MOL   O173 9263   4.714   3.235   4.236  0.2300 -0.3746 -0.0027
   46MOL   C174 9264   4.901   3.332   4.130 -0.7638 -0.1624 -0.5309
   46MOL   C175 9265   4.969   3.191   4.138  0.0973  0.3112 -0.0946
   46MOL   N176 9266   4.969   3.128   4.010  0.8972 -0.2717  0.2131
   46MOL   H177 9267   4.937   3.385   4.218 -0.5379 -0.5785 -0.3774
   46MOL   H178 9268   4.935   3.397   4.049  2.7640  1.4936  2.1477
   46MOL   H179 9269   5.069   3.205   4.177  0.4007 -0.2201 -0.6857
   46MOL   H180 9270   4.927   3.123   4.213  2.2413 -0.3190  0.5476
   46MOL   H181 9271   4.972   3.181   3.924 -1.1351  0.1109  0.3507
   46MOL   C182 9272   4.956   2.995   3.987 -0.0336 -0.0874  0.4546
   46MOL   O183 9273   4.941   2.908   4.071 -0.0244 -0.1183  0.3553
   46MOL   C184 9274   4.973   2.946   3.842  0.5414 -0.4238  0.1696
   46MOL   C185 9275   4.837   2.922   3.772 -0.3206  0.4536 -0.6366
   46MOL   N186 9276   4.780   3.041   3.702  0.1038 -0.5616  0.1026
   46MOL   H187 9277   5.025   2.851   3.853  1.7832  0.2449  0.2653
   46MOL   H188 9278   5.033   3.015   3.782  2.0250 -1.2434  0.6870
   46MOL   H189 9279   4.847   2.850   3.692 -2.7904  0.3458 -0.8893
   46MOL   H190 9280   4.752   2.882   3.828 -0.1650  1.1366  0.1037
   46MOL   H191 9281   4.838   3.072   3.625  0.9141 -0.2189  0.8370
   46MOL   C192 9282   4.678   3.115   3.744 -0.5249  0.1168 -1.0008
   46MOL   O193 9283   4.617   3.091   3.849  0.2691 -0.3184  0.6205
   46MOL   C194 9284   4.655   3.229   3.658 -0.1816  0.1583 -0.5313
   46MOL   C195 9285   4.594   3.361   3.714 -0.6698 -0.1353  0.1757
   46MOL   N196 9286   4.462   3.349   3.768 -0.3018  0.0615 -0.4322
   46MOL   H197 9287   4.747   3.255   3.605  0.0648  2.1264  0.8162
   46MOL   H198 9288   4.576   3.205   3.587 -1.9755 -0.5753  1.6889
   46MOL   H199 9289   4.661   3.401   3.791 -1.0806 -1.3020  1.1469
   46MOL   H200 9290   4.579   3.445   3.646 -1.0931 -1.4653 -1.3865
   46MOL   H201 9291   4.424   3.437   3.798  0.0888  0.6388 -1.5829
   46MOL   H202 9292   4.477   3.298   3.854  0.2929  0.8163 -0.0799
   47MOL     C1 9293   6.929   0.809   2.416  0.1042  0.0181  0.3931
   47MOL     O2 9294   7.042   0.826   2.364 -0.4541 -0.0976 -0.0978
   47MOL     C3 9295   6.834   0.918   2.426 -0.2346 -0.4959 -0.4751
   47MOL     C4 9296   6.896   1.049   2.493  0.0175  0.5359 -0.3823
   47MOL     N5 9297   6.902   1.023   2.639 -0.5127  0.1819  0.7515
   47MOL     H6 9298   6.746   0.882   2.480  0.1350  1.2729  1.3408
   47MOL     H7 9299   6.802   0.957   2.329  1.9777  0.2457 -0.9287
   47MOL     H8 9300   6.830   1.135   2.482 -0.3240  0.4212  0.6902
   47MOL     H9 9301   6.990   1.080   2.448  0.4445 -1.2402 -0.7359
   47MOL    H10 9302   6.879   0.930   2.668 -0.4548 -0.1516 -0.2513
   47MOL    H11 9303   6.896   0.714   2.459  0.0170 -0.0655  0.1446
   47MOL    C12 9304   6.957   1.107   2.729 -0.1032 -0.1164  0.1539
   47MOL    O13 9305   7.022   1.207   2.698 -0.2740 -0.2826 -0.2171
   47MOL    C14 9306   6.935   1.074   2.879  1.0627 -0.3859 -0.2615
   47MOL    C15 9307   7.058   1.010   2.946  0.4079  0.9213 -0.3784
   47MOL    N16 9308   7.047   0.972   3.090 -0.0383  0.6544 -0.4117
   47MOL    H17 9309   6.846   1.013   2.889  1.5836 -0.9334  1.1228
   47MOL    H18 9310   6.917   1.175   2.917  1.3728  0.5981 -2.6504
   47MOL    H19 9311   7.085   0.918   2.894  2.0759 -0.0208  2.0732
   47MOL    H20 9312   7.145   1.076   2.942  1.4262 -0.2889  1.0510
   47MOL    H21 9313   6.960   0.934   3.126  1.0337 -0.1448  1.4646
   47MOL    C22 9314   7.136   1.000   3.185  0.2675 -0.0298  0.1773
   47MOL    O23 9315   7.255   1.026   3.164 -0.0586 -0.1033  1.2836
   47MOL    C24 9316   7.086   0.983   3.324 -0.4378  0.6280 -0.1782
   47MOL    C25 9317   7.089   1.111   3.404 -0.7197 -0.0405  0.3190
   47MOL    N26 9318   6.975   1.205   3.369 -0.5588 -0.0081  0.5088
   47MOL    H27 9319   7.156   0.912   3.369 -2.0377 -0.9280 -0.0935
   47MOL    H28 9320   6.986   0.940   3.329  0.8582 -2.4311  0.7309
   47MOL    H29 9321   7.097   1.098   3.512  1.2998 -0.7717  0.1020
   47MOL    H30 9322   7.175   1.176   3.390 -0.4031 -0.3868  0.6631
   47MOL    H31 9323   6.999   1.281   3.306 -0.6783 -1.2999 -1.1380
   47MOL    C32 9324   6.847   1.186   3.399  0.4323  0.0144  0.2887
   47MOL    O33 9325   6.811   1.101   3.481 -0.0057  0.2215  0.7426
   47MOL    C34 9326   6.746   1.281   3.336  0.0549 -0.7365  0.4917
   47MOL    C35 9327   6.648   1.333   3.437  0.3195 -0.6772  0.4254
   47MOL    N36 9328   6.669   1.471   3.470  0.8566  0.0710 -0.2006
   47MOL    H37 9329   6.704   1.219   3.257  1.9549 -0.9740 -0.3793
   47MOL    H38 9330   6.803   1.368   3.301  1.2815 -0.8969  2.0144
   47MOL    H39 9331   6.556   1.333   3.379  1.7468  0.1395 -1.9086
   47MOL    H40 9332   6.634   1.279   3.530  1.0787 -0.2997  0.7650
   47MOL    H41 9333   6.756   1.509   3.436 -0.4209  4.3157  0.9286
   47MOL    C42 9334   6.573   1.554   3.509  0.0436 -0.1043  0.5388
   47MOL    O43 9335   6.466   1.520   3.560 -0.2195  0.4473 -0.6528
   47MOL    C44 9336   6.602   1.704   3.487 -0.6639  0.3076  0.1597
   47MOL    C45 9337   6.571   1.792   3.610 -0.7948 -0.1065  0.3140
   47MOL    N46 9338   6.686   1.874   3.652  0.4753  0.2355 -0.1756
   47MOL    H47 9339   6.709   1.711   3.465 -0.9059  0.1426 -1.1013
   47MOL    H48 9340   6.541   1.738   3.403 -0.2232  0.7787  0.0214
   47MOL    H49 9341   6.489   1.863   3.598  0.9549  1.9795  0.3123
   47MOL    H50 9342   6.535   1.730   3.692  0.5503  0.4906  1.3799
   47MOL    H51 9343   6.777   1.831   3.651  1.4085  2.1068  1.1032
   47MOL    C52 9344   6.673   1.995   3.709 -0.9763 -0.8335  0.3298
   47MOL    O53 9345   6.570   2.047   3.749 -0.0314 -0.3350 -0.1639
   47MOL    C54 9346   6.803   2.073   3.760  0.1341 -0.1642 -0.1411
   47MOL    C55 9347   6.779   2.225   3.774  0.6716  0.0884 -0.0546
   47MOL    N56 9348   6.870   2.291   3.869  0.0640 -0.1989 -0.0887
   47MOL    H57 9349   6.832   2.024   3.853 -0.5571  0.3826  0.3575
   47MOL    H58 9350   6.883   2.047   3.690 -0.6438 -1.4504 -0.5701
   47MOL    H59 9351   6.680   2.255   3.808  1.5773  2.2236  0.8247
   47MOL    H60 9352   6.795   2.273   3.678  0.7423 -0.0104 -0.0914
   47MOL    H61 9353   6.827   2.321   3.955  0.4563  1.8330 -0.5606
   47MOL    C62 9354   7.000   2.311   3.869 -0.1799 -0.1618 -0.0340
   47MOL    O63 9355   7.068   2.284   3.767  0.1511 -0.3835 -0.2919
   47MOL    C64 9356   7.055   2.366   4.000 -0.4740  0.0379  0.1392
   47MOL    C65 9357   7.190   2.296   4.038  0.1147  0.8677  0.2766
   47MOL    N66 9358   7.194   2.150   4.059 -0.6479  0.0513 -0.0944
   47MOL    H67 9359   7.063   2.473   3.986  0.6734  0.1112  1.2296
   47MOL    H68 9360   6.985   2.336   4.078  0.7358 -2.5132  0.3044
   47MOL    H69 9361   7.264   2.326   3.964 -1.3701  1.8280 -0.8670
   47MOL    H70 9362   7.224   2.329   4.136  0.0087  1.7119  0.0300
   47MOL    H71 9363   7.193   2.101   3.971 -0.8953 -0.2007  0.0470
   47MOL    C72 9364   7.177   2.075   4.171 -0.1009  0.3384 -0.7259
   47MOL    O73 9365   7.163   2.125   4.281  0.2035 -0.7189 -0.4752
   47MOL    C74 9366   7.184   1.923   4.139 -0.5096  0.1977  0.3654
   47MOL    C75 9367   7.155   1.830   4.258  0.0223 -0.4015  0.0661
   47MOL    N76 9368   7.207   1.694   4.246  0.0440 -0.0534 -0.3333
   47MOL    H77 9369   7.112   1.899   4.062 -0.0809 -0.3859  0.1485
   47MOL    H78 9370   7.287   1.914   4.105 -0.6592  0.9292 -0.2927
   47MOL    H79 9371   7.184   1.869   4.356  1.7357 -1.3681 -0.0465
   47MOL    H80 9372   7.047   1.820   4.271 -0.2640  1.0047 -1.0680
   47MOL    H81 9373   7.295   1.691   4.294  0.8945  2.5898 -1.6413
   47MOL    C82 9374   7.171   1.589   4.168  0.5820  0.3244  0.2255
   47MOL    O83 9375   7.060   1.581   4.113 -0.3455  0.3392  0.7968
   47MOL    C84 9376   7.262   1.468   4.164 -0.2460  0.4782  0.0812
   47MOL    C85 9377   7.201   1.347   4.241 -0.5715 -0.1030 -0.3177
   47MOL    N86 9378   7.182   1.372   4.379  0.1902 -0.4356  0.3857
   47MOL    H87 9379   7.255   1.435   4.060  0.4827  1.3572 -0.2525
   47MOL    H88 9380   7.366   1.493   4.184 -0.3768  0.6068  0.6153
   47MOL    H89 9381   7.102   1.340   4.195 -1.4655 -1.0213  1.6887
   47MOL    H90 9382   7.264   1.260   4.221 -1.5669 -1.1951  1.2142
   47MOL    H91 9383   7.108   1.438   4.401  1.2903  0.8552  0.3367
   47MOL    C92 9384   7.260   1.333   4.475 -0.1169 -0.4598  1.3637
   47MOL    O93 9385   7.369   1.280   4.459  0.1685  0.4767  0.0042
   47MOL    C94 9386   7.202   1.364   4.619  0.2939 -0.5477  0.5053
   47MOL    C95 9387   7.212   1.515   4.664  0.2795  0.0678  0.1657
   47MOL    N96 9388   7.134   1.530   4.795  0.0717  0.0632  0.5897
   47MOL    H97 9389   7.098   1.331   4.620  0.5179 -1.3304 -0.7757
   47MOL    H98 9390   7.249   1.304   4.698 -1.7712 -1.0169  1.4280
   47MOL    H99 9391   7.312   1.557   4.661  0.5010 -0.5201 -1.0073
   47MOL   H100 9392   7.154   1.566   4.587 -0.4263 -1.4618 -0.3379
   47MOL   H101 9393   7.043   1.486   4.800 -0.5020  1.1162 -0.3458
   47MOL   C102 9394   7.162   1.614   4.890  0.6412  0.3469 -0.4354
   47MOL   O103 9395   7.086   1.638   4.984  0.3100 -0.3614 -0.6107
   47MOL   C104 9396   7.293   1.700   4.881 -0.1555 -0.2340  0.5622
   47MOL   C105 9397   7.286   1.844   4.952  0.2069 -0.0810  0.1541
   47MOL   N106 9398   7.240   1.937   4.850  0.1849  0.2605 -0.2747
   47MOL   H107 9399   7.331   1.725   4.782 -0.8213  2.6695  0.9912
   47MOL   H108 9400   7.363   1.628   4.923 -0.0634 -0.3692  0.1742
   47MOL   H109 9401   7.228   1.844   5.044  0.7365 -0.5272  0.4931
   47MOL   H110 9402   7.383   1.878   4.989  0.6682 -1.7180  0.4896
   47MOL   H111 9403   7.141   1.933   4.831  0.3353  0.5025 -1.1276
   47MOL   C112 9404   7.313   1.986   4.755  0.7609 -0.8100 -0.5619
   47MOL   O113 9405   7.434   1.980   4.750 -0.9487 -0.0151 -0.3808
   47MOL   C114 9406   7.246   2.075   4.648  0.3512  0.5378  0.2357
   47MOL   C115 9407   7.308   2.213   4.637  0.0036  1.2042 -0.3590
   47MOL   N116 9408   7.236   2.278   4.529  0.0409  0.1769  0.1758
   47MOL   H117 9409   7.139   2.084   4.667  0.6426  2.0891  1.2118
   47MOL   H118 9410   7.263   2.027   4.552  2.0899 -2.4624  1.9613
   47MOL   H119 9411   7.317   2.264   4.733  0.1286  1.8468 -0.7153
   47MOL   H120 9412   7.409   2.202   4.598 -0.5029 -0.3511 -1.3071
   47MOL   H121 9413   7.237   2.241   4.435  2.1901 -0.2998  0.3709
   47MOL   C122 9414   7.209   2.405   4.537  0.1632 -1.2092  0.1089
   47MOL   O123 9415   7.223   2.470   4.638  0.3105 -0.3251  0.1078
   47MOL   C124 9416   7.172   2.481   4.407 -0.4732  1.3989  0.1221
   47MOL   C125 9417   7.047   2.570   4.411  0.2429 -0.0433  0.1743
   47MOL   N126 9418   7.080   2.707   4.392 -0.5013 -0.4863  0.0681
   47MOL   H127 9419   7.159   2.411   4.325  0.6738  0.6817  0.5345
   47MOL   H128 9420   7.261   2.541   4.385 -1.1441  2.2436 -0.3027
   47MOL   H129 9421   6.955   2.542   4.359  1.0304 -1.3465 -0.5360
   47MOL   H130 9422   7.002   2.562   4.510  1.8771 -2.2481  0.7887
   47MOL   H131 9423   7.146   2.750   4.455  2.3972 -1.9064 -1.9154
   47MOL   C132 9424   7.010   2.786   4.307 -0.0212  1.3498 -0.2132
   47MOL   O133 9425   6.930   2.748   4.221  0.3271 -0.3655 -0.4007
   47MOL   C134 9426   7.050   2.928   4.294 -0.0006  0.8190  0.3019
   47MOL   C135 9427   6.943   3.037   4.284 -0.1257 -0.3345  0.5130
   47MOL   N136 9428   6.832   3.017   4.191 -0.0737 -0.1408 -0.3021
   47MOL   H137 9429   7.128   2.924   4.218 -0.0929 -2.3519  0.3347
   47MOL   H138 9430   7.109   2.968   4.376  0.7953  1.5156 -0.5904
   47MOL   H139 9431   6.894   3.038   4.381 -1.5567 -1.7016 -0.1602
   47MOL   H140 9432   6.992   3.132   4.265  0.3131 -0.3969  1.3463
   47MOL   H141 9433   6.811   2.920   4.169  2.0923 -1.3893  2.6441
   47MOL   C142 9434   6.744   3.116   4.171 -0.4277  0.2578  0.0973
   47MOL   O143 9435   6.761   3.227   4.211  0.3430  0.1257 -0.0392
   47MOL   C144 9436   6.613   3.074   4.103  0.4024 -0.8075 -0.0085
   47MOL   C145 9437   6.534   3.191   4.031 -0.6476 -0.1678  0.2991
   47MOL   N146 9438   6.555   3.209   3.884  0.2236 -0.0612 -0.2892
   47MOL   H147 9439   6.554   3.013   4.171  1.0465 -2.0020 -0.5036
   47MOL   H148 9440   6.639   2.996   4.031  1.3169 -0.2983 -0.2338
   47MOL   H149 9441   6.429   3.198   4.059 -0.8203  0.5562 -0.5515
   47MOL   H150 9442   6.567   3.286   4.074  0.8376 -1.0674  1.1984
   47MOL   H151 9443   6.609   3.142   3.831  1.1439 -0.7309  1.4756
   47MOL   C152 9444   6.496   3.301   3.807  0.1167 -0.1986 -0.1800
   47MOL   O153 9445   6.398   3.363   3.846  0.1431  0.1489 -0.4085
   47MOL   C154 9446   6.544   3.316   3.669 -0.4712  0.3369 -0.2734
   47MOL   C155 9447   6.430   3.346   3.577  0.2714  0.2228  0.2423
   47MOL   N156 9448   6.424   3.257   3.463  0.5119  0.1509 -0.3730
   47MOL   H157 9449   6.588   3.227   3.623  0.0673  0.9514 -0.9552
   47MOL   H158 9450   6.626   3.388   3.670  0.6195 -0.8470 -2.0955
   47MOL   H159 9451   6.331   3.356   3.621 -0.2760 -1.2947 -0.6003
   47MOL   H160 9452   6.444   3.444   3.531 -2.9589  0.9794  0.7970
   47MOL   H161 9453   6.500   3.269   3.397  1.8781  0.8363  1.2692
   47MOL   C162 9454   6.326   3.173   3.438 -0.2098 -0.6390  0.1120
   47MOL   O163 9455   6.236   3.158   3.519 -0.8751 -0.2077 -0.5974
   47MOL   C164 9456   6.327   3.103   3.301 -0.1123  0.2040 -0.4815
   47MOL   C165 9457   6.238   3.178   3.202  0.1957  0.1960 -0.9086
   47MOL   N166 9458   6.103   3.164   3.248 -0.2066 -0.4819 -0.6125
   47MOL   H167 9459   6.283   3.003   3.301  0.0603  0.1228 -1.1031
   47MOL   H168 9460   6.430   3.092   3.268  1.1848  1.4173  2.9948
   47MOL   H169 9461   6.255   3.285   3.206  0.9029  0.0183  1.4829
   47MOL   H170 9462   6.242   3.140   3.099  0.1515 -1.2464 -0.3972
   47MOL   H171 9463   6.077   3.222   3.326 -1.2206 -0.9317 -0.6111
   47MOL   C172 9464   6.012   3.073   3.213  0.5353 -0.7767  0.0965
   47MOL   O173 9465   6.022   3.003   3.114 -0.2489 -0.3758  0.5460
   47MOL   C174 9466   5.897   3.050   3.311  0.3807  0.3039  0.9287
   47MOL   C175 9467   5.941   2.942   3.402 -0.2518 -0.0209  0.9287
   47MOL   N176 9468   5.831   2.904   3.491  0.3964 -0.2011 -0.1330
   47MOL   H177 9469   5.804   3.036   3.257  2.3903 -1.6730 -2.1969
   47MOL   H178 9470   5.884   3.147   3.359  0.0723  1.8022 -2.0875
   47MOL   H179 9471   5.966   2.850   3.348 -1.9507 -0.4149  0.7822
   47MOL   H180 9472   6.030   2.964   3.460  2.0662 -1.1012 -2.0484
   47MOL   H181 9473   5.812   2.807   3.509 -0.5641 -0.0197 -0.1476
   47MOL   C182 9474   5.774   2.987   3.581 -0.7503  0.0921 -0.0163
   47MOL   O183 9475   5.794   3.104   3.594  0.0956  0.5414 -0.1370
   47MOL   C184 9476   5.682   2.918   3.679  0.2971 -0.0503 -0.7234
   47MOL   C185 9477   5.552   2.996   3.705  0.7813 -0.2218  0.3409
   47MOL   N186 9478   5.453   2.980   3.593 -0.2652 -0.3844 -0.2848
   47MOL   H187 9479   5.733   2.904   3.774 -0.1590 -0.6453 -0.5591
   47MOL   H188 9480   5.644   2.825   3.635 -1.8431  0.6779 -0.4947
   47MOL   H189 9481   5.512   2.957   3.799 -1.5070 -0.8272 -0.8579
   47MOL   H190 9482   5.574   3.101   3.721  1.7910 -0.5958  1.5807
   47MOL   H191 9483   5.490   2.978   3.499 -0.0159 -1.6425 -0.1708
   47MOL   C192 9484   5.331   2.936   3.609 -0.2508 -0.0883  0.6694
   47MOL   O193 9485   5.279   2.932   3.721 -0.4852 -0.3183  0.0667
   47MOL   C194 9486   5.259   2.899   3.480  0.1868 -0.3412 -0.1079
   47MOL   C195 9487   5.108   2.902   3.504 -0.4124 -0.2911  0.1066
   47MOL   N196 9488   5.053   3.039   3.519 -0.2607 -0.3350  0.0526
   47MOL   H197 9489   5.278   2.968   3.398 -2.5575 -0.5373 -0.9558
   47MOL   H198 9490   5.288   2.800   3.444 -1.9569 -1.8257  2.1400
   47MOL   H199 9491   5.040   2.847   3.439  0.5128 -0.4362 -0.7630
   47MOL   H200 9492   5.087   2.859   3.602 -3.3186 -0.0503 -0.3771
   47MOL   H201 9493   5.117   3.075   3.589 -1.8566 -0.3508  1.5717
   47MOL   H202 9494   5.067   3.105   3.445  0.2854  0.8741  1.2098
   48MOL     C1 9495   6.488   0.538   1.269  0.1107 -0.3043 -0.3752
   48MOL     O2 9496   6.583   0.483   1.326  0.5893  0.0731 -0.0496
   48MOL     C3 9497   6.363   0.458   1.223 -0.3863  0.5086  0.6272
   48MOL     C4 9498   6.401   0.328   1.157  0.9963 -0.3402  0.1017
   48MOL     N5 9499   6.464   0.344   1.025  0.0828  0.2189 -0.3883
   48MOL     H6 9500   6.296   0.525   1.168  1.3722  1.2819 -0.6566
   48MOL     H7 9501   6.307   0.413   1.305  2.3664 -1.8158  1.2986
   48MOL     H8 9502   6.321   0.255   1.149  1.6633 -0.8126 -3.0821
   48MOL     H9 9503   6.474   0.269   1.213  0.8076 -0.1712  0.5205
   48MOL    H10 9504   6.564   0.353   1.025 -0.0752  2.1689 -0.3865
   48MOL    H11 9505   6.480   0.647   1.266  1.9708 -0.1515 -0.1670
   48MOL    C12 9506   6.390   0.326   0.916  0.2030  0.1537  0.0685
   48MOL    O13 9507   6.270   0.305   0.920  0.1879 -0.3037  0.3548
   48MOL    C14 9508   6.465   0.324   0.781 -0.3040 -0.9886  1.0604
   48MOL    C15 9509   6.382   0.297   0.654 -0.2452 -0.5166  0.4612
   48MOL    N16 9510   6.375   0.157   0.622  0.2306 -0.2570  0.4200
   48MOL    H17 9511   6.551   0.257   0.783 -0.0871 -0.9225 -2.4263
   48MOL    H18 9512   6.504   0.424   0.765  1.7059 -1.7783  0.8287
   48MOL    H19 9513   6.285   0.346   0.666 -0.5380 -0.5583 -1.5679
   48MOL    H20 9514   6.429   0.355   0.575 -1.4648  0.4711  0.4375
   48MOL    H21 9515   6.356   0.082   0.688 -1.6261 -0.7921 -0.6700
   48MOL    C22 9516   6.407   0.111   0.496  0.4567 -0.0295  0.1259
   48MOL    O23 9517   6.406   0.181   0.398 -0.0078  0.2087  0.4710
   48MOL    C24 9518   6.438   7.741   0.490  1.3195 -0.6783 -0.9606
   48MOL    C25 9519   6.586   7.711   0.495 -0.1117 -0.0355 -0.1812
   48MOL    N26 9520   6.629   7.586   0.422  0.5101 -0.2626 -0.6338
   48MOL    H27 9521   6.379   7.719   0.401 -1.9039  1.3276  0.5595
   48MOL    H28 9522   6.372   7.691   0.561 -0.6167  1.0558 -1.4968
   48MOL    H29 9523   6.647   0.015   0.462 -0.4854  0.1242 -0.4624
   48MOL    H30 9524   6.601   7.699   0.602  0.2271 -0.3280 -0.2605
   48MOL    H31 9525   6.557   7.524   0.388 -0.6201  0.0045  1.2300
   48MOL    C32 9526   6.759   7.558   0.414  0.5035 -0.5952 -0.7381
   48MOL    O33 9527   6.850   7.633   0.458  0.5165  0.1202 -0.3109
   48MOL    C34 9528   6.790   7.422   0.351  0.0593 -0.5163  0.5292
   48MOL    C35 9529   6.903   7.421   0.240 -1.1880 -0.2069 -0.1829
   48MOL    N36 9530   6.850   7.445   0.111 -0.3855  0.5391 -0.3063
   48MOL    H37 9531   6.696   7.370   0.332 -1.9813  1.5592  4.3565
   48MOL    H38 9532   6.835   7.364   0.432  1.2518 -0.0591  0.1928
   48MOL    H39 9533   6.977   7.501   0.253 -0.2522 -0.6702 -2.5073
   48MOL    H40 9534   6.959   7.329   0.257  0.2689  0.6300 -0.3360
   48MOL    H41 9535   6.814   7.539   0.098 -1.3028  0.8382  3.6189
   48MOL    C42 9536   6.841   7.355   0.009 -0.1246 -0.1946  0.3696
   48MOL    O43 9537   6.878   7.237   0.009 -0.1189  0.0170 -0.2828
   48MOL    C44 9538   6.796   7.416   7.646  0.5044 -0.4553 -0.8103
   48MOL    C45 9539   6.649   7.408   7.623  0.6422 -0.0747  0.6356
   48MOL    N46 9540   6.610   7.269   7.624 -1.0543 -0.0945  0.1641
   48MOL    H47 9541   6.814   7.524   7.644 -1.2376 -0.0821  1.0057
   48MOL    H48 9542   6.852   7.377   7.561 -1.0064 -0.1547 -1.9704
   48MOL    H49 9543   6.596   7.474   7.692 -0.4737  1.1617 -1.3654
   48MOL    H50 9544   6.628   7.448   7.524  1.3472  1.9018  1.2681
   48MOL    H51 9545   6.684   7.209   7.659  0.5531  0.9698 -1.3177
   48MOL    C52 9546   6.489   7.227   7.648  0.1026  0.5812  0.9011
   48MOL    O53 9547   6.389   7.303   7.646 -0.8331  0.1322  0.2430
   48MOL    C54 9548   6.484   7.088   7.703 -0.7418  0.2915 -0.2021
   48MOL    C55 9549   6.355   7.010   7.686 -0.3153  0.2721 -0.1759
   48MOL    N56 9550   6.375   6.903   7.592 -0.2683 -0.8826  0.5042
   48MOL    H57 9551   6.562   7.029   7.655 -0.5780 -0.5535  1.0884
   48MOL    H58 9552   6.499   7.089   0.031  0.5321  0.1911 -0.3694
   48MOL    H59 9553   6.265   7.056   7.647  0.3762  1.7561 -0.0562
   48MOL    H60 9554   6.340   6.967   0.004 -1.1637 -1.7768 -1.1717
   48MOL    H61 9555   6.367   6.806   7.621 -0.9555 -0.6285  1.1857
   48MOL    C62 9556   6.367   6.925   7.461 -0.2425  0.1214 -0.5828
   48MOL    O63 9557   6.360   7.037   7.412  0.2730 -0.5242 -0.4457
   48MOL    C64 9558   6.390   6.812   7.369  0.2047  0.0906 -0.1974
   48MOL    C65 9559   6.258   6.782   7.290 -0.1434 -0.2021  0.2182
   48MOL    N66 9560   6.142   6.736   7.373 -0.3394 -0.4145 -0.0296
   48MOL    H67 9561   6.469   6.826   7.295 -2.3425  0.2141 -2.9973
   48MOL    H68 9562   6.423   6.724   7.424 -0.8606 -0.1758  0.0315
   48MOL    H69 9563   6.233   6.875   7.238  2.7922  0.0130 -0.8989
   48MOL    H70 9564   6.266   6.715   7.204 -0.4434  1.6256 -1.2923
   48MOL    H71 9565   6.137   6.644   7.414 -0.6447 -0.7845 -0.8728
   48MOL    C72 9566   6.036   6.816   7.408 -0.5138  0.2531  0.2084
   48MOL    O73 9567   6.004   6.919   7.347 -0.4830 -0.2927  0.0857
   48MOL    C74 9568   5.973   6.765   7.538  0.0810  0.0729 -0.1729
   48MOL    C75 9569   5.823   6.801   7.541 -0.0229  0.3890  0.5891
   48MOL    N76 9570   5.739   6.725   7.446  0.7758  0.0944 -0.2026
   48MOL    H77 9571   5.989   6.660   7.562 -1.4240 -0.0648  0.2675
   48MOL    H78 9572   6.003   6.830   7.620 -0.3337  2.3719 -1.8021
   48MOL    H79 9573   5.777   6.781   7.638 -1.1474  0.3319  0.0531
   48MOL    H80 9574   5.810   6.908   7.525  2.0324  0.4743 -0.6610
   48MOL    H81 9575   5.734   6.768   7.355 -2.1977 -2.9703 -1.6145
   48MOL    C82 9576   5.682   6.608   7.457 -0.1371  0.8815  0.0458
   48MOL    O83 9577   5.697   6.545   7.564  0.4410  0.3096  0.1516
   48MOL    C84 9578   5.622   6.538   7.337  0.4815  0.5173 -0.2455
   48MOL    C85 9579   5.495   6.456   7.365  0.4115  0.2112 -0.3851
   48MOL    N86 9580   5.457   6.375   7.246 -0.2358  0.0312 -0.9652
   48MOL    H87 9581   5.617   6.602   7.249  3.1832  2.1813  0.7419
   48MOL    H88 9582   5.703   6.468   7.317  1.9240  1.8137  0.9510
   48MOL    H89 9583   5.502   6.384   7.446 -0.6903  0.6320  0.0981
   48MOL    H90 9584   5.414   6.522   7.397 -1.2940 -0.9176 -2.2193
   48MOL    H91 9585   5.518   6.375   7.165  1.8164 -0.6133  0.5311
   48MOL    C92 9586   5.322   6.351   7.217  0.0774 -0.3082 -0.0618
   48MOL    O93 9587   5.237   6.357   7.306 -0.1844 -0.5713 -0.3970
   48MOL    C94 9588   5.280   6.318   7.075  0.8877 -0.8474 -0.4299
   48MOL    C95 9589   5.162   6.414   7.028  0.3179 -0.2243  0.7428
   48MOL    N96 9590   5.198   6.557   7.045  0.0486 -0.1239 -0.3571
   48MOL    H97 9591   5.365   6.337   7.010  1.0989  0.8868  0.3362
   48MOL    H98 9592   5.240   6.217   7.067 -1.6777  0.0690  0.3121
   48MOL    H99 9593   5.129   6.394   6.926  0.9004  2.1981  0.0452
   48MOL   H100 9594   5.080   6.386   7.094  1.0527  2.8950  3.0884
   48MOL   H101 9595   5.174   6.604   7.130 -1.8126  1.2055 -1.5939
   48MOL   C102 9596   5.285   6.623   6.968  0.4144 -0.0144 -0.1790
   48MOL   O103 9597   5.313   6.575   6.863 -0.2823  0.5634  0.2342
   48MOL   C104 9598   5.333   6.753   7.015  0.5429 -0.6891 -0.8162
   48MOL   C105 9599   5.482   6.769   6.992  0.4854  0.0259  0.6806
   48MOL   N106 9600   5.520   6.899   7.041 -0.3914  0.1834 -0.6605
   48MOL   H107 9601   5.298   6.768   7.117 -2.6172 -1.0461 -1.7961
   48MOL   H108 9602   5.280   6.819   6.946  0.9897  0.0011 -0.5109
   48MOL   H109 9603   5.540   6.696   7.048  2.3823  0.9330 -0.0688
   48MOL   H110 9604   5.506   6.759   6.886  0.5917 -2.7363  0.9313
   48MOL   H111 9605   5.462   6.978   7.016  0.2677  0.9747  0.2586
   48MOL   C112 9606   5.613   6.939   7.130 -0.2759 -0.1023 -0.5386
   48MOL   O113 9607   5.710   6.870   7.174  0.5319 -0.2493 -0.3272
   48MOL   C114 9608   5.597   7.076   7.190 -0.2514 -0.6753 -0.0546
   48MOL   C115 9609   5.658   7.090   7.329 -0.3111 -0.3697 -0.1486
   48MOL   N116 9610   5.803   7.123   7.327 -0.5950  0.4492  0.3087
   48MOL   H117 9611   5.492   7.102   7.207  0.2644  0.7788  1.0223
   48MOL   H118 9612   5.639   7.156   7.128 -2.6684 -0.0202 -0.9086
   48MOL   H119 9613   5.616   7.170   7.390 -2.4872 -1.0936 -0.6643
   48MOL   H120 9614   5.632   7.001   7.386 -0.1272 -2.2418 -2.8990
   48MOL   H121 9615   5.869   7.048   7.315 -3.0338 -1.8821  1.0925
   48MOL   C122 9616   5.852   7.243   7.347  0.1033 -0.0367 -0.2336
   48MOL   O123 9617   5.786   7.346   7.360  0.1232  0.1829  0.2455
   48MOL   C124 9618   6.002   7.247   7.356  0.3655  0.0820  0.4912
   48MOL   C125 9619   6.065   7.378   7.406  0.6342 -0.6638 -0.4299
   48MOL   N126 9620   6.212   7.386   7.387  0.6629 -0.0807  0.5331
   48MOL   H127 9621   6.040   7.205   7.263 -1.5522  0.8969 -0.7101
   48MOL   H128 9622   6.025   7.172   7.431 -1.3500 -1.2041 -0.2422
   48MOL   H129 9623   6.020   7.464   7.357 -0.5676 -0.5242  0.8813
   48MOL   H130 9624   6.047   7.395   7.512  0.5024  0.2086 -0.5835
   48MOL   H131 9625   6.270   7.355   7.465  1.6228  2.3956  0.8447
   48MOL   C132 9626   6.268   7.390   7.262  0.4274 -0.9714 -0.6545
   48MOL   O133 9627   6.203   7.391   7.162 -0.2017 -0.0234 -0.1010
   48MOL   C134 9628   6.418   7.383   7.256 -0.7388 -0.1556  0.6951
   48MOL   C135 9629   6.465   7.316   7.126 -0.4190 -0.0707  0.0966
   48MOL   N136 9630   6.603   7.267   7.145 -0.0426 -0.0258 -0.2767
   48MOL   H137 9631   6.453   7.339   7.350  2.5849  1.1695  0.1397
   48MOL   H138 9632   6.461   7.483   7.267  0.5998 -0.6896  0.3902
   48MOL   H139 9633   6.393   7.242   7.092 -1.3481  0.1318  1.5670
   48MOL   H140 9634   6.464   7.387   7.043 -0.8928 -2.2885 -1.8267
   48MOL   H141 9635   6.673   7.338   7.166  1.7306 -1.3270 -1.6045
   48MOL   C142 9636   6.647   7.140   7.123  0.1196  0.5993  0.1038
   48MOL   O143 9637   6.569   7.062   7.073  0.1519 -0.7245  0.9324
   48MOL   C144 9638   6.786   7.099   7.165 -0.3205  0.3534  0.8728
   48MOL   C145 9639   6.807   7.095   7.317 -0.3942 -0.5445  0.5036
   48MOL   N146 9640   6.945   7.074   7.362  0.2916  0.2282 -0.6566
   48MOL   H147 9641   6.857   7.164   7.114  0.9907 -2.2599 -0.7175
   48MOL   H148 9642   6.815   7.000   7.130  0.9134  0.7322  0.7889
   48MOL   H149 9643   6.787   7.192   7.363  0.6933  0.0021 -0.1687
   48MOL   H150 9644   6.746   7.017   7.362 -0.9493 -1.2953 -1.5267
   48MOL   H151 9645   7.002   7.151   7.395  1.3027 -0.7511 -0.0468
   48MOL   C152 9646   7.009   6.951   7.366  0.1798 -0.0717 -0.0442
   48MOL   O153 9647   6.960   6.847   7.324 -0.3342 -0.2072  0.2298
   48MOL   C154 9648   7.144   6.951   7.436  0.3873  0.2311  0.0699
   48MOL   C155 9649   7.128   6.984   7.584  0.5003 -0.7498  0.2037
   48MOL   N156 9650   7.243   6.937   7.659  0.2957  0.1793 -0.4406
   48MOL   H157 9651   7.211   7.019   7.385  0.2247 -0.9167 -1.7183
   48MOL   H158 9652   7.193   6.855   7.422 -1.6341 -0.8748  0.3919
   48MOL   H159 9653   7.142   7.090   7.604  0.3146 -0.5723 -0.5818
   48MOL   H160 9654   7.035   6.955   7.634  1.1423  0.3201  2.0988
   48MOL   H161 9655   7.316   7.006   7.673 -0.6316  1.0598  0.1077
   48MOL   C162 9656   7.253   6.808   7.703  0.0060 -0.0069 -0.3845
   48MOL   O163 9657   7.152   6.731   7.702 -0.5541  0.2081  0.3938
   48MOL   C164 9658   7.385   6.755   7.760 -0.0237 -0.7676  0.1386
   48MOL   C165 9659   7.375   6.634   0.071  0.3119 -0.6353 -0.4918
   48MOL   N166 9660   7.323   6.667   0.203  0.3689  0.2925 -0.1521
   48MOL   H167 9661   7.432   6.838   0.034  0.8381 -1.9771  1.2760
   48MOL   H168 9662   7.440   6.730   7.669 -0.9655 -1.3308 -0.2690
   48MOL   H169 9663   7.328   6.549   0.022  0.0509 -0.8154  0.0694
   48MOL   H170 9664   7.474   6.591   0.089  0.8875 -0.6409 -3.3657
   48MOL   H171 9665   7.316   6.766   0.221 -0.6762  0.0771  0.6937
   48MOL   C172 9666   7.265   6.581   0.285 -0.3054  0.4365  0.3826
   48MOL   O173 9667   7.247   6.462   0.258  0.2445 -1.1308  0.1676
   48MOL   C174 9668   7.206   6.643   0.413 -0.2359  0.9355 -1.0837
   48MOL   C175 9669   7.220   6.546   0.534  0.0576  0.6472 -0.3645
   48MOL   N176 9670   7.157   6.598   0.655 -0.3652  0.1163 -0.5126
   48MOL   H177 9671   7.099   6.658   0.397 -0.2763  0.6116 -1.1320
   48MOL   H178 9672   7.257   6.739   0.424  0.7565  0.0883  2.3795
   48MOL   H179 9673   7.175   6.451   0.505 -1.1415  1.4524 -1.1835
   48MOL   H180 9674   7.326   6.529   0.550 -0.1116 -0.3771 -0.3252
   48MOL   H181 9675   7.127   6.694   0.649  0.6711  0.3747 -1.8541
   48MOL   C182 9676   7.154   6.528   0.767 -0.1655 -0.2411 -0.3175
   48MOL   O183 9677   7.173   6.409   0.765  0.1900 -0.5188 -0.1312
   48MOL   C184 9678   7.122   6.607   0.896  0.0546 -0.5388 -0.6639
   48MOL   C185 9679   7.177   6.543   1.026  0.1085  0.1153 -0.3980
   48MOL   N186 9680   7.142   6.614   1.153  0.0948  0.4093  0.5699
   48MOL   H187 9681   7.013   6.608   0.905  0.1580 -0.5214  0.7804
   48MOL   H188 9682   7.144   6.713   0.881 -1.5774 -0.1336 -0.3193
   48MOL   H189 9683   7.148   6.441   1.052  0.9570 -0.1572 -0.4960
   48MOL   H190 9684   7.285   6.545   1.009  0.2193  1.8454  0.3956
   48MOL   H191 9685   7.045   6.636   1.171  0.4873  1.7577  1.0426
   48MOL   C192 9686   7.236   6.681   1.226  0.1211  0.2078  0.1543
   48MOL   O193 9687   7.356   6.678   1.203  0.6692  0.0376 -0.1780
   48MOL   C194 9688   7.181   6.756   1.345 -0.1358  0.2293  0.3294
   48MOL   C195 9689   7.256   6.887   1.374 -0.0525  0.4706 -0.4594
   48MOL   N196 9690   7.221   6.994   1.280  0.0747  0.4633  0.2429
   48MOL   H197 9691   7.077   6.782   1.326  0.2150  1.0437 -0.5257
   48MOL   H198 9692   7.190   6.693   1.433  0.7178  0.0333  0.1030
   48MOL   H199 9693   7.237   6.922   1.475 -1.6925  0.2064 -0.6544
   48MOL   H200 9694   7.358   6.855   1.353 -0.3370  0.9743 -2.7845
   48MOL   H201 9695   7.302   7.055   1.281  1.1828 -0.9297  3.0102
   48MOL   H202 9696   7.226   6.951   1.188  0.0205 -1.0968  0.9507
   49MOL     C1 9697   3.968   2.096   2.941  0.4958 -0.8959  0.8420
   49MOL     O2 9698   4.061   2.045   2.874  0.3177  0.0477 -0.0972
   49MOL     C3 9699   3.922   2.037   3.074 -0.8859 -0.4727  0.4487
   49MOL     C4 9700   4.022   1.942   3.135  0.0156 -0.7557  0.4495
   49MOL     N5 9701   4.029   1.818   3.069 -0.5209  0.6567  0.2679
   49MOL     H6 9702   3.833   1.975   3.061 -0.3214 -1.5293  1.5587
   49MOL     H7 9703   3.906   2.119   3.145  1.1797  0.4851 -0.1677
   49MOL     H8 9704   4.008   1.934   3.243  1.9128  0.0670  0.7686
   49MOL     H9 9705   4.123   1.979   3.122 -0.5546 -0.0731 -2.5558
   49MOL    H10 9706   4.009   1.820   2.970  1.8933  3.8563 -0.2714
   49MOL    H11 9707   3.908   2.182   2.912  1.5991 -0.6643 -0.8627
   49MOL    C12 9708   4.075   1.701   3.115  0.1135 -0.0109 -0.5926
   49MOL    O13 9709   4.083   1.608   3.038  0.4106  0.9197 -0.1374
   49MOL    C14 9710   4.107   1.683   3.261  0.4065 -0.5397 -0.2664
   49MOL    C15 9711   4.137   1.531   3.294 -0.7102  0.0995  0.1484
   49MOL    N16 9712   4.224   1.516   3.409  0.2967 -0.0777 -0.1052
   49MOL    H17 9713   4.030   1.712   3.332  1.3703 -2.1518  1.4963
   49MOL    H18 9714   4.195   1.742   3.284 -0.0417 -0.5474  1.5169
   49MOL    H19 9715   4.047   1.470   3.292 -1.1925  0.8018  0.3277
   49MOL    H20 9716   4.198   1.483   3.217  1.5373  0.6406  1.5183
   49MOL    H21 9717   4.270   1.599   3.443  0.6957 -0.0679 -0.6709
   49MOL    C22 9718   4.263   1.399   3.462  0.1588  0.4173  0.3555
   49MOL    O23 9719   4.214   1.290   3.426 -0.5641  0.2210 -0.3285
   49MOL    C24 9720   4.363   1.405   3.582  0.2272 -0.2809 -0.7308
   49MOL    C25 9721   4.438   1.274   3.594 -0.1960  0.0764 -0.1649
   49MOL    N26 9722   4.389   1.203   3.713  0.0670  0.2814 -0.2838
   49MOL    H27 9723   4.318   1.427   3.678 -1.5767 -2.0386 -1.1535
   49MOL    H28 9724   4.442   1.480   3.567 -0.1045 -0.3655 -3.1875
   49MOL    H29 9725   4.438   1.211   3.505 -0.9614  1.0006 -0.8360
   49MOL    H30 9726   4.543   1.301   3.607 -1.0466  4.2449 -0.9897
   49MOL    H31 9727   4.366   1.257   3.795 -0.7753  1.2997 -1.1839
   49MOL    C32 9728   4.383   1.068   3.731  0.0817 -0.1250 -0.2618
   49MOL    O33 9729   4.417   0.990   3.642  0.0152  0.3594 -0.1467
   49MOL    C34 9730   4.329   1.017   3.866  0.7110  0.2104  0.7022
   49MOL    C35 9731   4.310   0.864   3.890 -0.2214  0.5299 -0.2321
   49MOL    N36 9732   4.167   0.822   3.906  0.2766 -0.4359 -0.4306
   49MOL    H37 9733   4.227   1.050   3.888 -0.3345 -2.7035  0.5661
   49MOL    H38 9734   4.399   1.062   3.936  3.0378  0.0149 -1.4580
   49MOL    H39 9735   4.362   0.806   3.814  0.4125  2.4136 -1.2742
   49MOL    H40 9736   4.363   0.836   3.981 -0.9346 -1.8795 -0.5288
   49MOL    H41 9737   4.134   0.753   3.841  0.0912 -0.5216 -0.2471
   49MOL    C42 9738   4.078   0.852   4.002 -0.2416  0.8097 -0.2069
   49MOL    O43 9739   4.112   0.925   4.096  0.5302 -0.2316  0.1347
   49MOL    C44 9740   3.937   0.795   3.983  0.3143  0.3984 -0.3139
   49MOL    C45 9741   3.917   0.663   4.057 -0.4108 -0.4043 -0.0341
   49MOL    N46 9742   3.916   0.685   4.203  0.0582 -0.0747 -0.3509
   49MOL    H47 9743   3.861   0.873   3.990 -0.0945 -0.0722  0.4806
   49MOL    H48 9744   3.918   0.782   3.876  0.7664  0.9809 -0.4713
   49MOL    H49 9745   3.833   0.601   4.026 -0.7286  0.3034 -0.6050
   49MOL    H50 9746   4.001   0.597   4.038  0.6969  0.5586  1.3880
   49MOL    H51 9747   4.003   0.654   4.243  0.3910 -1.2181 -1.9194
   49MOL    C52 9748   3.834   0.754   4.269  0.1684 -0.2517 -0.5834
   49MOL    O53 9749   3.733   0.806   4.222  0.0527  0.4620  0.3032
   49MOL    C54 9750   3.870   0.774   4.418 -0.3008  0.8248  1.0140
   49MOL    C55 9751   3.759   0.844   4.505  0.1439 -0.4338 -0.6271
   49MOL    N56 9752   3.773   0.984   4.507  0.6046  0.0311  0.0253
   49MOL    H57 9753   3.878   0.673   4.456  0.1075 -0.1366 -1.5077
   49MOL    H58 9754   3.968   0.822   4.428  1.7049 -2.7009 -1.0333
   49MOL    H59 9755   3.771   0.818   4.610  0.8424  0.8256 -0.3826
   49MOL    H60 9756   3.656   0.824   4.476 -0.3713  1.2057  0.0046
   49MOL    H61 9757   3.713   1.033   4.442  2.0454  0.7298 -0.7917
   49MOL    C62 9758   3.879   1.050   4.563  0.6778  0.4313  0.3082
   49MOL    O63 9759   3.956   0.999   4.641  0.7650  0.6312 -0.5594
   49MOL    C64 9760   3.898   1.192   4.527 -0.6037 -0.1736 -0.3567
   49MOL    C65 9761   4.020   1.263   4.594 -0.0397 -0.0597  0.1792
   49MOL    N66 9762   4.148   1.251   4.520  0.4176  0.3344  0.3880
   49MOL    H67 9763   3.900   1.204   4.418 -0.1471  1.2428 -0.2048
   49MOL    H68 9764   3.805   1.243   4.551 -1.0202 -0.9213 -0.3959
   49MOL    H69 9765   3.992   1.366   4.615  0.2508  0.1479 -0.4598
   49MOL    H70 9766   4.033   1.235   4.699  0.0879  0.7463  0.3796
   49MOL    H71 9767   4.225   1.201   4.563 -1.5025 -1.3336  2.0130
   49MOL    C72 9768   4.185   1.311   4.403  0.2114 -0.3150 -0.4927
   49MOL    O73 9769   4.112   1.388   4.341  0.2387 -0.1626  0.0738
   49MOL    C74 9770   4.331   1.289   4.348  0.5986 -0.1798  0.3305
   49MOL    C75 9771   4.328   1.281   4.195 -0.2688  0.4624  0.1070
   49MOL    N76 9772   4.317   1.412   4.135  0.2466 -0.3546  0.0138
   49MOL    H77 9773   4.392   1.370   4.388  0.1629  0.0977  0.4311
   49MOL    H78 9774   4.372   1.202   4.399  1.3264 -0.7835 -1.2435
   49MOL    H79 9775   4.422   1.253   4.148 -0.8055 -3.5697  1.2845
   49MOL    H80 9776   4.252   1.215   4.156  0.5122 -1.7257  2.1801
   49MOL    H81 9777   4.299   1.491   4.195 -0.6995  0.4436 -1.2953
   49MOL    C82 9778   4.281   1.438   4.006  0.5880  0.2842 -0.0833
   49MOL    O83 9779   4.273   1.350   3.921 -0.1427  0.0675 -0.1271
   49MOL    C84 9780   4.233   1.580   3.977  0.2592 -0.8296  0.0052
   49MOL    C85 9781   4.077   1.596   3.987 -0.1383 -0.6265 -0.2205
   49MOL    N86 9782   4.030   1.587   4.126  0.4108  0.6453  0.6731
   49MOL    H87 9783   4.271   1.660   4.041  0.6206 -0.9547 -0.0542
   49MOL    H88 9784   4.266   1.599   3.875 -1.9343 -1.9095 -0.9289
   49MOL    H89 9785   4.049   1.686   3.933 -0.1795 -0.1166  0.6342
   49MOL    H90 9786   4.041   1.516   3.922  0.6629  0.3375 -1.8750
   49MOL    H91 9787   4.082   1.624   4.205 -1.2111 -0.3059  2.2373
   49MOL    C92 9788   3.905   1.569   4.157  0.0620  0.4648 -0.1590
   49MOL    O93 9789   3.821   1.538   4.072 -0.7234  0.1992  0.7334
   49MOL    C94 9790   3.853   1.580   4.300 -0.1903  0.3453 -0.0775
   49MOL    C95 9791   3.870   1.724   4.359  0.0350 -0.1451  0.6328
   49MOL    N96 9792   3.758   1.820   4.330  0.2589  0.2377 -0.0224
   49MOL    H97 9793   3.749   1.549   4.306  0.1585 -0.5959  1.3088
   49MOL    H98 9794   3.910   1.519   4.370 -0.3217  0.8276  0.4544
   49MOL    H99 9795   3.858   1.706   4.466 -0.3858  0.6046  0.7150
   49MOL   H100 9796   3.969   1.769   4.347  0.3727 -1.2946 -1.1652
   49MOL   H101 9797   3.786   1.909   4.292  1.8595 -0.1567  0.1836
   49MOL   C102 9798   3.632   1.815   4.373  0.1238  0.3172 -0.1871
   49MOL   O103 9799   3.572   1.714   4.406 -0.0966  0.2294  0.0980
   49MOL   C104 9800   3.546   1.939   4.366 -0.5021 -0.3226 -0.2605
   49MOL   C105 9801   3.506   1.980   4.515  0.0676  0.2376 -0.3155
   49MOL   N106 9802   3.621   2.027   4.594 -0.0537 -0.1996  0.6355
   49MOL   H107 9803   3.461   1.909   4.304 -0.5523 -0.4729 -0.1209
   49MOL   H108 9804   3.593   2.022   4.314 -1.2630  0.7659  0.7778
   49MOL   H109 9805   3.454   2.074   4.494  0.0494 -0.0511 -1.5816
   49MOL   H110 9806   3.442   1.915   4.575  0.3916  0.3952  0.2025
   49MOL   H111 9807   3.688   2.093   4.557 -0.2423  0.6052  1.6969
   49MOL   C112 9808   3.670   1.961   4.700 -0.7679  0.0573  0.3061
   49MOL   O113 9809   3.605   1.873   4.759 -0.2030 -0.1225 -0.4661
   49MOL   C114 9810   3.800   2.011   4.751  0.0155 -0.0611 -0.2175
   49MOL   C115 9811   3.865   1.922   4.860  0.3072 -0.3406 -0.0081
   49MOL   N116 9812   3.934   1.805   4.807 -0.1628 -0.0248  0.3384
   49MOL   H117 9813   3.791   2.110   4.795 -1.0093 -1.0568  1.9183
   49MOL   H118 9814   3.861   2.015   4.661  1.7082 -1.7069  0.8249
   49MOL   H119 9815   3.946   1.976   4.909  0.4827  0.4441 -1.1430
   49MOL   H120 9816   3.786   1.902   4.932 -1.2789  0.7933 -1.3994
   49MOL   H121 9817   3.904   1.715   4.842  0.7710 -0.2123  0.6615
   49MOL   C122 9818   4.040   1.803   4.724  0.5475 -0.1364 -0.2188
   49MOL   O123 9819   4.083   1.905   4.677  0.3007 -0.0777  0.2329
   49MOL   C124 9820   4.106   1.668   4.686 -0.0657 -0.2048  0.2010
   49MOL   C125 9821   4.156   1.648   4.540  0.6825  0.0270  0.5408
   49MOL   N126 9822   4.239   1.755   4.492 -0.5823  0.1827  0.2470
   49MOL   H127 9823   4.031   1.590   4.700 -0.3334  0.1839  1.0221
   49MOL   H128 9824   4.194   1.673   4.750 -0.1368  1.5236  0.1943
   49MOL   H129 9825   4.225   1.564   4.552 -0.0581 -0.7447 -0.5060
   49MOL   H130 9826   4.076   1.622   4.472 -1.2743  3.0804  1.5704
   49MOL   H131 9827   4.239   1.841   4.545  0.7471  0.1207  0.3533
   49MOL   C132 9828   4.287   1.770   4.370  0.0758  0.2428 -0.6839
   49MOL   O133 9829   4.280   1.675   4.289 -0.4469 -0.4680 -0.1332
   49MOL   C134 9830   4.356   1.903   4.323 -0.0665  0.9539 -0.1976
   49MOL   C135 9831   4.332   1.945   4.185  0.4451 -0.5639  0.0262
   49MOL   N136 9832   4.418   2.065   4.157  0.0322  0.4240 -0.7714
   49MOL   H137 9833   4.463   1.885   4.328 -0.6439 -2.3750  1.3400
   49MOL   H138 9834   4.327   1.976   4.399 -2.2162 -1.0283  0.9841
   49MOL   H139 9835   4.368   1.863   4.123  1.0050  0.6452 -1.2792
   49MOL   H140 9836   4.225   1.962   4.180  0.3317 -0.5681  2.1766
   49MOL   H141 9837   4.518   2.053   4.152 -0.2338 -1.5816 -1.7082
   49MOL   C142 9838   4.361   2.189   4.136 -0.4652 -0.3064  0.6665
   49MOL   O143 9839   4.241   2.197   4.148 -0.0297  0.4699  0.3687
   49MOL   C144 9840   4.442   2.317   4.104 -0.7300 -0.2082  0.0122
   49MOL   C145 9841   4.374   2.446   4.156 -0.5182 -0.4912  0.0685
   49MOL   N146 9842   4.440   2.572   4.113  0.1259 -0.0003 -0.3814
   49MOL   H147 9843   4.450   2.326   3.995  0.8898  0.7472  0.1867
   49MOL   H148 9844   4.546   2.308   4.134 -1.4046  0.2308  2.5519
   49MOL   H149 9845   4.276   2.455   4.108 -1.1997 -1.9497  1.1611
   49MOL   H150 9846   4.352   2.439   4.262  1.4862 -1.5528  0.4203
   49MOL   H151 9847   4.494   2.608   4.190  0.0085 -1.3268  0.3542
   49MOL   C152 9848   4.428   2.630   3.991  0.4423 -0.9224 -0.1088
   49MOL   O153 9849   4.356   2.584   3.903  0.6409 -0.1744 -0.4813
   49MOL   C154 9850   4.491   2.773   3.975 -0.0288  0.5657 -0.1406
   49MOL   C155 9851   4.388   2.888   3.980 -0.5198  0.5015 -0.3331
   49MOL   N156 9852   4.410   2.989   4.083 -0.0232 -0.1502  0.0293
   49MOL   H157 9853   4.542   2.772   3.878  1.0420  3.0620  0.3518
   49MOL   H158 9854   4.581   2.786   4.035 -0.7372  0.4602  0.9507
   49MOL   H159 9855   4.380   2.944   3.887 -0.1824  1.1241  0.0091
   49MOL   H160 9856   4.293   2.839   4.003 -2.6306  4.0817 -1.1322
   49MOL   H161 9857   4.485   3.051   4.054 -1.3630  0.8269 -1.4246
   49MOL   C162 9858   4.325   3.027   4.184  0.3239 -0.0609 -0.3868
   49MOL   O163 9859   4.222   2.971   4.211  0.0442  0.0223  0.1820
   49MOL   C164 9860   4.361   3.159   4.257 -0.7727  0.2739  1.1450
   49MOL   C165 9861   4.302   3.187   4.397 -0.1133  0.4672 -0.6844
   49MOL   N166 9862   4.187   3.279   4.408 -0.0116 -0.3667  0.4262
   49MOL   H167 9863   4.337   3.247   4.196  0.7855  0.6682  1.0798
   49MOL   H168 9864   4.469   3.151   4.267 -0.6685  0.8228  0.5356
   49MOL   H169 9865   4.282   3.091   4.445  0.3475  1.5268  1.7025
   49MOL   H170 9866   4.384   3.229   4.454 -0.4236  0.1482  0.0027
   49MOL   H171 9867   4.098   3.242   4.377 -1.4970  0.2972  3.6637
   49MOL   C172 9868   4.194   3.413   4.417  0.7595 -0.0014 -0.1523
   49MOL   O173 9869   4.301   3.471   4.397 -0.1722  0.1210 -0.6819
   49MOL   C174 9870   4.063   3.487   4.443  0.5490  1.0074  0.0820
   49MOL   C175 9871   4.071   3.632   4.481 -0.0376 -0.0597 -0.6716
   49MOL   N176 9872   3.939   3.682   4.508  0.0052  0.2313 -0.2111
   49MOL   H177 9873   4.008   3.437   4.523  0.2686 -2.7791 -2.3499
   49MOL   H178 9874   4.004   3.484   4.351  0.4025 -1.0026  0.2253
   49MOL   H179 9875   4.138   3.635   4.568 -3.5113  0.0970  2.1291
   49MOL   H180 9876   4.116   3.694   4.404 -1.1022  2.3663  0.5946
   49MOL   H181 9877   3.911   3.677   4.605  2.2195  0.2973  0.4515
   49MOL   C182 9878   3.845   3.712   4.411 -0.1259  0.0425 -0.9008
   49MOL   O183 9879   3.877   3.714   4.292  0.2219 -0.2114  0.8125
   49MOL   C184 9880   3.701   3.747   4.451 -0.1780 -0.1781  0.1983
   49MOL   C185 9881   3.656   3.890   4.422  0.4303  0.3860 -0.0940
   49MOL   N186 9882   3.594   3.907   4.290  0.0526 -0.1950  0.0648
   49MOL   H187 9883   3.690   3.729   4.558  1.3261  0.1555  0.4236
   49MOL   H188 9884   3.627   3.676   4.413  1.0322 -0.9125 -0.8251
   49MOL   H189 9885   3.571   3.911   4.487  1.1992  2.6797  0.2426
   49MOL   H190 9886   3.723   3.970   4.455 -1.0143  0.9532  1.5357
   49MOL   H191 9887   3.548   3.826   4.252  2.7795 -1.4084 -0.7964
   49MOL   C192 9888   3.614   4.015   4.216  0.4206 -0.0907 -0.0772
   49MOL   O193 9889   3.653   4.117   4.266  0.4888 -0.2715 -0.4178
   49MOL   C194 9890   3.590   4.001   4.066  0.0032 -0.7994 -0.6742
   49MOL   C195 9891   3.537   4.129   3.990  0.8464 -0.0584  0.4193
   49MOL   N196 9892   3.641   4.230   3.985 -0.5713 -0.4302 -0.1400
   49MOL   H197 9893   3.684   3.972   4.020  2.0330  2.5867  1.1712
   49MOL   H198 9894   3.511   3.926   4.056 -1.5998  1.2532 -4.1906
   49MOL   H199 9895   3.517   4.114   3.884 -0.9726 -0.2509  0.7708
   49MOL   H200 9896   3.450   4.160   4.049  0.8953 -0.8956  0.9428
   49MOL   H201 9897   3.655   4.244   4.084  0.6858 -1.2293 -0.1857
   49MOL   H202 9898   3.583   4.309   3.959  0.4078  1.3354  2.7440
   50MOL     C1 9899   1.156   3.223   6.412  0.0555 -0.0117  0.3982
   50MOL     O2 9900   1.208   3.334   6.393  0.2208  0.5612 -0.4516
   50MOL     C3 9901   1.144   3.129   6.299 -0.1726  1.2152 -0.3537
   50MOL     C4 9902   1.129   3.187   6.155 -0.3767  0.1143  0.0735
   50MOL     N5 9903   1.255   3.239   6.102 -0.5179 -0.4128  0.2202
   50MOL     H6 9904   1.056   3.071   6.325  0.2349  1.0005  0.5623
   50MOL     H7 9905   1.220   3.051   6.305  0.0469  1.5273  1.1404
   50MOL     H8 9906   1.054   3.264   6.168  0.3603  1.2417 -2.0642
   50MOL     H9 9907   1.079   3.132   6.075  2.0230  0.6466 -1.8830
   50MOL    H10 9908   1.309   3.292   6.170 -0.8447  0.7423 -0.4138
   50MOL    H11 9909   1.101   3.200   6.503 -0.8865  1.1003  0.1286
   50MOL    C12 9910   1.289   3.258   5.974  0.0704  0.5228 -0.4091
   50MOL    O13 9911   1.225   3.207   5.880  0.2687  0.2144  0.0468
   50MOL    C14 9912   1.400   3.358   5.941 -0.5850  0.6709  0.7210
   50MOL    C15 9913   1.372   3.496   5.995  0.1280  0.0474 -0.0350
   50MOL    N16 9914   1.462   3.545   6.096  0.2493  0.6262 -0.1460
   50MOL    H17 9915   1.394   3.368   5.833 -1.2340  0.9237  0.7778
   50MOL    H18 9916   1.498   3.321   5.970 -1.2880 -3.4505 -1.6781
   50MOL    H19 9917   1.367   3.568   5.914  0.4055 -0.3758 -0.4315
   50MOL    H20 9918   1.280   3.507   6.052  0.6528  0.6566  0.6978
   50MOL    H21 9919   1.494   3.639   6.079  1.2899  0.7175  2.2338
   50MOL    C22 9920   1.498   3.490   6.216  0.4447 -0.4947  0.1881
   50MOL    O23 9921   1.474   3.373   6.247  0.6101 -0.1594 -0.6854
   50MOL    C24 9922   1.562   3.583   6.313  0.5147 -0.8227 -0.6380
   50MOL    C25 9923   1.470   3.607   6.444 -0.3118 -0.2636 -0.0794
   50MOL    N26 9924   1.543   3.665   6.545  0.1299  0.2502 -0.6047
   50MOL    H27 9925   1.576   3.678   6.262 -0.5080 -0.7461 -0.7947
   50MOL    H28 9926   1.659   3.537   6.331  0.3032 -1.8397 -1.9905
   50MOL    H29 9927   1.401   3.682   6.406  0.9749  0.5874 -0.7834
   50MOL    H30 9928   1.418   3.516   6.475 -0.6542  0.6741  2.1785
   50MOL    H31 9929   1.643   3.655   6.540  0.2958  0.8627  0.9924
   50MOL    C32 9930   1.483   3.741   6.639 -0.3297 -0.1205 -0.2949
   50MOL    O33 9931   1.360   3.730   6.661  0.2862  0.5321 -0.2714
   50MOL    C34 9932   1.571   3.825   6.726 -0.1942 -0.0433  0.1969
   50MOL    C35 9933   1.556   3.817   6.878  0.0200 -0.7821 -0.3654
   50MOL    N36 9934   1.424   3.872   6.925  0.7796  0.0549  0.5589
   50MOL    H37 9935   1.575   3.930   6.696 -2.9365  0.0730  0.1212
   50MOL    H38 9936   1.674   3.798   6.707 -0.4740 -0.8178 -0.2365
   50MOL    H39 9937   1.565   3.715   6.916 -0.2179 -0.1546  1.4049
   50MOL    H40 9938   1.637   3.877   6.919 -2.0776  2.6390 -1.0038
   50MOL    H41 9939   1.348   3.806   6.927  1.0416 -0.2204  2.4386
   50MOL    C42 9940   1.386   4.001   6.927 -0.1523 -0.1099  0.4346
   50MOL    O43 9941   1.266   4.030   6.924 -0.5725 -0.1483  0.0940
   50MOL    C44 9942   1.497   4.111   6.928 -0.1282  0.2860 -0.4431
   50MOL    C45 9943   1.442   4.247   6.957 -0.3632 -0.2634  0.1352
   50MOL    N46 9944   1.387   4.309   6.833  0.4834  0.3512 -0.2995
   50MOL    H47 9945   1.556   4.087   7.017 -0.6557  0.2191 -0.1114
   50MOL    H48 9946   1.573   4.108   6.850  0.0998  1.2444 -0.2653
   50MOL    H49 9947   1.358   4.249   7.027 -0.0113  1.3430  0.5359
   50MOL    H50 9948   1.524   4.300   7.006 -0.8761 -0.8373  1.6169
   50MOL    H51 9949   1.387   4.251   6.750 -0.0482 -1.9864  1.3167
   50MOL    C52 9950   1.328   4.430   6.825 -0.5131  0.8842  0.1303
   50MOL    O53 9951   1.319   4.509   6.921 -0.1169 -0.1689 -0.4380
   50MOL    C54 9952   1.283   4.466   6.682  0.4857 -0.1899  0.2307
   50MOL    C55 9953   1.231   4.614   6.679  0.5887  0.0617  0.0780
   50MOL    N56 9954   1.353   4.707   6.680  0.0427  0.0008 -0.7442
   50MOL    H57 9955   1.364   4.454   6.610  2.6800  0.0591  2.5751
   50MOL    H58 9956   1.206   4.395   6.652 -0.1527 -0.6272  2.8413
   50MOL    H59 9957   1.156   4.636   6.755 -1.6681  0.6343 -2.2583
   50MOL    H60 9958   1.183   4.642   6.585 -0.2063  1.2731  0.8253
   50MOL    H61 9959   1.404   4.702   6.767  0.2096  0.7646 -0.7920
   50MOL    C62 9960   1.391   4.788   6.581 -0.4231 -0.0502 -0.0057
   50MOL    O63 9961   1.350   4.779   6.462  0.3565 -0.0712 -0.1444
   50MOL    C64 9962   1.498   4.888   6.617  0.2032 -0.3819  0.9645
   50MOL    C65 9963   1.435   5.023   6.663  0.3823 -0.1275 -0.1451
   50MOL    N66 9964   1.341   5.004   6.767  0.4038 -0.2535  0.5414
   50MOL    H67 9965   1.569   4.851   6.691  1.2754 -0.2957 -0.0095
   50MOL    H68 9966   1.549   4.905   6.522 -1.1012 -3.8311 -0.4661
   50MOL    H69 9967   1.517   5.087   6.695 -0.6325  1.7330 -1.1392
   50MOL    H70 9968   1.384   5.075   6.581 -1.6673 -1.1896  0.4164
   50MOL    H71 9969   1.247   5.008   6.730  1.7920 -1.3603 -3.2101
   50MOL    C72 9970   1.373   4.998   6.902 -0.4519  0.7086  0.2177
   50MOL    O73 9971   1.491   4.984   6.937 -0.2455 -0.3300 -0.4494
   50MOL    C74 9972   1.261   4.970   7.000 -0.4098 -0.4221  0.6823
   50MOL    C75 9973   1.274   5.036   7.136  0.5560  0.5089 -0.4888
   50MOL    N76 9974   1.387   4.992   7.215  0.3434  0.0065 -0.3856
   50MOL    H77 9975   1.170   4.994   6.944  0.8810  1.4494 -0.6369
   50MOL    H78 9976   1.259   4.862   7.015  0.4743 -0.4454  0.6447
   50MOL    H79 9977   1.292   5.143   7.129  0.7808  0.3013 -4.0687
   50MOL    H80 9978   1.183   5.021   7.194  0.9949 -2.3644 -0.4520
   50MOL    H81 9979   1.468   4.970   7.159 -0.4974 -1.0498 -1.2209
   50MOL    C82 9980   1.391   4.985   7.345  0.3714 -0.8350  0.5761
   50MOL    O83 9981   1.290   5.002   7.408  0.3419  0.2760  0.2821
   50MOL    C84 9982   1.529   4.959   7.406 -0.4207 -0.2617 -0.2840
   50MOL    C85 9983   1.572   5.080   7.493 -0.5249 -0.5301  0.2179
   50MOL    N86 9984   1.467   5.139   7.578  0.0273  0.6319 -0.1309
   50MOL    H87 9985   1.527   4.864   7.458 -0.6924 -0.2505 -0.2718
   50MOL    H88 9986   1.600   4.930   7.328 -1.4258 -2.3299 -0.4647
   50MOL    H89 9987   1.663   5.062   7.550  0.0290 -0.7297 -0.7257
   50MOL    H90 9988   1.608   5.155   7.422  3.4476 -0.6880  1.9750
   50MOL    H91 9989   1.375   5.100   7.567  1.4409 -3.0019  0.3300
   50MOL    C92 9990   1.475   5.219   7.682  0.5492  0.7157 -0.4670
   50MOL    O93 9991   1.569   5.279   7.724 -0.1807  0.1145  0.4467
   50MOL    C94 9992   1.344   5.222   7.767 -0.2150 -0.3798  0.5659
   50MOL    C95 9993   1.307   5.367   0.014 -0.8144  0.0813  0.2401
   50MOL    N96 9994   1.188   5.378   0.104 -1.0914 -0.2975  0.1638
   50MOL    H97 9995   1.257   5.166   7.732  0.5353 -0.4189 -1.2903
   50MOL    H98 9996   1.363   5.196   0.091  2.2582  1.4445  0.6145
   50MOL    H99 9997   1.391   5.419   0.060 -0.4405  0.6457 -1.0679
   50MOL   H100 9998   1.300   5.419   7.699  3.1171  1.9389  0.8808
   50MOL   H101 9999   1.197   5.421   0.195  0.2238  0.1238 -0.1580
   50MOL   C10210000   1.062   5.371   0.050 -0.0132  0.1315 -0.0074
   50MOL   O10310001   1.044   5.345   7.713 -0.7482 -0.1200 -0.3142
   50MOL   C10410002   0.942   5.400   0.144  0.4906  0.1411  0.6041
   50MOL   C10510003   0.816   5.323   0.107  0.0206 -0.0159 -0.2233
   50MOL   N10610004   0.748   5.268   0.223 -0.6296  0.5384  0.6828
   50MOL   H10710005   0.929   5.508   0.144  2.9246  0.4560  0.9171
   50MOL   H10810006   0.976   5.378   0.246 -0.7472 -1.3783  0.7269
   50MOL   H10910007   0.744   5.395   0.068 -0.0458 -1.4690 -2.9305
   50MOL   H11010008   0.847   5.241   0.042  1.9670 -0.8139  1.6195
   50MOL   H11110009   0.776   5.307   0.312  2.2246  0.9044 -0.3338
   50MOL   C11210010   0.694   5.152   0.238  0.1995  0.2813  0.1162
   50MOL   O11310011   0.669   5.079   0.141 -0.1787  0.9615 -0.3702
   50MOL   C11410012   0.659   5.099   0.378  0.3410 -1.0677  0.0259
   50MOL   C11510013   0.522   5.162   0.426  0.1433  0.1954  0.8976
   50MOL   N11610014   0.500   5.138   0.566  0.1446 -0.0875 -0.4169
   50MOL   H11710015   0.730   5.144   0.448 -0.1328  0.9332 -0.7497
   50MOL   H11810016   0.656   4.990   0.373 -0.5296 -1.0174 -0.6462
   50MOL   H11910017   0.527   5.267   0.397 -0.7276  0.3278  1.2017
   50MOL   H12010018   0.435   5.127   0.369  0.8898 -1.6158  0.8267
   50MOL   H12110019   0.547   5.056   0.603 -1.4613 -0.9476 -0.2068
   50MOL   C12210020   0.413   5.211   0.644  0.1135  0.3067 -0.5400
   50MOL   O12310021   0.353   5.306   0.596 -0.4225 -0.1456 -0.6485
   50MOL   C12410022   0.388   5.174   0.793 -0.2464  0.2168 -0.3894
   50MOL   C12510023   0.243   5.178   0.846 -0.3552  0.3230 -0.2560
   50MOL   N12610024   0.223   5.126   0.980  0.8569 -0.3874 -0.1710
   50MOL   H12710025   0.435   5.239   0.867 -0.7190  0.7936 -0.5913
   50MOL   H12810026   0.428   5.073   0.793  0.3502  0.4475 -0.2431
   50MOL   H12910027   0.211   5.281   0.862 -1.6072 -0.3812  2.1629
   50MOL   H13010028   0.168   5.138   0.777 -1.4546  0.3817  0.8717
   50MOL   H13110029   0.205   5.189   1.057 -1.8072 -2.4788  1.0054
   50MOL   C13210030   0.206   4.991   1.007  0.0598 -0.0503  0.0490
   50MOL   O13310031   0.213   4.908   0.919 -0.0081  0.3105 -0.6412
   50MOL   C13410032   0.199   4.941   1.152  0.8313  0.0282  0.0917
   50MOL   C13510033   0.147   4.796   1.174 -0.0871  0.9041  0.6587
   50MOL   N13610034   0.195   4.683   1.088  0.2394 -0.5052  0.0631
   50MOL   H13710035   0.123   5.007   1.193  0.0679 -0.8516  0.0932
   50MOL   H13810036   0.286   4.976   1.208  2.7451 -2.6061 -1.1332
   50MOL   H13910037   0.180   4.762   1.272 -1.3356 -2.2074  0.0315
   50MOL   H14010038   0.039   4.794   1.163 -0.0010  0.1115 -0.0154
   50MOL   H14110039   0.247   4.704   1.005  1.8346 -1.2714  0.8439
   50MOL   C14210040   0.143   4.564   1.081 -0.2834  0.0531  0.3101
   50MOL   O14310041   0.051   4.528   1.159 -0.6032 -0.6628 -0.0690
   50MOL   C14410042   0.197   4.472   0.977 -0.0772 -0.1275 -0.3473
   50MOL   C14510043   0.325   4.385   1.017  0.1871 -0.2806 -0.2211
   50MOL   N14610044   0.300   4.279   1.108  0.8992  0.3903  0.1958
   50MOL   H14710045   0.232   4.533   0.894 -2.1457 -0.1092 -1.2492
   50MOL   H14810046   0.117   4.408   0.940 -1.4943 -0.7796  3.6553
   50MOL   H14910047   0.383   4.351   0.931 -0.2190  0.2728 -0.7152
   50MOL   H15010048   0.391   4.449   1.074  0.2738 -0.9456  0.4376
   50MOL   H15110049   0.347   4.284   1.197  0.2176  0.5822  0.5476
   50MOL   C15210050   0.230   4.170   1.087 -0.0781 -0.4709 -0.3409
   50MOL   O15310051   0.170   4.148   0.982  0.3291  0.3558  0.3280
   50MOL   C15410052   0.229   4.073   1.207  0.5265  0.0351 -0.2607
   50MOL   C15510053   0.213   3.936   1.158  0.5391 -0.0092 -0.4441
   50MOL   N15610054   0.078   3.887   1.147  0.2709  0.0680 -0.4518
   50MOL   H15710055   0.142   4.106   1.264  1.6071 -0.7002  1.8803
   50MOL   H15810056   0.323   4.081   1.262 -0.2262  2.1364  0.7578
   50MOL   H15910057   0.260   3.909   1.064 -0.1397  2.4737 -1.5267
   50MOL   H16010058   0.262   3.883   1.241 -3.7516  0.7449  2.7464
   50MOL   H16110059   0.038   3.895   1.055  0.7442  3.1766 -0.4399
   50MOL   C16210060   7.778   3.841   1.252  0.1914  0.1729 -0.3565
   50MOL   O16310061   0.040   3.818   1.359 -0.1903  0.0380 -0.0904
   50MOL   C16410062   7.633   3.823   1.212  0.4178 -0.1895 -0.7749
   50MOL   C16510063   7.530   3.832   1.322  0.0029 -0.1578  0.4418
   50MOL   N16610064   7.538   3.953   1.402 -0.0918  0.7098  0.1231
   50MOL   H16710065   7.621   3.726   1.163 -2.1169 -0.8307  1.0083
   50MOL   H16810066   7.611   3.899   1.137 -0.3669  0.0081 -0.3438
   50MOL   H16910067   7.430   3.829   1.278 -0.8006 -0.4249  2.2356
   50MOL   H17010068   7.533   3.745   1.387 -0.1448 -0.1081  0.5144
   50MOL   H17110069   7.574   4.030   1.348  0.1942  0.4070 -0.1152
   50MOL   C17210070   7.535   3.963   1.532 -0.9294 -0.8043 -0.0647
   50MOL   O17310071   7.481   3.882   1.605 -0.3308  0.0102 -0.2040
   50MOL   C17410072   7.593   4.082   1.598  0.3463  0.0578  0.5022
   50MOL   C17510073   7.497   4.136   1.708 -0.7640 -0.0375 -0.0633
   50MOL   N17610074   7.556   4.139   1.837  0.2277 -0.0190 -0.5343
   50MOL   H17710075   7.622   4.155   1.523  1.2611  0.8010  1.5727
   50MOL   H17810076   7.687   4.048   1.639 -0.0148  0.5294  1.7306
   50MOL   H17910077   7.458   4.237   1.693  0.9994  0.7736  0.7368
   50MOL   H18010078   7.401   4.084   1.702  0.6384 -2.4591 -3.0479
   50MOL   H18110079   7.515   4.063   1.890 -2.3917  0.8739 -1.2539
   50MOL   C18210080   7.637   4.231   1.884  0.0521 -0.6138 -0.9331
   50MOL   O18310081   7.663   4.331   1.817  0.0344 -0.0868 -0.0739
   50MOL   C18410082   7.707   4.205   2.019 -0.1623  0.0540 -0.1596
   50MOL   C18510083   0.082   4.204   2.012 -0.1952 -0.3923 -0.4188
   50MOL   N18610084   0.129   4.072   1.965 -0.5159 -0.5695  0.7259
   50MOL   H18710085   7.675   4.116   2.073 -2.1446  0.0752 -1.2527
   50MOL   H18810086   7.680   4.292   2.079  1.0007 -0.0704  0.5362
   50MOL   H18910087   0.128   4.286   1.958 -0.3031  0.3130  0.5438
   50MOL   H19010088   0.116   4.209   2.116 -0.1824 -1.9806 -0.3350
   50MOL   H19110089   0.151   4.003   2.035 -2.5631 -0.6264  1.3489
   50MOL   C19210090   0.160   4.041   1.838  0.0167 -0.5061 -0.0046
   50MOL   O19310091   0.149   4.124   1.742 -0.1741 -0.1889  0.1563
   50MOL   C19410092   0.226   3.905   1.811 -0.1402  0.1598 -0.2795
   50MOL   C19510093   0.172   3.830   1.686 -0.6825  0.6944 -0.3353
   50MOL   N19610094   0.210   3.896   1.563  0.3281  0.4536 -0.1107
   50MOL   H19710095   0.334   3.914   1.806 -0.0724  0.4892  1.5319
   50MOL   H19810096   0.207   3.844   1.899 -0.1299 -0.0602 -0.4290
   50MOL   H19910097   0.177   3.721   1.682 -0.4790  0.6503  0.9822
   50MOL   H20010098   0.063   3.837   1.693 -0.7067 -0.7046  1.0021
   50MOL   H20110099   0.185   3.992   1.578  2.5867  1.0292  0.1069
   50MOL   H20210100   0.143   3.872   1.491  0.3137 -1.3895  0.4689
   51MOL     C110101   0.225   0.102   0.345 -0.2604 -0.3217 -0.7468
   51MOL     O210102   0.241   0.202   0.418  0.4378 -0.6242 -0.0731
   51MOL     C310103   0.247   7.739   0.382 -0.4665 -0.3270  0.5599
   51MOL     C410104   0.356   7.723   0.491  0.4991 -0.5393 -0.3557
   51MOL     N510105   0.428   7.591   0.486  0.0349  0.7229 -0.2115
   51MOL     H610106   0.289   7.689   0.295 -0.7212 -1.6458  1.1714
   51MOL     H710107   0.156   7.694   0.422  0.5713 -1.2767  1.9238
   51MOL     H810108   0.304   7.720   0.587 -0.6849  0.6500 -0.9483
   51MOL     H910109   0.424   0.029   0.492 -2.7515  2.1276  0.9102
   51MOL    H1010110   0.415   7.535   0.569 -1.6711  1.9057  0.3418
   51MOL    H1110111   0.198   0.116   0.240 -1.6363 -0.7649 -0.4530
   51MOL    C1210112   0.525   7.557   0.400  0.3251 -0.3042  0.1482
   51MOL    O1310113   0.545   7.629   0.299  0.3693  0.5670 -0.7740
   51MOL    C1410114   0.601   7.431   0.416 -0.0726 -0.1381  0.0576
   51MOL    C1510115   0.717   7.408   0.316 -0.3471 -0.6312  0.5007
   51MOL    N1610116   0.680   7.377   0.179  0.1712  0.0104  0.2509
   51MOL    H1710117   0.534   7.345   0.412 -0.4058  0.0365  1.4736
   51MOL    H1810118   0.644   7.428   0.516 -0.8804  0.2762  0.4258
   51MOL    H1910119   0.793   7.486   0.320  0.1455 -1.0316 -0.7364
   51MOL    H2010120   0.776   7.323   0.351  0.8004 -0.0229  0.0699
   51MOL    H2110121   0.704   7.448   0.111 -0.5831  0.1933  0.1764
   51MOL    C2210122   0.637   7.254   0.134 -0.1655 -0.0361 -0.3743
   51MOL    O2310123   0.624   7.166   0.209 -0.2032 -0.2541  0.3637
   51MOL    C2410124   0.594   7.240   7.770  0.4119 -0.1869  0.5856
   51MOL    C2510125   0.664   7.126   7.692  0.0121  0.1850 -0.3824
   51MOL    N2610126   0.805   7.159   7.668  0.7574  0.0141 -0.5713
   51MOL    H2710127   0.603   7.337   7.720 -0.4130  0.6441  2.0241
   51MOL    H2810128   0.487   7.220   7.761  0.6225 -0.8405 -0.5903
   51MOL    H2910129   0.656   7.041   7.760 -1.4637  1.6063  1.2693
   51MOL    H3010130   0.618   7.107   7.595 -1.4063  1.6382 -0.0070
   51MOL    H3110131   0.836   7.253   7.690  2.5803 -1.0716  1.7210
   51MOL    C3210132   0.896   7.071   7.630  0.0707 -0.7242  0.1774
   51MOL    O3310133   0.870   6.953   7.622 -0.3876  0.0198  0.3663
   51MOL    C3410134   1.041   7.124   7.627 -0.4210 -0.0519 -0.0519
   51MOL    C3510135   1.121   7.095   7.753  0.6815 -0.0233  0.8149
   51MOL    N3610136   1.239   7.178   7.775 -0.5740  0.2427  0.0538
   51MOL    H3710137   1.050   7.229   7.598 -1.3357  0.8073  2.6038
   51MOL    H3810138   1.087   7.073   7.542  0.5395  0.9479 -0.1404
   51MOL    H3910139   1.060   7.129   0.056  1.4709  1.2454  0.8881
   51MOL    H4010140   1.139   6.990   7.778  0.0831 -0.3470 -0.1083
   51MOL    H4110141   1.219   7.258   0.053  0.8397 -0.5512  1.6987
   51MOL    C4210142   1.363   7.163   7.731 -0.4668 -0.1412 -0.3617
   51MOL    O4310143   1.400   7.080   7.648  0.0235  0.0524 -0.6438
   51MOL    C4410144   1.467   7.239   0.025  0.5060 -0.0704  0.0020
   51MOL    C4510145   1.581   7.152   0.091  0.0109 -0.1019 -0.0841
   51MOL    N4610146   1.540   7.052   0.190  0.0215 -0.6013  0.3257
   51MOL    H4710147   1.508   7.305   7.729  0.8775 -1.1896 -0.7903
   51MOL    H4810148   1.426   7.311   0.096 -0.0875 -0.2921 -0.1097
   51MOL    H4910149   1.625   7.100   0.006  0.8440 -0.7224  0.7195
   51MOL    H5010150   1.653   7.226   0.128  0.5082 -0.5005 -0.2510
   51MOL    H5110151   1.446   7.064   0.224 -0.0259  0.1089 -0.0566
   51MOL    C5210152   1.602   6.944   0.233  0.0340  0.0632 -0.0518
   51MOL    O5310153   1.716   6.915   0.195 -0.0293  0.4652 -0.2118
   51MOL    C5410154   1.533   6.850   0.324  0.7667  0.5508  0.2690
   51MOL    C5510155   1.616   6.826   0.452  0.1708  0.7143 -0.8226
   51MOL    N5610156   1.555   6.723   0.528 -0.1018 -0.6853 -0.1248
   51MOL    H5710157   1.438   6.892   0.357 -1.0778 -2.1117 -1.3378
   51MOL    H5810158   1.512   6.754   0.275  1.0174 -0.4033  2.0086
   51MOL    H5910159   1.601   6.919   0.508  3.0870  0.2505  0.8355
   51MOL    H6010160   1.722   6.811   0.430  0.1689  1.0545 -1.0693
   51MOL    H6110161   1.464   6.743   0.569 -0.1539  1.6444 -1.2774
   51MOL    C6210162   1.594   6.596   0.527 -0.6154  0.0887 -0.1766
   51MOL    O6310163   1.688   6.551   0.467  0.5466  0.1149  0.9411
   51MOL    C6410164   1.514   6.499   0.618 -0.1775 -0.2602  0.0458
   51MOL    C6510165   1.604   6.392   0.684  0.5009 -0.5200  0.7028
   51MOL    N6610166   1.675   6.449   0.799 -0.0305 -0.3117 -0.3074
   51MOL    H6710167   1.454   6.551   0.693  0.8854  3.2024 -1.3869
   51MOL    H6810168   1.444   6.443   0.556  0.0683  0.3495 -0.7855
   51MOL    H6910169   1.529   6.319   0.716  1.8734 -2.5686 -0.6197
   51MOL    H7010170   1.669   6.338   0.616  0.4176  0.6327 -0.2913
   51MOL    H7110171   1.719   6.539   0.788 -0.6245 -0.1338 -1.2967
   51MOL    C7210172   1.659   6.406   0.921 -0.6713 -0.2444 -0.3569
   51MOL    O7310173   1.613   6.295   0.949 -0.0190 -0.3949  0.1052
   51MOL    C7410174   1.699   6.509   1.031  0.5370  0.0299  0.3159
   51MOL    C7510175   1.773   6.449   1.149  0.5281  0.2301 -0.4440
   51MOL    N7610176   1.914   6.420   1.121 -0.5722  0.5108  0.5385
   51MOL    H7710177   1.759   6.595   1.000 -1.4159  1.7271  1.0339
   51MOL    H7810178   1.612   6.555   1.079  0.6398  0.5474  0.0147
   51MOL    H7910179   1.769   6.512   1.238  1.5658  1.6383 -1.3686
   51MOL    H8010180   1.738   6.350   1.180  1.5232  1.0318  3.5047
   51MOL    H8110181   1.929   6.331   1.075 -0.6368  2.9202 -4.5261
   51MOL    C8210182   2.016   6.501   1.140 -0.2891  0.0764 -0.0050
   51MOL    O8310183   1.998   6.615   1.186 -0.2937 -0.1580 -0.6506
   51MOL    C8410184   2.161   6.462   1.095 -0.5491  0.2642  0.6915
   51MOL    C8510185   2.234   6.578   1.020  0.6612 -0.1097  0.1631
   51MOL    N8610186   2.347   6.539   0.933 -0.7670 -0.7693  0.3551
   51MOL    H8710187   2.227   6.434   1.178 -1.8828  1.0864  2.0672
   51MOL    H8810188   2.156   6.373   1.033 -1.8106  0.2518  0.8016
   51MOL    H8910189   2.166   6.636   0.959 -0.3531  2.2615  3.3786
   51MOL    H9010190   2.258   6.646   1.102 -2.2418  0.0795  0.8990
   51MOL    H9110191   2.340   6.567   0.837  0.2072 -0.1210  0.4688
   51MOL    C9210192   2.457   6.475   0.970 -0.2491  0.0517 -0.4581
   51MOL    O9310193   2.481   6.446   1.090 -0.3424 -1.0328 -0.0038
   51MOL    C9410194   2.547   6.420   0.857  0.2312  0.4183  0.4262
   51MOL    C9510195   2.643   6.313   0.895  0.4842  0.4017 -0.9185
   51MOL    N9610196   2.774   6.369   0.921 -0.0040  0.3268  0.0781
   51MOL    H9710197   2.473   6.370   0.795  2.2897  0.6969 -2.3510
   51MOL    H9810198   2.601   6.489   0.792 -0.3035  0.0257 -0.4377
   51MOL    H9910199   2.600   6.255   0.977  0.0688  1.0998 -0.6309
   51MOL   H10010200   2.644   6.252   0.805 -2.1749  0.2735 -0.9060
   51MOL   H10110201   2.786   6.457   0.969 -1.0158 -0.5314  1.9655
   51MOL   C10210202   2.889   6.305   0.909  0.3161  0.5077 -0.5741
   51MOL   O10310203   2.898   6.192   0.855  0.1268 -0.5334  0.2356
   51MOL   C10410204   3.017   6.363   0.966  0.1968 -0.1154  0.9170
   51MOL   C10510205   3.130   6.257   0.996 -0.3378 -0.9002  0.2454
   51MOL   N10610206   3.098   6.155   1.099  0.1660 -0.0221  0.2528
   51MOL   H10710207   2.989   6.416   1.057  1.4530  2.8615 -0.3582
   51MOL   H10810208   3.067   6.433   0.899  2.4128 -2.3802  0.1554
   51MOL   H10910209   3.151   6.195   0.909 -0.2658 -1.5628  0.7349
   51MOL   H11010210   3.222   6.305   1.027 -1.3588  0.6104  1.0267
   51MOL   H11110211   3.088   6.067   1.050 -1.3701  0.2738  0.0262
   51MOL   C11210212   3.075   6.172   1.233 -0.2384  0.4470  0.3312
   51MOL   O11310213   3.097   6.281   1.285  0.6551 -0.0356  0.4884
   51MOL   C11410214   3.023   6.054   1.309  0.2167 -0.1098  0.3450
   51MOL   C11510215   3.047   6.068   1.458 -0.1304 -0.5563 -0.4224
   51MOL   N11610216   3.183   6.018   1.495 -0.4583  0.1672  0.6194
   51MOL   H11710217   3.053   5.960   1.263  0.9219  1.5234 -2.6196
   51MOL   H11810218   2.917   6.051   1.285  0.5050 -0.8959 -0.8685
   51MOL   H11910219   3.032   6.167   1.500 -2.1914  0.1968 -2.7860
   51MOL   H12010220   2.979   6.000   1.510  0.9294 -1.1221  0.2485
   51MOL   H12110221   3.258   6.086   1.494 -0.4557  0.1639 -0.6157
   51MOL   C12210222   3.211   5.889   1.517  0.2690 -0.4348  0.0019
   51MOL   O12310223   3.121   5.801   1.523 -0.1214  0.4134  0.5249
   51MOL   C12410224   3.360   5.849   1.527 -0.4901 -0.1930  0.7062
   51MOL   C12510225   3.396   5.760   1.409 -0.0652  0.3585  0.0876
   51MOL   N12610226   3.540   5.720   1.406  0.4493 -0.0100 -0.0207
   51MOL   H12710227   3.376   5.799   1.623 -2.3387  1.4839  1.9275
   51MOL   H12810228   3.414   5.943   1.533  1.7457 -1.5117  2.0979
   51MOL   H12910229   3.323   5.679   1.399 -0.6651  0.8082  0.7855
   51MOL   H13010230   3.378   5.820   1.319 -1.0920 -3.4834 -2.3919
   51MOL   H13110231   3.604   5.748   1.479 -0.4788 -1.7215  1.4945
   51MOL   C13210232   3.590   5.667   1.295 -0.4722 -0.2200  0.1927
   51MOL   O13310233   3.512   5.649   1.204 -0.5063  0.1455  0.0689
   51MOL   C13410234   3.741   5.635   1.287  0.3682 -0.3968  0.2017
   51MOL   C13510235   3.773   5.520   1.189  0.4111  0.0958  0.1149
   51MOL   N13610236   3.910   5.469   1.203  0.5308  0.8858  0.0008
   51MOL   H13710237   3.778   5.614   1.387  0.4377  1.3347  0.5660
   51MOL   H13810238   3.798   5.724   1.261  0.2372 -0.7704 -1.4046
   51MOL   H13910239   3.712   5.432   1.210  1.3591 -0.9548 -1.4290
   51MOL   H14010240   3.745   5.559   1.091  1.3799  2.3213  0.6859
   51MOL   H14110241   3.974   5.497   1.276  0.2012  1.9373 -0.1063
   51MOL   C14210242   3.953   5.368   1.126 -0.1501  0.4450 -0.4296
   51MOL   O14310243   3.878   5.312   1.041 -0.1518 -0.6728  0.3096
   51MOL   C14410244   4.102   5.328   1.141  0.0240  0.1163  0.7843
   51MOL   C14510245   4.142   5.188   1.087  0.4868 -0.1058 -0.1587
   51MOL   N14610246   4.118   5.184   0.944  0.2980 -0.1288  0.4813
   51MOL   H14710247   4.141   5.339   1.242  0.5705 -1.2487  0.7361
   51MOL   H14810248   4.166   5.401   1.094  1.0425  0.2159  2.3100
   51MOL   H14910249   4.245   5.176   1.120 -0.2944  1.0730  2.9477
   51MOL   H15010250   4.078   5.109   1.127 -1.3181  1.4731  0.1666
   51MOL   H15110251   4.079   5.261   0.891  1.1508 -0.7067 -1.0267
   51MOL   C15210252   4.177   5.090   0.867 -0.3027 -0.6538  0.2685
   51MOL   O15310253   4.225   4.990   0.921  0.6778 -0.1772  0.1978
   51MOL   C15410254   4.189   5.119   0.717  0.2369  0.1411 -0.8335
   51MOL   C15510255   4.223   4.999   0.634 -0.1303 -0.2237  0.3345
   51MOL   N15610256   4.368   4.975   0.628  0.3223  0.1093 -0.3096
   51MOL   H15710257   4.270   5.190   0.705 -1.3738  1.8847 -1.5899
   51MOL   H15810258   4.099   5.165   0.676 -0.7752  0.6368  1.8231
   51MOL   H15910259   4.164   4.916   0.674 -1.5556  0.4054 -0.4233
   51MOL   H16010260   4.172   5.016   0.539 -1.1424  0.4231  0.9845
   51MOL   H16110261   4.398   4.914   0.703  0.6781  0.3656 -0.2435
   51MOL   C16210262   4.440   5.020   0.524  0.0152 -0.2674 -0.4456
   51MOL   O16310263   4.407   5.085   0.428 -1.1491  0.3592 -0.0961
   51MOL   C16410264   4.584   4.976   0.541  0.3649  0.1973 -0.6069
   51MOL   C16510265   4.681   5.072   0.466  0.0784 -0.0260 -0.5832
   51MOL   N16610266   4.811   5.018   0.464  0.1256  0.2896  0.6368
   51MOL   H16710267   4.597   4.876   0.500  2.7918 -0.2369  1.1128
   51MOL   H16810268   4.608   4.970   0.647 -1.9157 -0.6225 -0.0979
   51MOL   H16910269   4.663   5.079   0.358  1.9532 -0.9444 -0.9794
   51MOL   H17010270   4.674   5.175   0.499  2.5573 -0.7005  2.1930
   51MOL   H17110271   4.830   4.945   0.397  1.1336 -0.7390  2.0085
   51MOL   C17210272   4.916   5.054   0.527 -0.2717 -0.4452 -1.2117
   51MOL   O17310273   4.908   5.127   0.622 -0.1229  0.7462 -0.0129
   51MOL   C17410274   5.042   5.001   0.479  0.4631  0.2383  0.7035
   51MOL   C17510275   5.166   5.092   0.485 -0.2047  0.2381  0.0892
   51MOL   N17610276   5.166   5.205   0.390 -0.4076 -0.8531  0.4287
   51MOL   H17710277   5.021   4.972   0.376  1.9289  1.9166 -0.0944
   51MOL   H17810278   5.051   4.914   0.543 -0.4011  1.9070  3.1690
   51MOL   H17910279   5.172   5.143   0.581  0.3084 -2.8006  1.7313
   51MOL   H18010280   5.260   5.037   0.488 -0.5666 -0.3495  0.6102
   51MOL   H18110281   5.151   5.299   0.424  0.5269 -0.5808  0.0901
   51MOL   C18210282   5.224   5.198   0.270  0.6645  0.4430 -0.2687
   51MOL   O18310283   5.269   5.088   0.232 -0.0396  0.2450  0.4091
   51MOL   C18410284   5.240   5.332   0.198  0.3006  0.4313  0.1500
   51MOL   C18510285   5.236   5.464   0.277  0.6608 -0.0844 -0.3835
   51MOL   N18610286   5.365   5.488   0.342  0.2602  0.0464 -0.1407
   51MOL   H18710287   5.172   5.329   0.112  0.6717 -2.1042 -0.0982
   51MOL   H18810288   5.338   5.339   0.150  0.9022  0.5640  1.3832
   51MOL   H18910289   5.227   5.546   0.206  1.5799 -0.7500 -1.2783
   51MOL   H19010290   5.160   5.468   0.355  1.8389 -1.5968  0.8718
   51MOL   H19110291   5.428   5.546   0.288  0.2702 -0.0944 -0.2807
   51MOL   C19210292   5.386   5.481   0.474 -0.4504  0.0058 -0.2343
   51MOL   O19310293   5.309   5.431   0.552 -0.1724  0.7901 -0.1352
   51MOL   C19410294   5.519   5.537   0.533 -0.1925 -0.5126 -0.1368
   51MOL   C19510295   5.518   5.589   0.671 -0.6683  0.2647  0.1760
   51MOL   N19610296   5.422   5.693   0.686 -0.3556 -0.8370  0.4898
   51MOL   H19710297   5.587   5.453   0.537  1.1891  0.5688 -0.4928
   51MOL   H19810298   5.557   5.597   0.450  1.8594  0.6179  1.5749
   51MOL   H19910299   5.497   5.510   0.744 -0.1506  2.4003  2.7322
   51MOL   H20010300   5.623   5.615   0.686 -0.7218  0.8847 -0.5183
   51MOL   H20110301   5.337   5.664   0.639  0.4843 -3.3342  0.4332
   51MOL   H20210302   5.390   5.707   0.780  1.6271  2.4802  0.7441
   52MOL     C110303   6.990   5.939   7.584 -0.4492 -0.0689  0.1646
   52MOL     O210304   6.876   5.964   7.555 -0.1802 -0.0281 -0.2354
   52MOL     C310305   7.021   5.908   7.731 -0.2894 -0.5959 -0.3268
   52MOL     C410306   7.171   5.902   7.769 -0.0620 -0.1037 -0.0500
   52MOL     N510307   7.246   5.799   7.696  0.3988  0.7359 -0.1919
   52MOL     H610308   6.972   5.815   7.761 -0.5472 -0.2385  0.3536
   52MOL     H710309   6.982   5.986   0.016 -0.1741 -1.2246  0.5035
   52MOL     H810310   7.182   5.880   0.095  1.1541 -0.5418 -0.2572
   52MOL     H910311   7.213   6.003   7.760  2.1246 -0.6787  2.8187
   52MOL    H1010312   7.228   5.700   7.706  1.9668  0.6320  1.8453
   52MOL    H1110313   7.075   5.939   7.517 -0.4744 -0.1298  0.1329
   52MOL    C1210314   7.356   5.829   7.629 -0.8864  0.1386 -0.0618
   52MOL    O1310315   7.383   5.941   7.596  0.5187  0.2729  0.2137
   52MOL    C1410316   7.440   5.709   7.577  0.0749 -0.1821 -0.8802
   52MOL    C1510317   7.550   5.740   7.477 -0.1411 -0.0810  0.3798
   52MOL    N1610318   7.497   5.756   7.345  0.0834 -0.0516  0.2534
   52MOL    H1710319   7.371   5.640   7.530  0.4108  0.2638 -2.0331
   52MOL    H1810320   7.485   5.645   7.652 -2.1355  0.0389  0.7099
   52MOL    H1910321   7.616   5.822   7.506 -0.1220  0.9129 -2.3336
   52MOL    H2010322   7.617   5.654   7.484 -0.2230 -0.1191  0.6764
   52MOL    H2110323   7.401   5.786   7.341  0.5796  1.2800 -2.9745
   52MOL    C2210324   7.544   5.697   7.233  0.0002  0.0625  1.0503
   52MOL    O2310325   7.650   5.635   7.231  0.4164 -0.3816  0.2082
   52MOL    C2410326   7.450   5.703   7.114 -0.0661 -1.2425  0.6800
   52MOL    C2510327   7.506   5.801   7.011  0.1638 -0.7076  0.0948
   52MOL    N2610328   7.414   5.831   6.903  0.3131 -0.3136 -0.4998
   52MOL    H2710329   7.353   5.735   7.151  0.0447  1.2318 -1.0468
   52MOL    H2810330   7.438   5.605   7.066  1.0669 -0.2700 -1.6739
   52MOL    H2910331   7.529   5.887   7.073 -0.1548  0.5346 -1.4931
   52MOL    H3010332   7.606   5.774   6.977 -0.1687  2.3700 -3.5911
   52MOL    H3110333   7.379   5.760   6.839 -1.1051  0.0064 -0.0859
   52MOL    C3210334   7.353   5.950   6.890  0.7696 -0.0909 -0.1691
   52MOL    O3310335   7.368   6.037   6.972 -0.3187  0.1484 -0.1637
   52MOL    C3410336   7.258   5.967   6.773 -0.3475  0.1505  0.5294
   52MOL    C3510337   7.313   6.028   6.644 -0.6578  0.1007  0.8394
   52MOL    N3610338   7.407   5.931   6.583  0.1944 -0.4195  0.0286
   52MOL    H3710339   7.187   6.037   6.816  0.1946  1.3279 -0.4537
   52MOL    H3810340   7.202   5.878   6.747 -0.7063  0.7169 -0.6819
   52MOL    H3910341   7.240   6.046   6.565  0.4769  0.6258 -0.1090
   52MOL    H4010342   7.372   6.119   6.658 -0.5057  0.1002  0.2166
   52MOL    H4110343   7.379   5.847   6.533  1.3621 -1.3738  0.9426
   52MOL    C4210344   7.539   5.945   6.575  0.0955 -0.6306  0.4736
   52MOL    O4310345   7.592   6.051   6.607  0.4233 -0.0694 -0.2154
   52MOL    C4410346   7.629   5.824   6.547 -0.2820  0.2279 -0.2455
   52MOL    C4510347   7.685   5.753   6.674 -1.2898  0.0588 -0.2844
   52MOL    N4610348   0.021   5.669   6.645  0.2299 -0.0116 -0.3177
   52MOL    H4710349   7.574   5.750   6.489  0.5042 -0.3644 -0.2499
   52MOL    H4810350   7.715   5.847   6.484 -0.0039  0.5262  0.2379
   52MOL    H4910351   7.719   5.835   6.737 -2.7475  0.9231 -0.5874
   52MOL    H5010352   7.608   5.699   6.729 -0.9028 -3.1840 -2.7792
   52MOL    H5110353   7.773   5.572   6.640  1.5328 -0.4890  1.4694
   52MOL    C5210354   0.142   5.711   6.630 -0.3967 -1.0630  1.3298
   52MOL    O5310355   0.167   5.830   6.644 -0.2895 -0.2186  0.3741
   52MOL    C5410356   0.252   5.602   6.595  0.0899 -0.1306 -0.2730
   52MOL    C5510357   0.395   5.644   6.646 -0.0221 -0.2851 -0.3560
   52MOL    N5610358   0.462   5.748   6.561 -0.0640 -0.3900 -0.5341
   52MOL    H5710359   0.219   5.505   6.632 -0.0670  0.0792  0.1391
   52MOL    H5810360   0.254   5.585   6.487 -0.0068  3.1527 -0.8532
   52MOL    H5910361   0.452   5.551   6.648  1.2330  0.4823  0.3002
   52MOL    H6010362   0.384   5.681   6.748  0.1391 -1.4404  0.0848
   52MOL    H6110363   0.422   5.749   6.468  1.2948 -1.2644 -1.1470
   52MOL    C6210364   0.545   5.843   6.596 -0.2953 -0.9932 -0.4717
   52MOL    O6310365   0.580   5.861   6.713 -0.2130  0.7230  0.3469
   52MOL    C6410366   0.600   5.925   6.479 -0.0225 -0.8355  0.3594
   52MOL    C6510367   0.633   6.071   6.517  0.2701  0.0463 -0.4945
   52MOL    N6610368   0.593   6.170   6.421 -0.8164 -0.2069 -0.2830
   52MOL    H6710369   0.682   5.868   6.435  1.0117  1.1594 -0.3249
   52MOL    H6810370   0.526   5.922   6.398 -1.6787  1.9856  1.7155
   52MOL    H6910371   0.590   6.095   6.614  0.0450 -2.0146 -0.0651
   52MOL    H7010372   0.740   6.074   6.534 -0.1490  0.1752  2.4376
   52MOL    H7110373   0.514   6.147   6.362 -0.8601  1.3706 -0.8615
   52MOL    C7210374   0.657   6.277   6.374 -0.3977 -0.9554  0.4761
   52MOL    O7310375   0.763   6.316   6.415  0.3796  0.1689 -0.0337
   52MOL    C7410376   0.581   6.361   6.266  0.8058  0.8755  0.5451
   52MOL    C7510377   0.596   6.509   6.282 -0.6130  0.4168  0.3707
   52MOL    N7610378   0.532   6.563   6.404 -0.1218  0.9057  0.2850
   52MOL    H7710379   0.616   6.338   6.165 -2.6506 -0.6751 -0.3898
   52MOL    H7810380   0.479   6.322   6.263  1.7496 -1.6543 -0.1599
   52MOL    H7910381   0.698   6.536   6.310 -0.5802 -0.5565  1.2350
   52MOL    H8010382   0.566   6.569   6.197 -2.0223  1.3681  1.5198
   52MOL    H8110383   0.601   6.601   6.467  0.4614 -1.4424  1.1120
   52MOL    C8210384   0.403   6.573   6.439  0.4550  0.4818 -0.3401
   52MOL    O8310385   0.304   6.527   6.378 -0.4310  0.0370 -0.1225
   52MOL    C8410386   0.381   6.650   6.572  0.0057  0.3583  0.2972
   52MOL    C8510387   0.240   6.707   6.603 -0.2534 -0.4561 -0.6884
   52MOL    N8610388   0.241   6.793   6.720 -0.1481 -0.2940  0.4071
   52MOL    H8710389   0.406   6.579   6.651 -0.2244 -0.4054 -0.3046
   52MOL    H8810390   0.456   6.729   6.570  1.6227 -1.1642 -0.6505
   52MOL    H8910391   0.185   6.764   6.528  1.4816 -0.3962 -1.9242
   52MOL    H9010392   0.170   6.625   6.624  0.4128 -1.1034 -0.9865
   52MOL    H9110393   0.262   6.888   6.694  1.2126 -0.1613  1.9080
   52MOL    C9210394   0.192   6.762   6.840 -1.2595 -0.1196  0.6564
   52MOL    O9310395   0.151   6.648   6.866 -0.3145 -0.2660 -0.2447
   52MOL    C9410396   0.193   6.869   6.949 -0.0254 -0.1266  0.0594
   52MOL    C9510397   0.334   6.905   7.005 -0.7565 -0.7354 -0.2296
   52MOL    N9610398   0.381   6.828   7.118  0.0535 -0.5572  0.9125
   52MOL    H9710399   0.163   6.961   6.900 -3.4264  0.1452  2.5298
   52MOL    H9810400   0.125   6.848   7.031  2.8391 -0.8884  2.3334
   52MOL    H9910401   0.415   6.888   6.933  1.9563  1.2927  2.2115
   52MOL   H10010402   0.340   7.013   7.024 -0.6529 -0.3539 -2.3142
   52MOL   H10110403   0.340   6.746   7.159  0.0912 -0.4563  1.1554
   52MOL   C10210404   0.496   6.862   7.175 -0.0444 -0.3613 -0.1874
   52MOL   O10310405   0.575   6.941   7.128  0.3794  0.0560 -0.4889
   52MOL   C10410406   0.534   6.782   7.295  1.1113  0.2613 -0.7316
   52MOL   C10510407   0.611   6.859   7.405 -0.3356 -0.2882  0.1546
   52MOL   N10610408   0.711   6.778   7.460  0.0933 -0.0918 -0.2309
   52MOL   H10710409   0.591   6.695   7.262  2.9536  1.4437 -0.7207
   52MOL   H10810410   0.440   6.737   7.326  1.0230  0.9042 -0.0564
   52MOL   H10910411   0.662   6.947   7.366  1.1440 -1.8216 -1.4612
   52MOL   H11010412   0.533   6.885   7.477  1.4799 -0.1123  2.1282
   52MOL   H11110413   0.802   6.782   7.418  0.1956 -0.4808 -0.0515
   52MOL   C11210414   0.696   6.690   7.559 -0.2744 -0.0941 -0.1710
   52MOL   O11310415   0.609   6.687   7.647  0.2154  0.4688  0.4509
   52MOL   C11410416   0.786   6.572   7.550  0.0972  0.0284  0.1870
   52MOL   C11510417   0.866   6.555   7.675 -0.9901 -0.3817 -0.4264
   52MOL   N11610418   0.974   6.661   7.675  0.8952 -1.1553  0.3659
   52MOL   H11710419   0.860   6.584   7.471  0.2560 -0.1218  0.3121
   52MOL   H11810420   0.735   6.477   7.535 -1.3239  1.0983 -1.9605
   52MOL   H11910421   0.801   6.550   7.762 -0.9196  0.2087 -0.3334
   52MOL   H12010422   0.915   6.458   7.678  0.1407  0.1680 -0.4797
   52MOL   H12110423   0.947   6.754   7.704  1.2823 -0.3109 -1.8550
   52MOL   C12210424   1.097   6.641   7.625 -0.2665 -0.1360  0.2471
   52MOL   O12310425   1.140   6.530   7.594 -0.1188 -0.9426  0.3059
   52MOL   C12410426   1.190   6.765   7.607  0.2632  0.0696  0.1769
   52MOL   C12510427   1.249   6.767   7.466  0.0976 -0.9828  0.0588
   52MOL   N12610428   1.304   6.899   7.432  0.2225 -0.5263 -0.0761
   52MOL   H12710429   1.278   6.760   7.671  1.4367  0.1035 -1.3920
   52MOL   H12810430   1.139   6.861   7.614  0.0396 -0.1457  1.7033
   52MOL   H12910431   1.335   6.700   7.477  0.3944 -0.4330  1.2186
   52MOL   H13010432   1.185   6.728   7.388 -0.3505  1.5010 -0.8505
   52MOL   H13110433   1.360   6.948   7.500 -0.7326 -2.5474  2.2742
   52MOL   C13210434   1.320   6.950   7.307  0.1149  0.0211  0.3838
   52MOL   O13310435   1.284   6.880   7.214  0.1460  0.4032  0.3513
   52MOL   C13410436   1.396   7.074   7.290 -0.7638 -0.2820 -0.2030
   52MOL   C13510437   1.407   7.122   7.147 -0.1084 -0.7139  0.4584
   52MOL   N13610438   1.485   7.250   7.133 -0.0702 -0.4228 -0.0797
   52MOL   H13710439   1.496   7.061   7.331  0.3296 -1.7139 -3.2366
   52MOL   H13810440   1.344   7.150   7.350 -0.7427 -1.4846  1.3754
   52MOL   H13910441   1.454   7.050   7.079 -0.5643 -2.5096  2.0258
   52MOL   H14010442   1.312   7.147   7.099  0.8362 -0.5824 -1.3989
   52MOL   H14110443   1.427   7.333   7.130  0.5071  0.0325  1.0730
   52MOL   C14210444   1.617   7.261   7.125  0.7378 -0.5385  0.2224
   52MOL   O14310445   1.690   7.163   7.141  0.4264 -0.2867  0.1610
   52MOL   C14410446   1.672   7.402   7.095  0.5776  0.0506 -0.6364
   52MOL   C14510447   1.818   7.419   7.061 -0.5305 -0.1599  0.0687
   52MOL   N14610448   1.863   7.551   7.009  0.2829  0.4464 -0.8901
   52MOL   H14710449   1.622   7.465   7.169 -1.8701  1.6969 -3.6174
   52MOL   H14810450   1.632   7.434   6.999 -0.4873 -0.8242 -0.5034
   52MOL   H14910451   1.870   7.393   7.153  0.0176 -1.1126 -0.5021
   52MOL   H15010452   1.838   7.338   6.992 -0.7780 -1.5103  1.5451
   52MOL   H15110453   1.875   7.621   7.081 -0.3591 -0.1187 -0.2165
   52MOL   C15210454   1.942   7.564   6.899 -0.0925 -0.2524  0.0885
   52MOL   O15310455   1.959   7.478   6.818 -0.0109  0.3391 -0.3269
   52MOL   C15410456   2.023   7.697   6.885 -0.0913  0.0350  0.1638
   52MOL   C15510457   2.119   7.692   6.762 -0.7762  1.0712 -0.0838
   52MOL   N15610458   2.057   7.685   6.624 -0.7779  0.0947  0.2442
   52MOL   H15710459   2.076   7.714   6.978  1.7937 -2.0410 -0.5011
   52MOL   H15810460   1.959   0.005   6.877  0.7396  0.6496  0.2357
   52MOL   H15910461   2.194   7.771   6.765 -1.2165  1.4432  1.3713
   52MOL   H16010462   2.177   7.604   6.789 -1.9914  1.0466  2.4988
   52MOL   H16110463   2.119   7.644   6.556 -0.1173  1.9157 -0.2802
   52MOL   C16210464   1.945   7.739   6.574  0.0177 -0.4235 -0.1270
   52MOL   O16310465   1.870   0.022   6.648  0.2408  0.6379 -0.0399
   52MOL   C16410466   1.904   7.715   6.432 -0.4480 -0.2654  0.4987
   52MOL   C16510467   1.816   0.048   6.377  0.6589  0.0746 -0.2383
   52MOL   N16610468   1.901   0.140   6.293 -0.1923  0.1426 -0.5329
   52MOL   H16710469   1.842   7.626   6.426 -2.9694  1.4352  0.5468
   52MOL   H16810470   1.987   7.703   6.364 -1.1738 -0.4942 -0.3527
   52MOL   H16910471   1.749   0.002   6.304  0.4161 -0.2509  0.1915
   52MOL   H17010472   1.753   0.094   6.453 -0.5367 -1.4848 -0.2590
   52MOL   H17110473   1.914   0.234   6.328 -2.7070 -0.3762  2.0121
   52MOL   C17210474   1.949   0.118   6.173  0.1178  0.3452  0.4655
   52MOL   O17310475   1.930   0.008   6.116  0.5989 -0.3583 -0.1054
   52MOL   C17410476   2.034   0.228   6.105 -0.8429  0.1330 -0.0803
   52MOL   C17510477   1.951   0.318   6.017  0.2702 -0.1983  0.0403
   52MOL   N17610478   1.892   0.423   6.100 -0.5154 -0.3160  0.4965
   52MOL   H17710479   2.112   0.180   6.045 -0.4645  1.2677 -0.5058
   52MOL   H17810480   2.089   0.283   6.182 -1.7917  3.0046 -1.4008
   52MOL   H17910481   2.007   0.367   5.938  0.9488  0.8085  1.1358
   52MOL   H18010482   1.873   0.268   5.959  1.1865 -2.3746  0.6171
   52MOL   H18110483   1.946   0.444   6.183  0.4898 -0.8848 -0.0062
   52MOL   C18210484   1.797   0.512   6.061 -0.3836 -0.1162  0.1136
   52MOL   O18310485   1.742   0.502   5.950  0.2736  0.1352  0.1475
   52MOL   C18410486   1.756   0.618   6.164  0.1922  0.4880 -0.6674
   52MOL   C18510487   1.657   0.728   6.117  0.0942  0.0857 -0.3735
   52MOL   N18610488   1.531   0.675   6.068  0.0451 -0.3129 -0.4810
   52MOL   H18710489   1.846   0.674   6.190  0.1265  0.4348 -0.3203
   52MOL   H18810490   1.708   0.570   6.249 -1.0094 -0.0962 -1.6652
   52MOL   H18910491   1.638   0.805   6.192  0.5634 -1.0571  0.9358
   52MOL   H19010492   1.711   0.781   6.038  2.8057  0.2717  1.5144
   52MOL   H19110493   1.542   0.580   6.038 -1.6904 -0.2306 -1.4524
   52MOL   C19210494   1.410   0.736   6.068 -0.0252 -0.7642 -0.6773
   52MOL   O19310495   1.398   0.850   6.107 -0.0549  0.2478 -0.1507
   52MOL   C19410496   1.288   0.659   6.014  0.3576 -0.0583 -0.6818
   52MOL   C19510497   1.143   0.717   6.028  0.0013  0.4014 -0.2727
   52MOL   N19610498   1.110   0.733   6.170 -0.0319  0.3216 -0.4022
   52MOL   H19710499   1.311   0.632   5.911 -0.4693 -0.9440 -0.6321
   52MOL   H19810500   1.285   0.567   6.072  2.4597 -1.0929 -2.1467
   52MOL   H19910501   1.137   0.820   5.992 -1.7438  0.7661  0.9909
   52MOL   H20010502   1.066   0.659   5.977 -1.8588  2.0135  0.6346
   52MOL   H20110503   1.027   0.785   6.195  0.8120  0.1721  2.9290
   52MOL   H20210504   1.188   0.770   6.223  0.9857 -1.3348 -0.7104
   53MOL     C110505   5.023   3.128   4.731 -0.4905 -0.5901  0.5284
   53MOL     O210506   5.085   3.229   4.760  0.0804  0.0072 -0.1147
   53MOL     C310507   5.000   3.023   4.837 -0.0182  0.5341  0.2586
   53MOL     C410508   4.883   3.050   4.928 -0.3027  0.4986  0.2915
   53MOL     N510509   4.764   2.980   4.879  0.3535 -0.0866  0.3035
   53MOL     H610510   5.094   3.019   4.892  0.7307 -1.8123 -1.1094
   53MOL     H710511   4.998   2.921   4.798  1.2311  0.4717  0.3363
   53MOL     H810512   4.858   3.156   4.930 -2.2166  0.1132 -1.0313
   53MOL     H910513   4.895   3.013   5.030 -2.0022 -0.9063  0.0166
   53MOL    H1010514   4.693   3.047   4.853  2.2154  1.5835 -0.7134
   53MOL    H1110515   4.999   3.093   4.631  1.1400 -0.8709  0.2380
   53MOL    C1210516   4.740   2.852   4.863 -0.3377 -0.2743  0.0708
   53MOL    O1310517   4.824   2.765   4.880 -0.2479 -0.0857  0.4724
   53MOL    C1410518   4.600   2.809   4.814 -0.6559  0.2274 -0.1022
   53MOL    C1510519   4.515   2.748   4.936 -0.4123  0.5183  0.0105
   53MOL    N1610520   4.580   2.621   4.978 -0.2633 -0.2454 -0.9705
   53MOL    H1710521   4.615   2.741   4.730  1.0342 -0.6270  0.8790
   53MOL    H1810522   4.552   2.898   4.774 -3.4597 -0.0519  2.5091
   53MOL    H1910523   4.518   2.828   5.009  3.6527  1.3520 -0.9287
   53MOL    H2010524   4.414   2.720   4.906 -0.7099 -1.2916  2.5379
   53MOL    H2110525   4.663   2.587   4.932  0.0100 -0.3874 -0.3620
   53MOL    C2210526   4.516   2.548   5.081 -0.2428 -0.0718  0.4229
   53MOL    O2310527   4.416   2.585   5.135 -0.2039 -0.6112 -0.7910
   53MOL    C2410528   4.571   2.407   5.107 -0.2200  0.0847  0.7685
   53MOL    C2510529   4.602   2.353   5.251  0.1892  0.2493 -0.0785
   53MOL    N2610530   4.492   2.398   5.335  0.5077  0.1486 -0.1713
   53MOL    H2710531   4.654   2.394   5.038 -0.8022  2.1727 -0.3676
   53MOL    H2810532   4.497   2.341   5.063 -1.1601  0.4109  1.8266
   53MOL    H2910533   4.604   2.244   5.250 -2.2103  0.1785 -1.1206
   53MOL    H3010534   4.688   2.396   5.301  0.6845  0.8205 -1.4019
   53MOL    H3110535   4.484   2.497   5.351 -0.2604 -0.1451  1.2722
   53MOL    C3210536   4.385   2.326   5.372 -0.4244 -0.1427 -0.2762
   53MOL    O3310537   4.382   2.208   5.345  0.5277 -0.0386 -0.1895
   53MOL    C3410538   4.269   2.401   5.442 -0.2612 -0.0260 -0.5581
   53MOL    C3510539   4.141   2.321   5.470 -0.6542  0.1549 -0.1595
   53MOL    N3610540   4.023   2.401   5.441  0.1949  0.2738  1.1050
   53MOL    H3710541   4.240   2.476   5.367  0.1767 -0.5100 -1.2130
   53MOL    H3810542   4.297   2.464   5.526  0.6057 -0.9828 -0.1176
   53MOL    H3910543   4.135   2.236   5.402  3.4741 -1.0889  0.9025
   53MOL    H4010544   4.135   2.277   5.569 -2.4021  0.1807 -0.2425
   53MOL    H4110545   4.026   2.473   5.370  1.6534  0.3325  1.2220
   53MOL    C4210546   3.912   2.404   5.515 -0.1218 -0.0480 -0.0207
   53MOL    O4310547   3.886   2.336   5.612 -0.5421  0.3294 -0.4546
   53MOL    C4410548   3.804   2.488   5.457  0.5680  0.7089 -0.0323
   53MOL    C4510549   3.668   2.457   5.514 -0.9055 -0.1719  0.2199
   53MOL    N4610550   3.566   2.552   5.468  0.1987  0.0803 -0.1240
   53MOL    H4710551   3.821   2.595   5.462 -2.0697  1.1331  0.4497
   53MOL    H4810552   3.801   2.467   5.350  0.6527 -0.5244  0.2020
   53MOL    H4910553   3.650   2.350   5.513  2.5975 -0.8302  1.9626
   53MOL    H5010554   3.675   2.480   5.621  0.4078  1.9819 -0.2946
   53MOL    H5110555   3.484   2.503   5.435 -0.1749 -0.8602  2.0948
   53MOL    C5210556   3.553   2.681   5.491  0.2782  0.2856 -0.4135
   53MOL    O5310557   3.635   2.741   5.565  0.4793  0.5657  0.0542
   53MOL    C5410558   3.442   2.752   5.411  0.0325  0.4905  0.7972
   53MOL    C5510559   3.384   2.873   5.494 -0.2263  0.2532  0.5533
   53MOL    N5610560   3.266   2.927   5.435 -0.5059 -0.5902  0.3878
   53MOL    H5710561   3.472   2.785   5.312 -1.4785 -1.5045 -0.3857
   53MOL    H5810562   3.372   2.670   5.392  0.5129  0.7307 -2.1294
   53MOL    H5910563   3.451   2.950   5.533  0.2282  0.1849 -0.0770
   53MOL    H6010564   3.350   2.831   5.588  1.0441 -0.0567  0.8881
   53MOL    H6110565   3.253   2.911   5.336  2.3852 -1.3521  0.0986
   53MOL    C6210566   3.174   3.004   5.508 -0.2610 -0.5310 -0.4677
   53MOL    O6310567   3.202   3.032   5.623  0.5561  0.6606  0.1697
   53MOL    C6410568   3.051   3.062   5.429 -0.4265  0.1749  0.6803
   53MOL    C6510569   2.971   3.174   5.494 -0.2950  0.5478  0.1763
   53MOL    N6610570   3.045   3.300   5.510 -0.0389  0.2442  0.3248
   53MOL    H6710571   3.072   3.087   5.325  0.8013 -0.0227  0.8793
   53MOL    H6810572   2.986   2.976   5.416  0.1724  0.1449 -2.7088
   53MOL    H6910573   2.886   3.203   5.432  0.5279  1.3923 -0.5733
   53MOL    H7010574   2.929   3.127   5.582 -0.8164 -0.3148 -0.5243
   53MOL    H7110575   3.125   3.304   5.571 -0.5617  0.1314  1.0199
   53MOL    C7210576   3.038   3.408   5.428  0.3095  0.4587  0.3243
   53MOL    O7310577   2.941   3.431   5.352 -0.3349  0.0971  0.2334
   53MOL    C7410578   3.162   3.496   5.439  0.4332 -0.7387  0.1220
   53MOL    C7510579   3.149   3.646   5.385 -0.2978 -0.4426  0.0377
   53MOL    N7610580   3.080   3.742   5.466  0.1610 -0.2387  0.2778
   53MOL    H7710581   3.186   3.508   5.545 -2.1707 -0.8134  0.7723
   53MOL    H7810582   3.244   3.439   5.397  0.0374  1.5931 -4.0598
   53MOL    H7910583   3.248   3.681   5.356 -0.0259 -2.2392 -1.3149
   53MOL    H8010584   3.101   3.634   5.288 -0.4655 -2.0906  0.2987
   53MOL    H8110585   3.075   3.729   5.566  0.4418 -0.0156  0.3232
   53MOL    C8210586   3.039   3.861   5.408  0.2506  0.1113 -0.5347
   53MOL    O8310587   3.048   3.879   5.290  0.1387 -0.8841  0.0506
   53MOL    C8410588   2.986   3.978   5.495  0.4002  0.0208 -0.1321
   53MOL    C8510589   3.015   4.118   5.445  0.0818 -0.0553  0.4117
   53MOL    N8610590   2.905   4.204   5.445  0.2174 -0.0384  0.3823
   53MOL    H8710591   2.880   3.954   5.504  0.3570  0.2387 -0.0619
   53MOL    H8810592   3.016   3.965   5.599  1.2953 -1.7937 -0.5986
   53MOL    H8910593   3.085   4.161   5.517 -0.0158  0.3011  0.2976
   53MOL    H9010594   3.053   4.132   5.344 -0.2748 -0.3571  0.2339
   53MOL    H9110595   2.866   4.232   5.356 -1.4332  0.8932  1.3749
   53MOL    C9210596   2.841   4.240   5.553  0.1314 -0.4085 -0.3011
   53MOL    O9310597   2.888   4.228   5.664  0.2401 -0.4787  0.1831
   53MOL    C9410598   2.725   4.336   5.539 -0.1050  1.3483 -0.0073
   53MOL    C9510599   2.604   4.310   5.632  0.2225 -0.2629 -0.4713
   53MOL    N9610600   2.517   4.207   5.577 -0.6113  0.4618  0.4452
   53MOL    H9710601   2.784   4.425   5.558  0.0389  0.8443  2.0296
   53MOL    H9810602   2.683   4.342   5.439  0.1018 -1.7521 -0.3322
   53MOL    H9910603   2.625   4.296   5.738  0.2115  0.4814 -0.3654
   53MOL   H10010604   2.550   4.405   5.621 -0.3202 -0.7528 -2.2796
   53MOL   H10110605   2.549   4.142   5.506  0.5755  0.6618  0.7810
   53MOL   C10210606   2.402   4.176   5.637  0.2347  0.7559  0.7225
   53MOL   O10310607   2.375   4.223   5.751  0.4622 -0.0541 -0.3864
   53MOL   C10410608   2.306   4.085   5.557  0.6189 -0.2982 -0.0476
   53MOL   C10510609   2.175   4.049   5.627 -0.1935  0.2436 -0.5917
   53MOL   N10610610   2.191   3.954   5.737  0.1994  0.0957  0.1328
   53MOL   H10710611   2.340   3.992   5.510  0.4100 -1.0761  1.3228
   53MOL   H10810612   2.270   4.146   5.474  1.3751  1.3892  0.8551
   53MOL   H10910613   2.124   4.137   5.666  0.2692 -0.7095  2.3374
   53MOL   H11010614   2.115   3.998   5.552  1.3061 -0.0826 -1.5888
   53MOL   H11110615   2.283   3.952   5.779  1.2440 -1.4555 -2.1699
   53MOL   C11210616   2.115   3.847   5.772  0.3411 -0.0794 -0.1742
   53MOL   O11310617   2.004   3.831   5.730  0.0962  0.5274 -0.2435
   53MOL   C11410618   2.177   3.742   5.872 -0.3115 -0.0563  0.0501
   53MOL   C11510619   2.081   3.664   5.968  0.5007 -0.0097  0.0575
   53MOL   N11610620   2.002   3.552   5.912  0.4691 -0.3215  0.3689
   53MOL   H11710621   2.249   3.791   5.936 -0.8230  1.0538 -0.2009
   53MOL   H11810622   2.231   3.673   5.807 -3.1786 -1.4872 -0.9013
   53MOL   H11910623   2.135   3.619   6.052 -0.8773 -0.6003  0.6417
   53MOL   H12010624   2.006   3.727   6.016  1.5358 -0.2939  2.1210
   53MOL   H12110625   1.946   3.572   5.830 -1.3050  0.9936  1.8652
   53MOL   C12210626   2.002   3.423   5.946  0.3665 -0.3421 -0.6712
   53MOL   O12310627   2.060   3.386   6.046 -0.2183  0.2232  0.3350
   53MOL   C12410628   1.919   3.337   5.852  0.4546  0.4025 -0.9868
   53MOL   C12510629   1.814   3.246   5.924  0.5607  0.1872  0.0252
   53MOL   N12610630   1.730   3.186   5.813  0.2458  0.7957 -0.6257
   53MOL   H12710631   1.985   3.287   5.781  1.5292  0.6822 -0.1983
   53MOL   H12810632   1.873   3.411   5.787 -0.5454 -0.9386 -1.8551
   53MOL   H12910633   1.870   3.164   5.971 -0.0107 -1.4270 -2.0343
   53MOL   H13010634   1.753   3.289   6.003  1.3623  0.6963  0.3803
   53MOL   H13110635   1.704   3.247   5.737 -0.8239  2.9791  1.4198
   53MOL   C13210636   1.691   3.059   5.807  0.1526  0.0090  0.3194
   53MOL   O13310637   1.730   2.979   5.891 -0.1147  0.1887 -0.4206
   53MOL   C13410638   1.616   2.998   5.691  0.5246  0.1250 -0.1043
   53MOL   C13510639   1.470   2.973   5.717  0.2006 -0.6476 -0.3515
   53MOL   N13610640   1.373   3.080   5.675  0.1124 -0.1006  0.2931
   53MOL   H13710641   1.654   2.898   5.667  1.0218  0.1006  0.7853
   53MOL   H13810642   1.623   3.052   5.596 -0.8591 -0.4116 -0.5316
   53MOL   H13910643   1.439   2.886   5.659 -0.9699  0.5838 -1.6281
   53MOL   H14010644   1.454   2.939   5.819  0.8250  0.8542  0.2590
   53MOL   H14110645   1.318   3.126   5.747  0.0022 -1.2402  0.9540
   53MOL   C14210646   1.358   3.130   5.552  0.4734 -0.3308  0.6037
   53MOL   O14310647   1.395   3.075   5.445  0.0362  0.0853  0.2683
   53MOL   C14410648   1.294   3.273   5.531  0.1191  0.0161  0.2635
   53MOL   C14510649   1.144   3.266   5.495  0.3857  0.8414 -0.3194
   53MOL   N14610650   1.067   3.208   5.606  0.4088 -0.3404  0.1969
   53MOL   H14710651   1.346   3.305   5.441 -1.0173  1.5072  0.1239
   53MOL   H14810652   1.307   3.338   5.617 -0.1138  0.5492 -0.1007
   53MOL   H14910653   1.094   3.362   5.483 -0.9695  0.3410  1.2080
   53MOL   H15010654   1.121   3.204   5.408  1.3166  1.3551 -0.9498
   53MOL   H15110655   1.104   3.228   5.698  2.9417 -1.4179 -0.5332
   53MOL   C15210656   0.940   3.166   5.588  0.2140 -0.1990 -0.5254
   53MOL   O15310657   0.895   3.142   5.476  0.0138  0.1686 -0.2184
   53MOL   C15410658   0.856   3.142   5.717  0.6306 -0.6023  0.4671
   53MOL   C15510659   0.738   3.043   5.691 -0.2967  0.1247  0.5482
   53MOL   N15610660   0.656   2.996   5.812  0.2548  0.7521  0.3563
   53MOL   H15710661   0.810   3.237   5.746  1.3282  0.1600 -0.8557
   53MOL   H15810662   0.913   3.114   5.806  0.1224 -0.8321  0.7193
   53MOL   H15910663   0.664   3.089   5.625  0.6147 -0.7099 -1.0877
   53MOL   H16010664   0.776   2.954   5.642 -1.1166  0.5866 -0.9822
   53MOL   H16110665   0.641   3.061   5.888 -0.2050 -2.0634  2.8130
   53MOL   C16210666   0.609   2.875   5.848 -0.1140 -0.7557 -0.1199
   53MOL   O16310667   0.613   2.772   5.778 -0.2025  0.3734  0.6158
   53MOL   C16410668   0.521   2.879   5.966  0.7198 -0.4472  0.1374
   53MOL   C16510669   0.375   2.845   5.925  0.2744 -0.0007 -0.0225
   53MOL   N16610670   0.309   2.952   5.846 -0.8478 -0.2348  0.7479
   53MOL   H16710671   0.523   2.970   6.026 -3.5506  0.2544 -0.6263
   53MOL   H16810672   0.556   2.794   6.026  0.9803  0.8814  1.9187
   53MOL   H16910673   0.369   2.754   5.866  0.3863 -0.2822  0.3952
   53MOL   H17010674   0.309   2.819   6.008 -0.0275  0.3632 -0.1489
   53MOL   H17110675   0.271   2.923   5.757 -0.5130  0.8295  0.2507
   53MOL   C17210676   0.283   3.076   5.897  0.3704 -0.0377 -0.1359
   53MOL   O17310677   0.317   3.106   6.010  0.3651  0.6511 -0.4272
   53MOL   C17410678   0.213   3.178   5.802 -0.0073  0.1949  0.6318
   53MOL   C17510679   0.210   3.333   5.828 -1.0986 -0.1166 -0.3924
   53MOL   N17610680   0.335   3.391   5.872 -0.4878 -0.7647  0.2801
   53MOL   H17710681   0.112   3.143   5.781  1.0201 -1.2379 -2.3636
   53MOL   H17810682   0.257   3.154   5.705  0.7108 -0.0960  1.0209
   53MOL   H17910683   0.190   3.381   5.732 -1.2565  0.7870  0.0874
   53MOL   H18010684   0.128   3.352   5.897  0.7779  0.6698  1.6442
   53MOL   H18110685   0.344   3.435   5.963  2.0061 -2.3875  0.8689
   53MOL   C18210686   0.442   3.407   5.791  0.0490 -0.6382  0.1105
   53MOL   O18310687   0.434   3.386   5.673 -0.0071  0.7728 -0.2064
   53MOL   C18410688   0.577   3.440   5.852  0.8873  0.1089  0.4504
   53MOL   C18510689   0.662   3.519   5.756  0.4374 -0.3220 -0.9219
   53MOL   N18610690   0.798   3.531   5.810  0.5503 -0.3374 -0.3379
   53MOL   H18710691   0.622   3.343   5.871  0.1617 -0.2732  0.2227
   53MOL   H18810692   0.571   3.479   5.954 -1.3472 -0.5892  0.6102
   53MOL   H18910693   0.667   3.467   5.660  0.3536 -0.4712 -0.8462
   53MOL   H19010694   0.628   3.622   5.746  2.3620  0.4644  0.2411
   53MOL   H19110695   0.810   3.563   5.905 -2.0348 -3.0130  0.9944
   53MOL   C19210696   0.908   3.528   5.733  0.5529  0.4399 -1.0650
   53MOL   O19310697   0.905   3.497   5.614  0.9245  0.0874  0.5079
   53MOL   C19410698   1.033   3.579   5.797  0.7735 -0.2109  0.5255
   53MOL   C19510699   1.117   3.670   5.704  0.1939 -0.0167  0.3874
   53MOL   N19610700   1.056   3.794   5.672 -0.5053 -0.0817 -0.0055
   53MOL   H19710701   0.997   3.630   5.887 -2.6916  1.4773 -1.6767
   53MOL   H19810702   1.099   3.500   5.830 -0.4871 -1.4228  0.1938
   53MOL   H19910703   1.212   3.702   5.748 -0.8577  2.1386  1.1837
   53MOL   H20010704   1.146   3.641   5.603 -1.7693  0.8889 -0.4734
   53MOL   H20110705   1.039   3.791   5.573  0.2895  0.1037 -0.1504
   53MOL   H20210706   0.964   3.810   5.710 -0.3054  0.1203  0.4020
   54MOL     C110707   1.907   4.654   0.625 -0.2459 -0.3648  0.8257
   54MOL     O210708   2.011   4.647   0.569 -0.1817  0.1373  0.6659
   54MOL     C310709   1.773   4.626   0.542 -0.0578 -0.5449 -0.3090
   54MOL     C410710   1.694   4.757   0.522  0.0624  0.6003  0.7271
   54MOL     N510711   1.657   4.817   0.655 -0.6590 -0.4179  0.2923
   54MOL     H610712   1.717   4.540   0.580 -1.2861  0.0601 -0.7081
   54MOL     H710713   1.808   4.583   0.448 -0.5974 -1.1043 -0.2534
   54MOL     H810714   1.609   4.733   0.457  0.8107  0.8040 -0.3388
   54MOL     H910715   1.757   4.827   0.466 -2.7829  2.0647 -0.7791
   54MOL    H1010716   1.728   4.863   0.709  1.2829 -0.0423 -2.4618
   54MOL    H1110717   1.895   4.678   0.731 -3.0650  0.8370  0.2858
   54MOL    C1210718   1.531   4.821   0.701  0.3503  0.0855 -0.3810
   54MOL    O1310719   1.434   4.787   0.637 -0.2821 -0.0936 -0.1464
   54MOL    C1410720   1.518   4.892   0.837 -0.8328 -0.6990 -0.0504
   54MOL    C1510721   1.387   4.967   0.849  0.5404  0.2950  0.2261
   54MOL    N1610722   1.332   4.961   0.982  0.1491  0.0165 -0.2814
   54MOL    H1710723   1.595   4.967   0.854  0.3369 -2.1342  1.1924
   54MOL    H1810724   1.515   4.808   0.907  0.2348 -0.4587  0.2987
   54MOL    H1910725   1.390   5.070   0.814 -0.3356 -0.0015 -0.7719
   54MOL    H2010726   1.303   4.938   0.785  0.6393  0.4735  0.0140
   54MOL    H2110727   1.301   4.869   1.008  0.2979  0.6892  2.4307
   54MOL    C2210728   1.295   5.068   1.057  0.2701 -0.1124 -0.2230
   54MOL    O2310729   1.298   5.183   1.028  0.8373 -0.1000  0.1370
   54MOL    C2410730   1.246   5.038   1.205 -0.7138  0.5362  0.6979
   54MOL    C2510731   1.099   5.079   1.256 -0.9496  0.8475 -0.0738
   54MOL    N2610732   0.998   4.993   1.201  0.1785 -0.4701  0.1249
   54MOL    H2710733   1.314   5.098   1.266 -1.1255  0.0219  1.6691
   54MOL    H2810734   1.277   4.945   1.253 -1.5916  0.0001  0.2433
   54MOL    H2910735   1.113   5.075   1.364  0.9279 -0.4351 -0.3406
   54MOL    H3010736   1.088   5.183   1.227  0.6241  0.9339 -0.4311
   54MOL    H3110737   0.975   4.903   1.241  1.0657 -1.6333 -1.9430
   54MOL    C3210738   0.914   5.018   1.094 -0.0289 -0.2529  0.3669
   54MOL    O3310739   0.920   5.126   1.026 -0.4060  0.9416 -0.0171
   54MOL    C3410740   0.815   4.900   1.054  0.0289  0.1619  0.1130
   54MOL    C3510741   0.757   4.917   0.914  0.1747  0.0671 -0.0812
   54MOL    N3610742   0.679   4.800   0.895  1.0486  0.7131  0.0769
   54MOL    H3710743   0.741   4.903   1.134 -0.8871 -0.2162 -0.7101
   54MOL    H3810744   0.869   4.806   1.068 -1.3704 -0.7056 -0.2509
   54MOL    H3910745   0.689   5.001   0.902 -0.8918 -1.2921 -4.8653
   54MOL    H4010746   0.838   4.933   0.843  1.1953  2.6427  1.6213
   54MOL    H4110747   0.670   4.728   0.964  0.2296 -0.3025 -1.0673
   54MOL    C4210748   0.588   4.796   0.803  0.1984 -0.1079  0.6519
   54MOL    O4310749   0.575   4.885   0.715  0.6539 -0.0142  0.4606
   54MOL    C4410750   0.486   4.685   0.807 -0.2905 -0.1007 -0.3808
   54MOL    C4510751   0.390   4.686   0.681  0.0270 -0.2948 -0.2793
   54MOL    N4610752   0.296   4.801   0.674 -0.0429  0.7611  0.3242
   54MOL    H4710753   0.539   4.591   0.793 -1.2451 -0.9991  1.8453
   54MOL    H4810754   0.424   4.680   0.896 -2.0994 -0.6987 -1.6421
   54MOL    H4910755   0.441   4.685   0.585 -0.9422 -0.8377 -0.7949
   54MOL    H5010756   0.332   4.594   0.669 -0.6478  0.0993 -0.0693
   54MOL    H5110757   0.290   4.851   0.761 -3.5879 -3.0906  2.4742
   54MOL    C5210758   0.224   4.824   0.560 -0.2555  0.0434 -0.0884
   54MOL    O5310759   0.235   4.757   0.457  0.4019 -0.7708  0.3333
   54MOL    C5410760   0.129   4.940   0.579 -0.0429  0.4194 -0.2742
   54MOL    C5510761   0.058   4.994   0.447  0.0743  0.6006  0.0175
   54MOL    N5610762   0.016   5.131   0.441  0.1128 -0.2903 -0.2630
   54MOL    H5710763   0.052   4.914   0.652 -0.4493 -1.0878 -1.2306
   54MOL    H5810764   0.189   5.022   0.618 -1.8482  1.0292  1.3040
   54MOL    H5910765   7.754   4.932   0.415  1.0982 -0.7793 -0.0920
   54MOL    H6010766   0.135   4.983   0.370  1.4691  1.9645  1.1899
   54MOL    H6110767   0.040   5.171   0.351  2.8204  0.5949  0.8024
   54MOL    C6210768   7.744   5.220   0.525 -0.1523 -0.3331 -0.2962
   54MOL    O6310769   7.716   5.183   0.634  0.2767  0.3842 -0.5087
   54MOL    C6410770   7.742   5.371   0.489  0.3344  0.2211 -0.0924
   54MOL    C6510771   7.705   5.464   0.602 -0.0996  0.1571  0.1099
   54MOL    N6610772   7.664   5.592   0.555 -0.8146  0.1100 -0.2359
   54MOL    H6710773   0.060   5.395   0.448  1.2204 -1.3794  1.0315
   54MOL    H6810774   7.673   5.392   0.408  0.0179  1.9063  0.5805
   54MOL    H6910775   7.627   5.429   0.669  1.4897 -1.4884  1.1579
   54MOL    H7010776   0.005   5.474   0.676 -0.1418  2.5951 -0.1477
   54MOL    H7110777   7.635   5.610   0.460  2.2550 -1.8225 -1.6340
   54MOL    C7210778   7.655   5.698   0.630 -0.7161 -0.1927  0.2202
   54MOL    O7310779   7.685   5.695   0.751  0.0207 -0.0150  0.7454
   54MOL    C7410780   7.607   5.829   0.554  0.0119  0.4653  0.2756
   54MOL    C7510781   7.666   5.957   0.617 -0.0639 -0.1055  0.3258
   54MOL    N7610782   0.021   5.981   0.566 -0.0915 -0.4824  0.0975
   54MOL    H7710783   7.633   5.825   0.448  1.6309 -2.1405  0.7367
   54MOL    H7810784   7.500   5.847   0.569 -0.1568 -0.8401  0.6985
   54MOL    H7910785   7.592   6.037   0.607 -2.1580 -1.9176  0.8051
   54MOL    H8010786   7.676   5.950   0.725  0.7691 -0.3857  0.2315
   54MOL    H8110787   0.086   5.904   0.562  0.7152  0.1725  0.3517
   54MOL    C8210788   0.050   6.094   0.509  0.3192  0.2370  0.4960
   54MOL    O8310789   7.746   6.180   0.490 -0.6323 -0.0122 -0.3907
   54MOL    C8410790   0.195   6.107   0.470  0.3683 -0.0334  0.5808
   54MOL    C8510791   0.223   6.216   0.366 -0.4414  0.6141  0.1451
   54MOL    N8610792   0.360   6.200   0.322 -0.2347 -0.0621 -0.8544
   54MOL    H8710793   0.253   6.110   0.562  0.5090  0.3140  0.4812
   54MOL    H8810794   0.222   6.011   0.426 -3.4369 -0.8724 -0.1277
   54MOL    H8910795   0.156   6.199   0.281  0.9985 -0.6067 -0.7675
   54MOL    H9010796   0.210   6.317   0.406 -1.0977  0.2735  0.7879
   54MOL    H9110797   0.365   6.149   0.235 -1.1111 -0.2784 -0.7794
   54MOL    C9210798   0.469   6.254   0.382  0.2312 -0.2253  0.1297
   54MOL    O9310799   0.462   6.312   0.490  0.0049 -0.1789 -0.4370
   54MOL    C9410800   0.606   6.247   0.312  0.2052 -0.6301 -0.4966
   54MOL    C9510801   0.617   6.379   0.235 -0.6248  0.2543  0.1027
   54MOL    N9610802   0.551   6.396   0.106  0.7402 -0.4502  0.4171
   54MOL    H9710803   0.689   6.245   0.384 -2.6523 -1.2179  2.9546
   54MOL    H9810804   0.615   6.155   0.254 -0.5796 -0.5052 -0.8278
   54MOL    H9910805   0.584   6.460   0.300  0.9690  0.1680  1.0391
   54MOL   H10010806   0.724   6.396   0.225 -0.3839 -1.5477 -0.8033
   54MOL   H10110807   0.591   6.359   0.021 -0.8908  2.2813 -1.6173
   54MOL   C10210808   0.428   6.452   0.084  0.0977 -0.0261 -1.0555
   54MOL   O10310809   0.360   6.500   0.177  0.1756 -0.2492 -0.0725
   54MOL   C10410810   0.371   6.447   7.730 -0.6940 -0.1580 -0.5862
   54MOL   C10510811   0.291   6.310   7.698 -0.5710  0.7738 -0.5680
   54MOL   N10610812   0.385   6.201   7.665 -0.3869  1.0431 -0.0970
   54MOL   H10710813   0.451   6.464   7.659 -0.3536  0.4451 -0.0649
   54MOL   H10810814   0.315   6.540   7.725 -0.9038 -0.2492 -0.0121
   54MOL   H10910815   0.235   6.290   0.009  1.7442 -0.8724  0.5431
   54MOL   H11010816   0.210   6.329   7.627 -0.4588  2.9359 -0.1467
   54MOL   H11110817   0.425   6.199   7.573 -1.5149  2.3375 -0.6260
   54MOL   C11210818   0.400   6.085   7.737 -0.5147 -0.0187 -0.6941
   54MOL   O11310819   0.361   6.072   0.074  0.1864 -0.6065  0.1066
   54MOL   C11410820   0.458   5.957   7.668 -0.5878  0.2262  0.0408
   54MOL   C11510821   0.398   5.821   7.716  0.3619 -0.1783 -0.3570
   54MOL   N11610822   0.399   5.798   0.078 -0.0922 -0.5995 -0.5240
   54MOL   H11710823   0.566   5.969   7.673 -0.3701 -0.6231 -2.0340
   54MOL   H11810824   0.429   5.976   7.564 -1.8192 -2.9506 -0.2603
   54MOL   H11910825   0.292   5.816   7.691 -0.0550  3.5762  0.2953
   54MOL   H12010826   0.444   5.743   7.657  2.0702  0.6487 -0.1482
   54MOL   H12110827   0.454   5.865   0.130  0.4340 -0.5049 -1.1958
   54MOL   C12210828   0.356   5.684   0.138 -0.0781 -0.2674 -0.4022
   54MOL   O12310829   0.305   5.589   0.076  0.1382 -0.6845  0.1714
   54MOL   C12410830   0.378   5.671   0.284 -0.8479 -0.0672 -0.5318
   54MOL   C12510831   0.280   5.577   0.357  0.7628 -0.0003 -0.3537
   54MOL   N12610832   0.301   5.568   0.500  0.5045  0.1502 -0.3059
   54MOL   H12710833   0.373   5.773   0.324  1.0064  0.5902 -1.8805
   54MOL   H12810834   0.478   5.635   0.308 -0.7956 -0.4135 -1.2722
   54MOL   H12910835   0.179   5.618   0.352  1.2483  1.2926  0.0421
   54MOL   H13010836   0.269   5.478   0.314  1.2294 -0.1146 -0.2105
   54MOL   H13110837   0.334   5.482   0.540 -1.7191 -1.0322 -0.9119
   54MOL   C13210838   0.256   5.661   0.593 -0.7892 -0.0643 -0.4420
   54MOL   O13310839   0.190   5.754   0.560  0.8180  0.3643  0.2001
   54MOL   C13410840   0.273   5.636   0.742  0.1101 -0.6608  0.3437
   54MOL   C13510841   0.335   5.759   0.812 -0.1813  0.9678  0.1059
   54MOL   N13610842   0.365   5.723   0.950  0.7386 -0.1669  0.2945
   54MOL   H13710843   0.346   5.557   0.759  2.3124  1.5837  1.6491
   54MOL   H13810844   0.179   5.614   0.793  0.0593 -2.6852 -0.5843
   54MOL   H13910845   0.422   5.792   0.756  1.4626 -0.9027  1.4691
   54MOL   H14010846   0.274   5.848   0.825  0.3849  1.6722 -1.8040
   54MOL   H14110847   0.402   5.629   0.962 -0.5843 -0.7359  0.0469
   54MOL   C14210848   0.372   5.804   1.056 -0.5289 -0.2512 -1.2000
   54MOL   O14310849   0.344   5.925   1.055  0.1284  0.0435  0.4227
   54MOL   C14410850   0.417   5.743   1.192 -0.6841 -0.1602  0.1418
   54MOL   C14510851   0.374   5.832   1.306 -1.0232 -0.7784 -0.4439
   54MOL   N14610852   0.397   5.767   1.430  0.0217  0.0613  0.6150
   54MOL   H14710853   0.526   5.743   1.200 -0.5885  0.1555 -1.0045
   54MOL   H14810854   0.386   5.640   1.212 -0.6094 -0.1457  0.3318
   54MOL   H14910855   0.429   5.925   1.288 -3.5104  0.5711 -1.3542
   54MOL   H15010856   0.267   5.852   1.296 -0.4459  1.2709 -3.4481
   54MOL   H15110857   0.474   5.802   1.485  0.2271 -0.9556  0.9796
   54MOL   C15210858   0.337   5.664   1.486 -0.1536 -0.7408  0.1110
   54MOL   O15310859   0.381   5.611   1.584 -0.3364  0.1331  0.1369
   54MOL   C15410860   0.199   5.620   1.434 -0.1487  0.8791  0.1461
   54MOL   C15510861   0.115   5.519   1.517  0.4641  0.0589  0.2019
   54MOL   N15610862   0.178   5.385   1.529 -0.5544 -0.3033 -0.3192
   54MOL   H15710863   0.210   5.591   1.329  0.8534  2.6923 -0.2758
   54MOL   H15810864   0.141   5.713   1.430  0.9307  1.5527  0.0545
   54MOL   H15910865   0.104   5.552   1.621 -0.1661 -0.8060  0.4062
   54MOL   H16010866   0.017   5.518   1.471  0.6912  1.0154 -0.3073
   54MOL   H16110867   0.279   5.385   1.519 -0.5796 -0.5342 -0.5879
   54MOL   C16210868   0.122   5.277   1.584  0.0469 -0.0680 -0.3035
   54MOL   O16310869   0.004   5.279   1.625  0.1858 -0.4607 -0.4524
   54MOL   C16410870   0.211   5.155   1.608 -0.0150 -0.0221  0.2338
   54MOL   C16510871   0.189   5.032   1.509  0.8988 -0.4539  1.1074
   54MOL   N16610872   0.278   4.922   1.519  0.6024 -0.0586 -0.0669
   54MOL   H16710873   0.208   5.125   1.713 -0.3590 -2.9055 -0.5632
   54MOL   H16810874   0.316   5.180   1.587  0.2244 -1.9431 -0.9257
   54MOL   H16910875   0.093   4.988   1.537  0.1137  0.0063 -0.7428
   54MOL   H17010876   0.169   5.054   1.404 -0.9724  2.2221  1.9857
   54MOL   H17110877   0.251   4.832   1.558  0.7335 -0.6189 -1.2559
   54MOL   C17210878   0.399   4.911   1.461  0.1372 -0.5621  0.0199
   54MOL   O17310879   0.461   5.004   1.419 -0.3352 -0.2797 -0.2558
   54MOL   C17410880   0.455   4.766   1.450  0.2213 -0.2511 -1.1120
   54MOL   C17510881   0.567   4.747   1.343  0.0146  0.0246 -0.1616
   54MOL   N17610882   0.585   4.605   1.323 -0.0037 -0.0017 -0.1590
   54MOL   H17710883   0.373   4.695   1.436  0.9672 -1.1410 -0.9890
   54MOL   H17810884   0.498   4.739   1.546 -1.1828 -1.8703 -0.9093
   54MOL   H17910885   0.554   4.800   1.249  1.0815  3.0642  1.3372
   54MOL   H18010886   0.666   4.772   1.381  1.2230 -2.3524 -1.6474
   54MOL   H18110887   0.593   4.539   1.399  0.4659  1.3300  0.9735
   54MOL   C18210888   0.630   4.554   1.205  0.0410  0.0290  0.7089
   54MOL   O18310889   0.628   4.617   1.100 -0.6372  0.0527 -0.0762
   54MOL   C18410890   0.663   4.404   1.186  0.0344  0.2724  0.2882
   54MOL   C18510891   0.811   4.389   1.162 -0.1138  0.4706 -0.2001
   54MOL   N18610892   0.843   4.252   1.199  0.4464  0.0259 -0.7819
   54MOL   H18710893   0.606   4.360   1.104 -0.5500 -0.7583  1.2399
   54MOL   H18810894   0.648   4.356   1.283  2.6872  1.3815  1.3048
   54MOL   H18910895   0.836   4.413   1.058  0.2480 -0.1136 -0.2502
   54MOL   H19010896   0.864   4.464   1.220  1.3469  0.4084 -1.4136
   54MOL   H19110897   0.774   4.185   1.169  0.4402 -0.0431 -0.6148
   54MOL   C19210898   0.962   4.205   1.243  0.2035 -0.0846  0.1349
   54MOL   O19310899   1.059   4.279   1.257  0.0822  0.4497 -0.5588
   54MOL   C19410900   0.963   4.052   1.276  0.1411 -0.1642 -0.3600
   54MOL   C19510901   0.996   4.024   1.426  0.3111 -0.6181  0.3769
   54MOL   N19610902   0.992   3.879   1.442 -0.0291  0.2451  0.2839
   54MOL   H19710903   0.858   4.020   1.276 -0.4270  1.6466 -1.2694
   54MOL   H19810904   1.024   3.987   1.214  0.8221 -0.6084  0.7587
   54MOL   H19910905   1.095   4.054   1.459 -1.0426  3.1218  1.2857
   54MOL   H20010906   0.927   4.072   1.496 -1.4907 -2.7013  0.1161
   54MOL   H20110907   1.025   3.848   1.532  0.4392 -0.1030 -0.0083
   54MOL   H20210908   0.894   3.853   1.447  0.6173 -2.1148  1.4845
   55MOL     C110909   2.062   7.522   1.241  0.0907 -0.0360  0.4808
   55MOL     O210910   2.181   7.533   1.258  0.4089  0.7345 -0.0139
   55MOL     C310911   1.996   7.431   1.344  0.2909  0.7386  0.1631
   55MOL     C410912   2.069   7.420   1.471  0.2275  0.2332 -0.2890
   55MOL     N510913   2.077   7.545   1.546  0.6132 -0.5525 -0.3049
   55MOL     H610914   1.985   7.341   1.284  0.0348  0.1636  1.0645
   55MOL     H710915   1.893   7.465   1.354  0.1653  0.8122 -1.2677
   55MOL     H810916   2.165   7.369   1.476  0.7718  1.0414 -2.3189
   55MOL     H910917   2.012   7.345   1.528 -1.2998  1.8886  0.4283
   55MOL    H1010918   2.152   7.610   1.526  0.4650 -0.7024 -1.3755
   55MOL    H1110919   1.994   7.563   1.166 -2.4163 -0.7923  2.2867
   55MOL    C1210920   1.998   7.600   1.638  0.0670 -0.1114 -0.1298
   55MOL    O1310921   1.902   7.536   1.681  0.0931  0.0351 -0.2192
   55MOL    C1410922   2.025   7.738   1.699 -0.8742  0.1806 -0.3626
   55MOL    C1510923   2.141   7.734   1.798 -1.3951  0.0120 -0.8423
   55MOL    N1610924   2.271   7.757   1.733 -0.2768  0.8708 -0.3070
   55MOL    H1710925   1.942   7.763   1.765 -0.1690 -0.9982  0.9941
   55MOL    H1810926   2.018   0.038   1.626  0.3315  1.5284  0.9658
   55MOL    H1910927   2.123   0.018   1.884 -0.2783 -1.3458  0.4213
   55MOL    H2010928   2.150   7.636   1.846  0.4820 -0.5923 -2.3661
   55MOL    H2110929   2.277   0.067   1.688  1.1331  0.6344 -0.5859
   55MOL    C2210930   2.370   7.667   1.725  0.0564 -0.9775  0.2914
   55MOL    O2310931   2.358   7.550   1.759  0.7553 -0.4824  0.1944
   55MOL    C2410932   2.495   7.705   1.651  0.0269 -0.0802  0.2214
   55MOL    C2510933   2.624   7.626   1.695 -0.3957 -0.9896  0.6547
   55MOL    N2610934   2.668   7.664   1.830  0.3584  0.6246 -0.0819
   55MOL    H2710935   2.512   0.033   1.649  1.3402 -0.2878 -0.6392
   55MOL    H2810936   2.472   7.682   1.547 -1.6386 -0.6416  0.7107
   55MOL    H2910937   2.614   7.517   1.702  0.3146 -1.1973 -1.3537
   55MOL    H3010938   2.700   7.643   1.618  1.2472  0.1101  2.4629
   55MOL    H3110939   2.641   7.597   1.901  1.4926 -1.4888 -1.5849
   55MOL    C3210940   2.781   7.737   1.843 -0.4399 -0.0629 -0.1504
   55MOL    O3310941   2.830   0.029   1.758 -0.0406 -0.3422  0.1517
   55MOL    C3410942   2.857   7.714   1.978 -0.3604 -0.6194  0.0505
   55MOL    C3510943   2.876   0.071   2.043  0.2913 -0.0840 -0.0098
   55MOL    N3610944   2.970   0.159   1.976 -0.1724 -0.7105  0.4787
   55MOL    H3710945   2.956   7.674   1.960  0.5082  1.6698 -0.4060
   55MOL    H3810946   2.807   7.639   2.039 -0.7221 -1.2210 -0.9612
   55MOL    H3910947   2.785   0.131   2.037  0.4612  0.3390  1.4362
   55MOL    H4010948   2.899   0.064   2.150 -0.2805  1.9413  0.2793
   55MOL    H4110949   2.968   0.166   1.875  0.8525  3.6960  0.6813
   55MOL    C4210950   3.076   0.223   2.037 -0.4022 -0.0452 -0.8525
   55MOL    O4310951   3.081   0.238   2.162  0.2953 -0.4286 -0.5370
   55MOL    C4410952   3.185   0.273   1.941 -0.5302  0.1471  0.4163
   55MOL    C4510953   3.334   0.226   1.972  0.5353  1.2285  0.1823
   55MOL    N4610954   3.398   0.304   2.065  0.4507  0.0413  0.2326
   55MOL    H4710955   3.173   0.248   1.835 -0.8216 -0.6325  0.6261
   55MOL    H4810956   3.177   0.381   1.938 -2.4383  0.0076 -1.3108
   55MOL    H4910957   3.334   0.121   2.002 -0.0030  1.6946  1.8143
   55MOL    H5010958   3.407   0.221   1.891  0.6182  0.9498  0.2747
   55MOL    H5110959   3.413   0.402   2.048  0.7267  0.2474  1.5895
   55MOL    C5210960   3.444   0.276   2.183 -0.1319 -0.4441  0.0419
   55MOL    O5310961   3.430   0.167   2.235  0.5128 -0.6985 -0.0166
   55MOL    C5410962   3.529   0.384   2.246 -0.2285  0.2245 -0.1687
   55MOL    C5510963   3.670   0.341   2.279 -0.3111 -0.7185  0.1326
   55MOL    N5610964   3.777   0.393   2.190 -0.0032 -0.3094 -0.5192
   55MOL    H5710965   3.520   0.475   2.187 -1.6742  2.0267  2.7164
   55MOL    H5810966   3.475   0.400   2.339 -2.1257 -0.9418 -1.0465
   55MOL    H5910967   3.681   0.233   2.291 -0.1727 -0.5380  1.7003
   55MOL    H6010968   3.709   0.389   2.369 -0.4084 -1.2062  0.4364
   55MOL    H6110969   3.849   0.332   2.154 -0.2647 -2.5320  2.5202
   55MOL    C6210970   3.808   0.526   2.195 -0.0457 -0.2601 -0.3660
   55MOL    O6310971   3.741   0.616   2.249  0.0721  0.1269 -0.2053
   55MOL    C6410972   3.941   0.578   2.150  0.4470 -0.0101  0.2456
   55MOL    C6510973   3.940   0.715   2.068  0.0059  0.4446 -0.8890
   55MOL    N6610974   3.909   0.837   2.153 -0.5244  0.0028 -0.2198
   55MOL    H6710975   4.012   0.593   2.231 -0.9052  0.8877  1.2928
   55MOL    H6810976   3.988   0.501   2.088 -2.8659 -2.1952  0.3081
   55MOL    H6910977   4.039   0.717   2.023  0.6737  0.1368  0.5625
   55MOL    H7010978   3.868   0.715   1.986  0.0694 -2.4271 -1.0236
   55MOL    H7110979   3.816   0.837   2.192 -1.3501  0.1522 -2.1126
   55MOL    C7210980   3.995   0.920   2.213 -0.5557  0.3187 -0.7622
   55MOL    O7310981   4.104   0.947   2.165 -0.0955  0.0373 -0.6220
   55MOL    C7410982   3.957   0.978   2.348  0.2915 -0.0727 -0.7469
   55MOL    C7510983   3.997   1.126   2.362 -0.3354  0.3553 -0.0218
   55MOL    N7610984   3.901   1.202   2.444 -0.6166 -0.5435  0.2349
   55MOL    H7710985   3.849   0.971   2.366  0.3587  0.4650 -0.1160
   55MOL    H7810986   4.008   0.928   2.430 -0.3488  0.2687 -0.1327
   55MOL    H7910987   4.089   1.122   2.420  0.3542  1.0124 -1.0651
   55MOL    H8010988   4.029   1.171   2.268  0.0391 -0.0642 -0.0954
   55MOL    H8110989   3.935   1.214   2.539 -1.1908  0.9973  0.2669
   55MOL    C8210990   3.781   1.235   2.403 -0.3525  0.6849  0.0640
   55MOL    O8310991   3.739   1.217   2.291 -0.0329 -0.2548  0.3670
   55MOL    C8410992   3.693   1.281   2.521  0.1761 -0.0347 -0.7335
   55MOL    C8510993   3.543   1.298   2.485 -0.3813 -0.0038 -1.0588
   55MOL    N8610994   3.467   1.183   2.524  0.2669  0.3822  0.0929
   55MOL    H8710995   3.700   1.206   2.600  0.2229 -0.9625 -1.6077
   55MOL    H8810996   3.737   1.369   2.566  0.6768  0.5258 -2.2985
   55MOL    H8910997   3.504   1.389   2.533  1.9924  0.6305 -0.2809
   55MOL    H9010998   3.523   1.315   2.379  0.0242 -3.1196 -1.6774
   55MOL    H9110999   3.520   1.097   2.521 -0.5422 -0.2304  2.2584
   55MOL    C9211000   3.335   1.183   2.568 -0.4859 -1.0280 -0.2341
   55MOL    O9311001   3.275   1.286   2.585 -0.3407 -0.1642  0.3125
   55MOL    C9411002   3.266   1.047   2.582 -0.3572  0.5228  0.3389
   55MOL    C9511003   3.110   1.048   2.583  0.4848  0.4496 -0.3451
   55MOL    N9611004   3.052   1.089   2.708 -0.3680 -0.4155  0.5250
   55MOL    H9711005   3.296   0.984   2.498  1.7536  1.6929  0.1685
   55MOL    H9811006   3.322   0.998   2.661  0.4298 -0.5873 -0.8795
   55MOL    H9911007   3.068   1.112   2.505 -0.9854  1.5643  1.3304
   55MOL   H10011008   3.074   0.948   2.561 -0.4587  0.7056  0.0420
   55MOL   H10111009   3.115   1.115   2.782  0.2228 -0.8952  0.1908
   55MOL   C10211010   2.918   1.097   2.732  0.2942 -0.6190  0.4002
   55MOL   O10311011   2.837   1.066   2.646 -0.1394  0.1041 -0.3058
   55MOL   C10411012   2.861   1.135   2.865 -0.0510 -0.2261  0.7150
   55MOL   C10511013   2.828   1.288   2.872  0.4130 -0.3099  0.5071
   55MOL   N10611014   2.944   1.370   2.913  0.0426 -0.2885  0.3251
   55MOL   H10711015   2.933   1.112   2.944  0.3700 -1.4369 -0.0121
   55MOL   H10811016   2.765   1.086   2.880 -0.6610  0.5754 -0.5176
   55MOL   H10911017   2.789   1.334   2.781  2.2184  0.6256  0.1743
   55MOL   H11011018   2.757   1.290   2.954  0.0248  0.9856  0.1458
   55MOL   H11111019   2.963   1.383   3.012 -2.2208  0.4030  0.6899
   55MOL   C11211020   3.018   1.442   2.829 -0.6051  0.1655  0.2193
   55MOL   O11311021   2.991   1.447   2.710 -0.5963 -0.2084  0.0984
   55MOL   C11411022   3.130   1.526   2.890  0.1614  0.3222  0.0027
   55MOL   C11511023   3.264   1.504   2.824  0.1338  0.2802  0.6774
   55MOL   N11611024   3.363   1.577   2.883  0.2421 -0.7426 -0.1342
   55MOL   H11711025   3.146   1.496   2.993 -2.5887  1.8081  0.8997
   55MOL   H11811026   3.094   1.629   2.885 -1.1486 -0.1117  0.4061
   55MOL   H11911027   3.290   1.399   2.840  0.3658  0.2864  0.3500
   55MOL   H12011028   3.251   1.531   2.719  0.5953  1.8015  1.0027
   55MOL   H12111029   3.345   1.623   2.971  1.8838  1.3695 -0.8579
   55MOL   C12211030   3.472   1.616   2.818  0.3945  0.0482  0.5205
   55MOL   O12311031   3.504   1.560   2.717 -0.0657 -0.4985  0.4903
   55MOL   C12411032   3.546   1.733   2.862 -0.5152  0.4566 -0.1381
   55MOL   C12511033   3.681   1.694   2.916  0.0569 -1.0935 -0.6173
   55MOL   N12611034   3.689   1.641   3.056  0.2581  0.5843  0.4681
   55MOL   H12711035   3.481   1.794   2.925  0.4945  1.9493 -0.5088
   55MOL   H12811036   3.561   1.787   2.768 -0.8134  0.5437 -0.1350
   55MOL   H12911037   3.723   1.620   2.848  3.8254 -0.0678  0.4551
   55MOL   H13011038   3.754   1.774   2.906 -1.6763  0.4469 -1.3390
   55MOL   H13111039   3.729   1.550   3.070 -1.8919 -0.6584 -1.2489
   55MOL   C13211040   3.640   1.692   3.166 -0.0414  0.9743 -0.1428
   55MOL   O13311041   3.581   1.802   3.167 -0.5082 -0.1752  0.3832
   55MOL   C13411042   3.648   1.594   3.289 -0.1688 -0.7073 -0.4265
   55MOL   C13511043   3.553   1.627   3.406 -0.0342  0.6116 -0.1149
   55MOL   N13611044   3.601   1.580   3.537  0.3004 -0.5332  0.5867
   55MOL   H13711045   3.751   1.611   3.322 -0.7578 -0.5579  1.4193
   55MOL   H13811046   3.625   1.490   3.263  1.9200 -0.8312 -1.9298
   55MOL   H13911047   3.560   1.736   3.406  1.4038  0.5371  1.2915
   55MOL   H14011048   3.452   1.593   3.383  0.6971 -0.3392 -2.0583
   55MOL   H14111049   3.624   1.652   3.603 -0.3685  0.6000 -0.4055
   55MOL   C14211050   3.603   1.446   3.564  0.1504  0.0939 -0.3034
   55MOL   O14311051   3.562   1.362   3.483 -0.2143  0.1174 -0.0701
   55MOL   C14411052   3.664   1.410   3.698 -0.0334  0.3732 -0.6272
   55MOL   C14511053   3.777   1.306   3.672 -0.2525  0.1200  0.1415
   55MOL   N14611054   3.868   1.298   3.794  0.8766  0.7600 -0.0329
   55MOL   H14711055   3.585   1.361   3.755 -1.5410  1.4732 -1.7301
   55MOL   H14811056   3.690   1.495   3.760  1.5538 -0.3214 -0.3223
   55MOL   H14911057   3.736   1.208   3.647  0.3068  0.2034 -1.1383
   55MOL   H15011058   3.840   1.337   3.589  1.5134  2.3671  2.2154
   55MOL   H15111059   3.893   1.390   3.826 -0.1391  2.2301 -3.2758
   55MOL   C15211060   3.891   1.190   3.862 -0.1405  0.2583 -0.4683
   55MOL   O15311061   3.867   1.079   3.816 -0.2780  0.1322  0.3720
   55MOL   C15411062   3.949   1.202   3.998  0.2305 -0.0481 -0.2937
   55MOL   C15511063   3.851   1.155   4.115  0.2132 -0.0774  1.0382
   55MOL   N15611064   3.750   1.255   4.149 -0.0947  0.0479 -0.4594
   55MOL   H15711065   3.972   1.305   4.025  1.0601 -0.8896  2.4157
   55MOL   H15811066   4.042   1.146   4.004  0.9787  1.1981 -0.1363
   55MOL   H15911067   3.797   1.060   4.106 -1.8316  1.1706 -0.3092
   55MOL   H16011068   3.914   1.140   4.202 -0.4877 -0.7029  1.4482
   55MOL   H16111069   3.755   1.345   4.104  1.7875  0.9136  1.4011
   55MOL   C16211070   3.650   1.237   4.236 -0.7412  0.3335 -0.4638
   55MOL   O16311071   3.646   1.131   4.297 -0.1385 -0.3327  0.1538
   55MOL   C16411072   3.542   1.351   4.261  0.6425 -0.7030 -0.0493
   55MOL   C16511073   3.483   1.372   4.402  0.4101 -0.0852  0.3952
   55MOL   N16611074   3.570   1.433   4.502 -0.0689 -0.2835 -0.3830
   55MOL   H16711075   3.458   1.334   4.193  1.0616  0.3413 -0.8434
   55MOL   H16811076   3.586   1.447   4.234  2.7919 -1.1364  1.8713
   55MOL   H16911077   3.404   1.447   4.394  2.6598  2.3757  0.6290
   55MOL   H17011078   3.441   1.277   4.433 -0.7447  1.0386  2.4048
   55MOL   H17111079   3.590   1.531   4.488 -1.8822 -0.2926 -3.6161
   55MOL   C17211080   3.568   1.394   4.629 -0.0618 -0.8886 -0.1278
   55MOL   O17311081   3.535   1.279   4.661 -0.4376  0.4157  0.2122
   55MOL   C17411082   3.626   1.485   4.740 -0.1068  0.1633 -0.5182
   55MOL   C17511083   3.518   1.507   4.850  0.0229 -0.9164 -0.1757
   55MOL   N17611084   3.569   1.605   4.945  0.3188  0.5232 -0.4997
   55MOL   H17711085   3.658   1.582   4.702  1.7576 -0.7381 -1.2806
   55MOL   H17811086   3.713   1.430   4.774 -0.0794 -0.9782 -2.3854
   55MOL   H17911087   3.428   1.555   4.812 -0.4907 -0.2148  1.8464
   55MOL   H18011088   3.485   1.424   4.912  1.8482 -0.7782  1.0378
   55MOL   H18111089   3.557   1.702   4.917 -0.7300  0.3098 -0.8221
   55MOL   C18211090   3.602   1.577   5.076  0.3181  0.0582 -0.0461
   55MOL   O18311091   3.613   1.466   5.125  0.7512 -0.4346 -0.3043
   55MOL   C18411092   3.637   1.707   5.157  0.0357 -0.0609  0.7826
   55MOL   C18511093   3.654   1.681   5.311  0.4863  0.5768 -0.1649
   55MOL   N18611094   3.654   1.800   5.392 -0.0691 -0.5115  0.3874
   55MOL   H18711095   3.566   1.786   5.133 -1.7863 -1.8643  0.0621
   55MOL   H18811096   3.732   1.744   5.119 -0.0885 -1.5868 -1.0462
   55MOL   H18911097   3.580   1.611   5.351 -0.1129  1.6222  0.5759
   55MOL   H19011098   3.752   1.636   5.328 -0.3850 -0.0960  3.7066
   55MOL   H19111099   3.628   1.883   5.342 -2.3829 -1.1558  0.4974
   55MOL   C19211100   3.679   1.813   5.520  0.1744  0.6611  0.0631
   55MOL   O19311101   3.696   1.717   5.595  0.3292  1.0637 -0.0545
   55MOL   C19411102   3.674   1.952   5.583 -0.3378  0.3774 -0.7014
   55MOL   C19511103   3.783   1.980   5.690  0.3386 -0.6867 -0.0282
   55MOL   N19611104   3.771   2.109   5.752  0.2389  0.2201  0.0500
   55MOL   H19711105   3.682   2.030   5.508  0.0437  0.2296 -0.8187
   55MOL   H19811106   3.576   1.962   5.629  0.9476  2.1797  1.8067
   55MOL   H19911107   3.774   1.905   5.769 -0.3935 -0.3735  0.1880
   55MOL   H20011108   3.880   1.944   5.653  1.0333 -0.3487  1.4140
   55MOL   H20111109   3.839   2.107   5.827  1.3045  3.3249 -0.7563
   55MOL   H20211110   3.814   2.180   5.695  1.1986 -0.3174  0.0868
   56MOL     C111111   4.661   6.732   3.438 -0.2727 -0.2370 -0.4430
   56MOL     O211112   4.552   6.688   3.482  0.0717 -0.4289 -0.3544
   56MOL     C311113   4.689   6.720   3.288  0.6302  0.3930 -0.1821
   56MOL     C411114   4.608   6.819   3.199  0.2604 -0.5985  0.1592
   56MOL     N511115   4.684   6.943   3.184 -0.0814 -0.2003  0.0495
   56MOL     H611116   4.663   6.617   3.263 -1.0892  0.8811 -0.5043
   56MOL     H711117   4.794   6.727   3.263  0.5036 -1.3155 -1.2852
   56MOL     H811118   4.513   6.842   3.247 -0.0134  0.2134 -0.7409
   56MOL     H911119   4.589   6.777   3.100 -0.0761  3.8039 -1.7669
   56MOL    H1011120   4.784   6.942   3.203  0.5564 -2.8237 -2.9878
   56MOL    H1111121   4.747   6.749   3.502  0.6649  0.5757 -1.8888
   56MOL    C1211122   4.633   7.061   3.152  0.4483 -0.1559  0.3908
   56MOL    O1311123   4.514   7.077   3.134 -0.2442 -0.0748 -0.1135
   56MOL    C1411124   4.737   7.179   3.148 -0.6297  0.7369 -0.1951
   56MOL    C1511125   4.682   7.306   3.210  0.1069 -0.5806  0.7654
   56MOL    N1611126   4.749   7.424   3.161 -0.0398  0.3054  0.6338
   56MOL    H1711127   4.755   7.182   3.040  0.2256 -0.6522 -0.1065
   56MOL    H1811128   4.833   7.161   3.196  0.9106  2.2175 -2.5905
   56MOL    H1911129   4.575   7.312   3.189  0.4603  1.6610 -0.5380
   56MOL    H2011130   4.696   7.309   3.318  0.0426 -1.4193  0.7995
   56MOL    H2111131   4.835   7.442   3.209  0.3987  1.5791 -0.5937
   56MOL    C2211132   4.716   7.498   3.058  0.3024  0.6194  0.2637
   56MOL    O2311133   4.609   7.477   2.998  0.0008 -0.1532  0.0929
   56MOL    C2411134   4.806   7.615   3.020 -0.5451 -0.4131 -0.3102
   56MOL    C2511135   4.728   7.751   3.014  0.5584  0.1548  0.5074
   56MOL    N2611136   4.702   0.028   3.142 -0.0624  0.3119 -0.1649
   56MOL    H2711137   4.863   7.618   2.927  2.0497  1.5826  1.3058
   56MOL    H2811138   4.886   7.619   3.094 -1.0133  1.0787  0.1176
   56MOL    H2911139   4.793   0.028   2.948 -1.4210 -0.1862 -1.8122
   56MOL    H3011140   4.636   7.744   2.956  0.7402 -2.4139  0.4624
   56MOL    H3111141   4.625   7.773   3.197 -0.9017 -0.1699 -1.6106
   56MOL    C3211142   4.766   0.137   3.180  0.0510 -0.2896  0.7456
   56MOL    O3311143   4.849   0.203   3.112  0.3977 -0.3296 -0.3079
   56MOL    C3411144   4.737   0.177   3.322  0.7699 -0.6493  0.4667
   56MOL    C3511145   4.668   0.318   3.314 -0.3588  0.6861  0.0131
   56MOL    N3611146   4.525   0.317   3.295 -0.0359 -0.2164  0.2328
   56MOL    H3711147   4.839   0.177   3.361  0.5948 -1.0709  0.9225
   56MOL    H3811148   4.685   0.101   3.380  0.4856 -0.9787 -0.2054
   56MOL    H3911149   4.688   0.382   3.400  0.0501  0.4610  0.0899
   56MOL    H4011150   4.702   0.370   3.224 -2.3273 -2.2092 -2.5220
   56MOL    H4111151   4.486   0.228   3.267 -0.3472  0.2622 -0.8763
   56MOL    C4211152   4.438   0.420   3.302  0.2691  0.3176  0.4963
   56MOL    O4311153   4.478   0.534   3.311  0.3067 -0.2709 -0.5460
   56MOL    C4411154   4.293   0.393   3.273 -0.1140  0.4747  0.0455
   56MOL    C4511155   4.237   0.462   3.150  0.7964 -0.0818 -0.0441
   56MOL    N4611156   4.116   0.550   3.165 -0.1852 -0.1711  0.4144
   56MOL    H4711157   4.282   0.285   3.266  0.1826  0.3599  1.1797
   56MOL    H4811158   4.240   0.422   3.364 -1.5584  0.6276 -0.8308
   56MOL    H4911159   4.311   0.507   3.084  1.0287  0.3224  0.4891
   56MOL    H5011160   4.204   0.380   3.087 -1.2774  0.2912  0.5093
   56MOL    H5111161   4.110   0.602   3.251  0.4897  1.1622 -0.3376
   56MOL    C5211162   4.005   0.551   3.096 -0.0630  0.2392 -0.7178
   56MOL    O5311163   3.984   0.475   3.000 -0.2306  0.2524 -0.1644
   56MOL    C5411164   3.896   0.636   3.147  0.4348 -0.0582 -0.0607
   56MOL    C5511165   3.775   0.660   3.049 -0.3013  0.4981  0.3150
   56MOL    N5611166   3.811   0.718   2.922 -0.0320 -0.2408 -0.4457
   56MOL    H5711167   3.853   0.592   3.237  0.9446  0.7249  0.5642
   56MOL    H5811168   3.930   0.735   3.176  1.3496 -0.6666  0.9575
   56MOL    H5911169   3.701   0.716   3.107  0.8081  1.1668  1.0991
   56MOL    H6011170   3.746   0.559   3.021  0.5536  0.0069  1.1703
   56MOL    H6111171   3.873   0.673   2.856 -0.0616 -0.2286 -0.4818
   56MOL    C6211172   3.784   0.846   2.886 -0.3072  0.0238 -0.0106
   56MOL    O6311173   3.707   0.924   2.954 -0.2565 -0.0851  0.0333
   56MOL    C6411174   3.846   0.894   2.760  0.2206 -0.1539  0.4309
   56MOL    C6511175   3.970   0.985   2.772 -0.7232 -0.2533  0.0182
   56MOL    N6611176   4.082   0.927   2.843 -0.1487 -0.3682  0.1506
   56MOL    H6711177   3.867   0.797   2.716 -0.5572 -0.4836  0.7847
   56MOL    H6811178   3.773   0.956   2.708 -0.3804  0.1846  1.6722
   56MOL    H6911179   4.011   1.018   2.677  2.1227 -0.0348  1.2439
   56MOL    H7011180   3.943   1.072   2.832 -1.1952 -0.4521  0.0913
   56MOL    H7111181   4.113   0.958   2.935  2.5909 -1.9735 -0.1831
   56MOL    C7211182   4.162   0.824   2.812  0.6502 -0.7648  0.4275
   56MOL    O7311183   4.157   0.775   2.702 -0.0066 -0.4280 -0.2264
   56MOL    C7411184   4.258   0.773   2.915 -0.7986  0.5532  0.2320
   56MOL    C7511185   4.404   0.785   2.886  0.3501 -0.2173 -0.4873
   56MOL    N7611186   4.469   0.662   2.932 -0.1069  0.7443 -0.9212
   56MOL    H7711187   4.228   0.795   3.017 -2.6860  0.6184 -0.3194
   56MOL    H7811188   4.237   0.666   2.919 -1.5498  0.6995  0.3001
   56MOL    H7911189   4.430   0.813   2.784 -0.2741 -0.0930 -0.6088
   56MOL    H8011190   4.444   0.868   2.944 -1.2531 -0.0256  0.3728
   56MOL    H8111191   4.503   0.667   3.027 -0.6077 -1.4867 -0.6005
   56MOL    C8211192   4.504   0.550   2.861 -0.4347 -0.5429 -0.2681
   56MOL    O8311193   4.478   0.537   2.744  0.4386  0.2215  0.1713
   56MOL    C8411194   4.584   0.431   2.926 -0.5848 -0.0318 -0.4503
   56MOL    C8511195   4.571   0.298   2.846  0.2175 -0.7507  0.9738
   56MOL    N8611196   4.435   0.240   2.832  0.2564  0.3695  0.0480
   56MOL    H8711197   4.691   0.453   2.935 -0.7766 -0.1580  2.8232
   56MOL    H8811198   4.550   0.424   3.029  0.2384  1.8790 -0.0329
   56MOL    H8911199   4.612   0.315   2.746 -1.7949  0.3282  0.2997
   56MOL    H9011200   4.643   0.234   2.898  2.4663 -0.1203 -1.2876
   56MOL    H9111201   4.405   0.232   2.736 -1.6611 -0.0216  0.6566
   56MOL    C9211202   4.375   0.171   2.930  0.5547 -0.5439  0.0770
   56MOL    O9311203   4.412   0.178   3.050  0.2991 -0.2379 -0.3882
   56MOL    C9411204   4.250   0.094   2.895 -0.0625  0.1189 -0.0696
   56MOL    C9511205   4.234   7.751   2.986  0.2663 -0.2921 -0.2584
   56MOL    N9611206   4.121   7.668   2.943  0.1591 -0.6389 -0.3342
   56MOL    H9711207   4.183   0.178   2.909  1.4839  1.5432 -1.0463
   56MOL    H9811208   4.263   0.057   2.793  0.4640  0.0014  0.0390
   56MOL    H9911209   4.323   7.689   2.995  0.0634 -0.3512  1.6730
   56MOL   H10011210   4.219   0.010   3.087 -1.8964  1.2223 -1.1225
   56MOL   H10111211   4.128   7.620   2.854  0.7816  0.5970 -0.9611
   56MOL   C10211212   4.014   7.646   3.016 -0.4718  0.3931  0.3853
   56MOL   O10311213   3.993   7.688   3.130  0.4770 -0.2645  0.2656
   56MOL   C10411214   3.900   7.572   2.948 -0.2207 -0.3265 -0.2572
   56MOL   C10511215   3.866   7.450   3.033 -0.3093 -0.9812  0.4832
   56MOL   N10611216   3.742   7.387   2.981 -0.0302  0.6207  0.1475
   56MOL   H10711217   3.912   7.534   2.847 -1.6248 -1.8090  0.1040
   56MOL   H10811218   3.821   7.647   2.951 -0.5639 -0.7503  1.8066
   56MOL   H10911219   3.945   7.377   3.049  0.5600 -0.4989 -1.3781
   56MOL   H11011220   3.842   7.489   3.132  0.9977 -1.1020  0.8558
   56MOL   H11111221   3.742   7.357   2.885  0.1045 -2.5335  1.0627
   56MOL   C11211222   3.624   7.382   3.051  0.1036 -0.1004 -0.2497
   56MOL   O11311223   3.604   7.425   3.169  0.5301 -1.2444 -0.6641
   56MOL   C11411224   3.503   7.316   2.975  0.3955  0.0345  0.2847
   56MOL   C11511225   3.385   7.256   3.066 -0.0826 -0.4976 -0.0139
   56MOL   N11611226   3.434   7.129   3.123  0.2772 -0.4011  0.0723
   56MOL   H11711227   3.541   7.245   2.901 -0.9165 -1.9895  1.5150
   56MOL   H11811228   3.475   7.397   2.908 -0.8438  1.1463  2.1133
   56MOL   H11911229   3.354   7.328   3.142  1.6650  0.7869 -0.5098
   56MOL   H12011230   3.297   7.237   3.004  0.0025 -0.6459 -0.0909
   56MOL   H12111231   3.523   7.090   3.095  0.2342  1.7272 -3.4332
   56MOL   C12211232   3.349   7.050   3.187 -0.0454  0.2775 -0.3599
   56MOL   O12311233   3.238   7.097   3.225  0.2831  0.4821  0.0229
   56MOL   C12411234   3.387   6.906   3.233 -0.2450 -0.2518  0.2320
   56MOL   C12511235   3.285   6.809   3.171  0.0755  0.2342  0.2220
   56MOL   N12611236   3.302   6.810   3.024 -0.0273 -0.0904 -0.2562
   56MOL   H12711237   3.388   6.912   3.342 -2.0048  0.4077  0.2256
   56MOL   H12811238   3.486   6.871   3.204  0.7954  1.7800  1.2660
   56MOL   H12911239   3.299   6.708   3.211  0.5747  1.0812  2.2089
   56MOL   H13011240   3.182   6.834   3.196  0.3212  0.3628  1.0988
   56MOL   H13111241   3.241   6.877   2.978 -0.3194 -0.4852 -0.4453
   56MOL   C13211242   3.400   6.748   2.953 -0.0437 -0.7962  0.1709
   56MOL   O13311243   3.467   6.660   3.007 -0.3986  0.0484 -0.0079
   56MOL   C13411244   3.426   6.779   2.804  0.3114  0.1915 -0.1814
   56MOL   C13511245   3.543   6.695   2.749  0.5001  1.0532 -0.1358
   56MOL   N13611246   3.571   6.721   2.608 -1.0049  0.1990  0.5951
   56MOL   H13711247   3.446   6.886   2.799  0.4031  0.1821 -0.0238
   56MOL   H13811248   3.335   6.757   2.749  1.1499 -3.5468 -0.2407
   56MOL   H13911249   3.632   6.704   2.812  0.5872  2.6499 -0.4574
   56MOL   H14011250   3.510   6.591   2.753 -2.2791  1.8471 -1.3989
   56MOL   H14111251   3.493   6.742   2.548  0.1990  0.4146 -0.9252
   56MOL   C14211252   3.692   6.724   2.554 -1.0090  0.1711  0.8296
   56MOL   O14311253   3.795   6.703   2.612 -0.4243 -0.3264  0.1318
   56MOL   C14411254   3.693   6.768   2.403 -0.1604  0.2187 -0.1790
   56MOL   C14511255   3.827   6.827   2.353  0.0817  0.1336  0.1807
   56MOL   N14611256   3.825   6.872   2.214  0.0302 -0.2577 -0.2755
   56MOL   H14711257   3.622   6.850   2.396 -0.7102 -0.1425  1.0432
   56MOL   H14811258   3.657   6.685   2.341 -0.9000  0.7615 -0.4845
   56MOL   H14911259   3.863   6.902   2.424  0.2978 -0.5408  0.7919
   56MOL   H15011260   3.904   6.750   2.346  0.2325 -0.0448  3.2423
   56MOL   H15111261   3.817   6.971   2.192  0.7110 -0.1239  0.0555
   56MOL   C15211262   3.846   6.793   2.109  0.0930 -0.2480 -0.6128
   56MOL   O15311263   3.854   6.671   2.116  0.0928 -0.0891  0.4372
   56MOL   C15411264   3.858   6.854   1.967  0.1579  0.4050 -0.7378
   56MOL   C15511265   3.976   6.788   1.892 -0.2042  0.0319  0.4769
   56MOL   N15611266   4.022   6.875   1.783  0.5793  0.0113  0.2218
   56MOL   H15711267   3.880   6.960   1.980  2.3301 -0.1567  0.3065
   56MOL   H15811268   3.764   6.831   1.915  1.1883 -1.7174 -1.7211
   56MOL   H15911269   4.057   6.801   1.963  0.4235  0.2994 -0.2800
   56MOL   H16011270   3.957   6.681   1.882 -2.1586  0.4657 -0.8126
   56MOL   H16111271   4.048   6.970   1.805  2.4762 -0.1788 -1.0685
   56MOL   C16211272   4.060   6.845   1.657  0.6254  1.1263  0.2897
   56MOL   O16311273   4.037   6.734   1.610  0.5084 -0.4438  0.0943
   56MOL   C16411274   4.117   6.950   1.573  0.1029  0.2777  0.2074
   56MOL   C16511275   4.064   6.956   1.430  0.6690  0.9746  0.0687
   56MOL   N16611276   4.150   6.869   1.349 -0.6176  0.2956  0.7316
   56MOL   H16711277   4.225   6.950   1.589  0.0415  0.7342  0.6393
   56MOL   H16811278   4.097   7.046   1.621 -0.8943 -0.0143  0.3810
   56MOL   H16911279   3.960   6.926   1.427  0.7383  0.6564  0.8004
   56MOL   H17011280   4.084   7.060   1.403  1.7370  1.1903  1.6560
   56MOL   H17111281   4.230   6.824   1.391  1.0049  1.2250 -1.2793
   56MOL   C17211282   4.146   6.854   1.213 -0.0265 -0.2459  0.9591
   56MOL   O17311283   4.071   6.915   1.136 -0.5659  0.3743 -0.2084
   56MOL   C17411284   4.237   6.746   1.159 -0.7757  0.2524 -1.0403
   56MOL   C17511285   4.210   6.601   1.208 -0.2764 -0.3898 -0.4154
   56MOL   N17611286   4.295   6.515   1.130  0.0347 -0.9639  0.6756
   56MOL   H17711287   4.345   6.756   1.174 -0.5501 -0.1440 -2.3575
   56MOL   H17811288   4.222   6.743   1.052 -0.5338  1.5018 -1.1169
   56MOL   H17911289   4.245   6.585   1.310  0.1394  1.9523 -0.1533
   56MOL   H18011290   4.105   6.571   1.213  0.2062 -1.9434  0.7939
   56MOL   H18111291   4.376   6.483   1.182  1.7996  0.3482 -1.2077
   56MOL   C18211292   4.274   6.471   1.007 -0.5894  0.2100  0.7431
   56MOL   O18311293   4.174   6.487   0.945 -0.0123 -0.0317  0.6016
   56MOL   C18411294   4.378   6.381   0.945 -0.9097  0.3329  0.2774
   56MOL   C18511295   4.333   6.312   0.820  0.4414  0.4026  0.2685
   56MOL   N18611296   4.303   6.399   0.702  0.2948  0.1747 -0.1358
   56MOL   H18711297   4.396   6.298   1.014  0.1750  1.6193  1.6003
   56MOL   H18811298   4.473   6.432   0.926 -2.0306  2.3018 -0.1500
   56MOL   H18911299   4.405   6.235   0.792  0.6017 -0.0049  1.7538
   56MOL   H19011300   4.241   6.257   0.840  1.9666 -2.5691 -0.5003
   56MOL   H19111301   4.215   6.449   0.701 -0.3472 -0.9371 -1.0838
   56MOL   C19211302   4.378   6.407   0.589 -0.1667  0.1166  0.4978
   56MOL   O19311303   4.481   6.349   0.575  0.0174  0.4680  0.0378
   56MOL   C19411304   4.325   6.494   0.478 -0.2251  0.6306 -0.2910
   56MOL   C19511305   4.328   6.430   0.339  0.2711  0.4936  0.6374
   56MOL   N19611306   4.222   6.343   0.319  0.5107  1.3240 -0.4259
   56MOL   H19711307   4.224   6.528   0.503  0.0056  0.9670  0.1811
   56MOL   H19811308   4.395   6.577   0.483 -0.9793  1.1589  2.3283
   56MOL   H19911309   4.332   6.506   0.261  0.3575 -1.2655 -1.1021
   56MOL   H20011310   4.424   6.382   0.324  0.7083  1.6032 -0.1880
   56MOL   H20111311   4.218   6.318   0.221 -1.6356 -1.0059  0.1967
   56MOL   H20211312   4.133   6.390   0.327 -0.0344  0.5160 -1.5723
   57MOL     C111313   1.146   0.960   4.359 -0.0058  0.5702  0.2858
   57MOL     O211314   1.081   0.989   4.461  0.6078 -0.3030  0.1287
   57MOL     C311315   1.164   1.060   4.245 -0.1009 -0.1025  0.0699
   57MOL     C411316   1.021   1.118   4.224 -0.0881  0.7208  0.7678
   57MOL     N511317   0.979   1.233   4.292 -0.1754 -0.1327 -0.0232
   57MOL     H611318   1.204   1.027   4.150  4.1560  3.2042  0.5491
   57MOL     H711319   1.222   1.151   4.261 -2.5689  1.4317  0.4548
   57MOL     H811320   0.946   1.040   4.233 -0.4851  1.0879  0.6596
   57MOL     H911321   1.014   1.150   4.120 -0.2650 -0.6491  0.3459
   57MOL    H1011322   1.040   1.312   4.309  0.7769 -0.5169 -1.5711
   57MOL    H1111323   1.193   0.862   4.350  1.0840  1.1435 -0.3807
   57MOL    C1211324   0.852   1.257   4.328 -0.0658 -0.3795 -0.5099
   57MOL    O1311325   0.760   1.174   4.323 -0.0242  0.0847  0.0775
   57MOL    C1411326   0.828   1.398   4.389 -0.1565  0.2531 -0.5264
   57MOL    C1511327   0.685   1.467   4.365 -1.1073  0.3964 -0.6623
   57MOL    N1611328   0.641   1.485   4.228  0.7287  0.5430 -0.0829
   57MOL    H1711329   0.901   1.463   4.340 -0.9125  0.5443 -1.2854
   57MOL    H1811330   0.870   1.394   4.490  1.3717  0.1459 -1.1420
   57MOL    H1911331   0.619   1.393   4.411 -2.2573  0.8210 -1.6219
   57MOL    H2011332   0.673   1.560   4.420  2.6978 -0.3567  1.6531
   57MOL    H2111333   0.686   1.423   4.163 -0.5872 -0.8133  0.2514
   57MOL    C2211334   0.557   1.585   4.187 -0.8468  0.3593 -0.3370
   57MOL    O2311335   0.488   1.648   4.269 -0.3092 -0.2356 -0.4703
   57MOL    C2411336   0.567   1.630   4.043  0.2276  0.6378  0.1326
   57MOL    C2511337   0.675   1.732   4.027  0.1567 -1.2316 -0.3003
   57MOL    N2611338   0.807   1.704   4.062  0.2446  0.1277  0.1604
   57MOL    H2711339   0.472   1.655   3.996 -1.1988  1.1716  3.1559
   57MOL    H2811340   0.599   1.544   3.985  1.5709  0.6241  0.8706
   57MOL    H2911341   0.689   1.746   3.920  1.3962 -0.1566 -0.0012
   57MOL    H3011342   0.629   1.820   4.072  1.3382 -0.1527 -1.2019
   57MOL    H3111343   0.855   1.783   4.104  1.7198 -0.0251 -1.1713
   57MOL    C3211344   0.878   1.591   4.046  0.6907  0.3000  0.0940
   57MOL    O3311345   0.823   1.489   4.011  0.2224  0.3052 -0.4224
   57MOL    C3411346   1.028   1.585   4.077  0.2659 -0.0541  0.9506
   57MOL    C3511347   1.119   1.531   3.969  0.0415 -0.0772  0.6206
   57MOL    N3611348   1.212   1.628   3.915 -0.7004 -0.1798  0.7688
   57MOL    H3711349   1.032   1.522   4.165 -0.3299  0.8438  1.6352
   57MOL    H3811350   1.067   1.680   4.114  0.9905  0.5531 -1.2919
   57MOL    H3911351   1.175   1.439   3.987 -2.4456 -1.4303  1.6781
   57MOL    H4011352   1.050   1.497   3.892 -0.7126  0.3828  1.0794
   57MOL    H4111353   1.282   1.652   3.985 -2.4962 -0.9184  2.8673
   57MOL    C4211354   1.184   1.724   3.829  0.1817 -0.1415  0.1165
   57MOL    O4311355   1.096   1.703   3.749 -0.3511 -0.5113 -0.4364
   57MOL    C4411356   1.259   1.861   3.816 -0.0986  0.1571  0.4090
   57MOL    C4511357   1.162   1.983   3.797  0.6527 -0.4586 -0.0250
   57MOL    N4611358   1.096   2.022   3.920 -0.2777  1.0241 -0.2173
   57MOL    H4711359   1.332   1.866   3.897  0.2827 -1.0638  0.1481
   57MOL    H4811360   1.328   1.849   3.733  0.5987  1.9466  0.7107
   57MOL    H4911361   1.199   2.074   3.751  3.0238 -0.6789  1.3682
   57MOL    H5011362   1.084   1.952   3.727  0.1236  0.4178  0.1634
   57MOL    H5111363   0.997   2.022   3.938 -0.4768 -0.4092 -1.2456
   57MOL    C5211364   1.154   2.095   4.019  0.1024  0.0764  0.5224
   57MOL    O5311365   1.270   2.140   4.009 -0.6962 -0.3685  0.1590
   57MOL    C5411366   1.063   2.147   4.136  0.1992 -0.1025 -0.2138
   57MOL    C5511367   1.104   2.079   4.269  0.7978  0.6464 -0.0300
   57MOL    N5611368   0.989   2.054   4.360 -0.0892 -0.6089 -0.5756
   57MOL    H5711369   1.058   2.253   4.161  2.0098  0.5105 -2.2889
   57MOL    H5811370   0.960   2.126   4.107 -0.3832  0.6007  1.3398
   57MOL    H5911371   1.188   2.136   4.308 -0.2812  0.5263  2.5728
   57MOL    H6011372   1.155   1.987   4.239  0.6009  0.8009 -0.8593
   57MOL    H6111373   0.976   2.123   4.433 -0.7881  0.5961 -1.8126
   57MOL    C6211374   0.907   1.949   4.351  0.1252  0.2884  0.0249
   57MOL    O6311375   0.914   1.860   4.272  0.1334  0.3571 -0.1473
   57MOL    C6411376   0.813   1.936   4.472  0.5077  0.1238 -0.4133
   57MOL    C6511377   0.670   1.887   4.441  0.5859  0.4760 -0.7958
   57MOL    N6611378   0.599   1.981   4.351 -0.2367  0.0527 -0.4102
   57MOL    H6711379   0.857   1.864   4.541 -0.8419  0.1609  0.5100
   57MOL    H6811380   0.809   2.028   4.529 -2.3339  0.4495 -1.0740
   57MOL    H6911381   0.683   1.794   4.386 -1.0709  0.2652 -0.8445
   57MOL    H7011382   0.609   1.861   4.527  2.8042 -0.9594  0.3916
   57MOL    H7111383   0.616   1.972   4.252  0.7183  1.1383 -0.3388
   57MOL    C7211384   0.524   2.090   4.391 -0.1321  0.2987  0.5759
   57MOL    O7311385   0.493   2.174   4.309  0.4453  0.4767 -0.0991
   57MOL    C7411386   0.472   2.110   4.535  0.1844 -0.2790  0.7282
   57MOL    C7511387   0.581   2.174   4.630  0.1817  0.4860 -0.6133
   57MOL    N7611388   0.616   2.309   4.597  0.1444  0.3433  0.5684
   57MOL    H7711389   0.383   2.171   4.522 -1.0328 -1.8961  1.1711
   57MOL    H7811390   0.432   2.014   4.570 -0.1776 -0.7569 -0.9460
   57MOL    H7911391   0.535   2.181   4.728  1.8206 -1.0192  0.2992
   57MOL    H8011392   0.660   2.100   4.644 -2.6699 -3.1483 -2.9269
   57MOL    H8111393   0.544   2.378   4.611 -0.9863 -0.6263 -0.3532
   57MOL    C8211394   0.728   2.332   4.532 -0.5779 -0.6900  0.0663
   57MOL    O8311395   0.825   2.256   4.529  0.3063  0.5548 -0.3745
   57MOL    C8411396   0.748   2.480   4.472 -0.4070  0.4159  0.3694
   57MOL    C8511397   0.784   2.471   4.322 -0.0930  0.1289  0.3210
   57MOL    N8611398   0.682   2.407   4.238 -0.3900 -0.0090  0.8606
   57MOL    H8711399   0.653   2.527   4.494 -1.1816 -0.9779  0.0696
   57MOL    H8811400   0.821   2.538   4.528 -0.7363 -1.2767  2.6086
   57MOL    H8911401   0.784   2.569   4.275  0.1694 -0.8537 -1.7876
   57MOL    H9011402   0.883   2.427   4.312 -0.2434 -0.2477  0.4821
   57MOL    H9111403   0.597   2.385   4.287 -1.3483  1.6574 -0.0056
   57MOL    C9211404   0.690   2.399   4.101  0.2830 -0.1359 -0.6802
   57MOL    O9311405   0.789   2.439   4.039  0.3133  0.2566  0.1669
   57MOL    C9411406   0.567   2.350   4.015 -0.1658  0.0178 -0.7714
   57MOL    C9511407   0.585   2.195   3.980  0.0586 -0.7771 -0.2633
   57MOL    N9611408   0.655   2.187   3.851  0.6392  0.4451 -0.3051
   57MOL    H9711409   0.479   2.363   4.078  0.9402 -2.2614  1.3160
   57MOL    H9811410   0.557   2.417   3.930  2.8840  3.8222  1.6481
   57MOL    H9911411   0.644   2.136   4.049  0.2775 -0.1171  0.1122
   57MOL   H10011412   0.488   2.144   3.976 -0.9999  1.2751 -1.9592
   57MOL   H10111413   0.628   2.258   3.784 -2.3559 -1.4457 -1.1762
   57MOL   C10211414   0.762   2.109   3.828  0.1377  0.4206 -0.0905
   57MOL   O10311415   0.816   2.042   3.915 -0.0231 -0.1434  0.1479
   57MOL   C10411416   0.823   2.124   3.690  0.6104  0.2552  0.6376
   57MOL   C10511417   0.811   1.996   3.597  0.4973  0.4069  0.1198
   57MOL   N10611418   0.687   1.998   3.511 -0.1275 -0.2617 -0.1105
   57MOL   H10711419   0.929   2.144   3.702  0.5856  1.9583 -1.6857
   57MOL   H10811420   0.780   2.207   3.635  0.1700 -0.2626  0.1884
   57MOL   H10911421   0.886   1.973   3.522  0.9348  1.1099  0.3418
   57MOL   H11011422   0.802   1.912   3.666 -2.9584  2.3010  2.1462
   57MOL   H11111423   0.604   1.986   3.569 -0.3872  1.0044 -0.2087
   57MOL   C11211424   0.672   2.000   3.378 -0.7258 -0.1136  0.9029
   57MOL   O11311425   0.770   2.001   3.302 -0.0806  0.5878 -0.5941
   57MOL   C11411426   0.530   1.994   3.322  0.5129 -0.0373  0.4166
   57MOL   C11511427   0.512   1.990   3.169  0.5212 -0.7349  0.3139
   57MOL   N11611428   0.372   1.952   3.128  0.2063  0.1370  0.4587
   57MOL   H11711429   0.494   2.088   3.363  0.5232  1.5942 -3.1198
   57MOL   H11811430   0.463   1.918   3.363 -0.1267 -1.1545 -2.5026
   57MOL   H11911431   0.546   2.087   3.132  0.2577  0.3978  2.9408
   57MOL   H12011432   0.577   1.922   3.114  0.1761  1.7521 -3.3582
   57MOL   H12111433   0.345   1.857   3.108 -3.3089  1.2976 -0.6822
   57MOL   C12211434   0.278   2.043   3.131 -0.0769  0.0675 -0.6770
   57MOL   O12311435   0.296   2.160   3.167 -0.1065 -0.0476  0.3016
   57MOL   C12411436   0.131   2.005   3.104  0.4622  0.3248  0.0104
   57MOL   C12511437   0.077   2.053   2.963  0.5011 -0.0011 -0.1917
   57MOL   N12611438   0.076   2.197   2.947 -0.4592 -0.0149  0.1789
   57MOL   H12711439   0.058   2.043   3.175  0.1573  0.6080 -0.4525
   57MOL   H12811440   0.119   1.896   3.104 -0.6704  0.4446 -0.1508
   57MOL   H12911441   0.128   1.999   2.883 -1.5988 -2.6619  0.1762
   57MOL   H13011442   7.755   2.016   2.956  0.4526  0.2592 -0.8313
   57MOL   H13111443   0.165   2.245   2.945  0.0299 -0.9293 -0.0880
   57MOL   C13211444   7.748   2.269   2.910 -0.1759  0.0833  0.1714
   57MOL   O13311445   7.632   2.222   2.914 -0.2584  0.4109 -0.0885
   57MOL   C13411446   7.773   2.415   2.877 -0.3824 -0.0135  0.6842
   57MOL   C13511447   0.010   2.439   2.729 -0.6457 -0.4052 -0.0285
   57MOL   N13611448   0.142   2.392   2.684 -0.2596  0.2011  0.1924
   57MOL   H13711449   0.080   2.451   2.932  1.4868 -1.6793 -1.0631
   57MOL   H13811450   7.686   2.474   2.904 -0.0755  2.0051 -2.4727
   57MOL   H13911451   7.719   2.380   2.670  0.0481  0.1733 -1.4672
   57MOL   H14011452   7.767   2.543   2.710  0.8901 -0.1953 -0.8063
   57MOL   H14111453   0.211   2.376   2.755 -0.0047  0.9871  0.1307
   57MOL   C14211454   0.174   2.401   2.556 -0.1934 -0.1492 -0.2922
   57MOL   O14311455   0.090   2.429   2.467  0.0421  0.2586 -0.1433
   57MOL   C14411456   0.310   2.347   2.511  0.8004  0.0444 -0.2650
   57MOL   C14511457   0.287   2.225   2.418 -0.9377 -0.0245  0.3286
   57MOL   N14611458   0.395   2.127   2.421  0.3555 -0.6316  0.3569
   57MOL   H14711459   0.360   2.310   2.600  0.6064 -1.0193 -0.5902
   57MOL   H14811460   0.371   2.423   2.460  0.5844 -0.4201 -1.2236
   57MOL   H14911461   0.200   2.160   2.435 -2.0761  1.2898 -0.3861
   57MOL   H15011462   0.261   2.252   2.316 -0.5442 -0.4580  0.1121
   57MOL   H15111463   0.373   2.043   2.473 -0.2931  0.1670  1.3923
   57MOL   C15211464   0.527   2.137   2.403  0.6597  0.0007 -0.5267
   57MOL   O15311465   0.603   2.042   2.434 -0.1197 -0.7213  0.7988
   57MOL   C15411466   0.589   2.259   2.336  0.1589  0.2624 -0.2880
   57MOL   C15511467   0.699   2.328   2.415 -0.4794 -0.0193  0.1090
   57MOL   N15611468   0.666   2.458   2.477  0.1205 -0.0795 -0.2734
   57MOL   H15711469   0.520   2.336   2.301 -1.7534 -2.1602 -2.0464
   57MOL   H15811470   0.617   2.227   2.236  1.4243  1.7412 -0.4282
   57MOL   H15911471   0.725   2.265   2.501  0.3524  1.0303  0.6490
   57MOL   H16011472   0.784   2.337   2.347 -0.9951 -1.0071 -0.6761
   57MOL   H16111473   0.571   2.491   2.472  0.2088  0.3970  1.0677
   57MOL   C16211474   0.754   2.535   2.535 -0.6769 -0.1595 -0.1965
   57MOL   O16311475   0.862   2.489   2.578  0.3045 -0.9761  0.0496
   57MOL   C16411476   0.732   2.684   2.574  0.2136 -0.2092  0.1072
   57MOL   C16511477   0.637   2.703   2.694 -0.0247  0.2158 -0.6658
   57MOL   N16611478   0.515   2.779   2.672 -0.5576 -0.0264  0.4623
   57MOL   H16711479   0.696   2.749   2.495 -1.7923  1.3549  2.2137
   57MOL   H16811480   0.828   2.728   2.601 -0.4481  0.1439  2.0067
   57MOL   H16911481   0.615   2.616   2.756 -0.8469  0.6883 -0.2844
   57MOL   H17011482   0.692   2.762   2.768 -1.5658 -0.1803  0.8386
   57MOL   H17111483   0.504   2.872   2.709 -1.8753 -0.1808  0.5058
   57MOL   C17211484   0.414   2.736   2.596  0.3666 -0.8922  0.1664
   57MOL   O17311485   0.410   2.629   2.542  0.2991  0.6401  0.0116
   57MOL   C17411486   0.300   2.840   2.590 -0.4377 -0.1079 -0.5496
   57MOL   C17511487   0.171   2.771   2.640  0.8633  0.3221 -0.6972
   57MOL   N17611488   0.058   2.859   2.660 -0.2274  0.6167 -0.4820
   57MOL   H17711489   0.281   2.890   2.496 -0.4272  1.1589  0.1171
   57MOL   H17811490   0.325   2.922   2.657  0.3724 -0.6471 -0.1848
   57MOL   H17911491   0.145   2.701   2.560  2.6916 -0.3028 -0.7719
   57MOL   H18011492   0.197   2.712   2.728  2.6523  0.1685 -1.3104
   57MOL   H18111493   0.051   2.927   2.587  1.6367  0.8082 -0.5020
   57MOL   C18211494   7.736   2.840   2.742  0.0912 -0.2084 -0.1183
   57MOL   O18311495   7.725   2.758   2.833  0.3100 -0.2329 -0.3534
   57MOL   C18411496   7.627   2.943   2.716 -0.4827  0.4680  0.5452
   57MOL   C18511497   7.485   2.897   2.758 -0.4127 -0.1304  0.7082
   57MOL   N18611498   7.435   2.968   2.868 -0.3432  0.0716  0.1618
   57MOL   H18711499   7.621   2.956   2.608  0.1046 -0.7491  0.3504
   57MOL   H18811500   7.662   3.034   2.765 -1.2815  0.6711  0.7391
   57MOL   H18911501   7.418   2.900   2.673 -0.7375  1.6088  1.0147
   57MOL   H19011502   7.479   2.792   2.790 -2.7133 -0.7258 -1.5403
   57MOL   H19111503   7.462   2.939   2.961 -0.3767  2.9212  1.1271
   57MOL   C19211504   7.365   3.081   2.862  0.2680 -0.1124 -0.5473
   57MOL   O19311505   7.336   3.138   2.755 -0.1953 -0.0862 -0.7191
   57MOL   C19411506   7.323   3.127   2.999  0.4372 -0.2065 -1.1115
   57MOL   C19511507   7.252   3.260   2.998  0.3031 -0.2207 -0.0254
   57MOL   N19611508   7.333   3.367   2.939  0.0697  0.2273  0.0253
   57MOL   H19711509   7.254   3.053   3.040  1.6242  0.2436  1.8206
   57MOL   H19811510   7.400   3.118   3.076  2.1783  1.6609 -2.5853
   57MOL   H19911511   7.153   3.261   2.953  0.4600 -1.8651 -0.4434
   57MOL   H20011512   7.215   3.285   3.098  1.9487  1.0691  0.2790
   57MOL   H20111513   7.362   3.361   2.842 -0.9798 -0.4595 -0.2493
   57MOL   H20211514   7.422   3.377   2.986  0.5503  0.9156 -1.0150
   58MOL     C111515   0.692   4.639   6.200  0.2483 -0.3443 -0.0311
   58MOL     O211516   0.606   4.555   6.217 -0.1088  0.1274 -0.0422
   58MOL     C311517   0.817   4.630   6.281  0.2132 -0.1447  0.4832
   58MOL     C411518   0.946   4.587   6.205  0.0189 -0.5169  0.8003
   58MOL     N511519   0.986   4.679   6.088 -0.3741  0.0387 -0.0015
   58MOL     H611520   0.782   4.565   6.362 -2.2243  0.5500  0.0242
   58MOL     H711521   0.827   4.728   6.328 -0.4772  0.1308  0.0573
   58MOL     H811522   0.944   4.482   6.175  1.8657 -0.4664  0.4590
   58MOL     H911523   1.032   4.599   6.271  0.3246  1.3287  0.0904
   58MOL    H1011524   0.967   4.778   6.088  0.2249  0.1661 -1.6754
   58MOL    H1111525   0.687   4.717   6.124  0.1982  0.9233  1.2547
   58MOL    C1211526   1.055   4.630   5.980  0.0290  0.1101  0.0445
   58MOL    O1311527   1.068   4.507   5.959  0.1772 -0.1260  0.2919
   58MOL    C1411528   1.129   4.732   5.893 -0.5169 -0.4154 -0.2785
   58MOL    C1511529   1.190   4.679   5.762 -0.3738  0.8515 -0.4359
   58MOL    N1611530   1.330   4.633   5.782 -0.4575 -0.0914 -0.6338
   58MOL    H1711531   1.212   4.773   5.950 -1.0376 -1.1912  1.0637
   58MOL    H1811532   1.050   4.802   5.864 -1.9233 -2.7073 -2.2139
   58MOL    H1911533   1.142   4.591   5.718  1.2779  0.4746 -1.5366
   58MOL    H2011534   1.194   4.751   5.680 -2.0710 -1.5441 -2.7091
   58MOL    H2111535   1.349   4.572   5.861 -0.8480 -0.8551 -1.1281
   58MOL    C2211536   1.434   4.707   5.747 -0.1230  0.0544  0.6489
   58MOL    O2311537   1.430   4.809   5.679  0.0077  0.0759  0.3300
   58MOL    C2411538   1.573   4.645   5.783 -0.2823 -0.0730  0.2616
   58MOL    C2511539   1.667   4.753   5.850  0.0292  0.6413 -0.3649
   58MOL    N2611540   1.614   4.793   5.976  0.4131  0.2118 -0.1129
   58MOL    H2711541   1.626   4.622   5.691  1.3374  0.5660  1.0170
   58MOL    H2811542   1.572   4.555   5.844  1.5532  0.3622  0.9711
   58MOL    H2911543   1.766   4.707   5.861 -1.2364 -1.7966  1.2571
   58MOL    H3011544   1.688   4.844   5.793  0.5164  0.8987  0.2221
   58MOL    H3111545   1.566   4.724   6.031 -0.1561  1.2771  0.7525
   58MOL    C3211546   1.615   4.924   6.029 -0.4964  0.5183  0.9581
   58MOL    O3311547   1.687   5.012   5.977  0.3902  0.3500  0.2442
   58MOL    C3411548   1.534   4.946   6.163 -0.1468  0.7128  0.6587
   58MOL    C3511549   1.385   4.934   6.144 -0.0080  0.3032 -0.4206
   58MOL    N3611550   1.313   4.965   6.256  0.6954 -0.1490 -0.6596
   58MOL    H3711551   1.541   5.053   6.182 -0.7291  1.2282 -1.7847
   58MOL    H3811552   1.569   4.888   6.248 -3.5321  0.8344  2.2128
   58MOL    H3911553   1.366   5.001   6.060 -0.1490  0.8551  0.0459
   58MOL    H4011554   1.366   4.828   6.124 -4.7043  1.0112 -0.4219
   58MOL    H4111555   1.312   4.894   6.328 -0.3092  1.2085  0.7085
   58MOL    C4211556   1.250   5.078   6.281 -0.1304  0.3256 -0.0505
   58MOL    O4311557   1.256   5.178   6.209  0.4210 -0.4815  0.4259
   58MOL    C4411558   1.146   5.075   6.393 -0.1578 -0.3394  0.3204
   58MOL    C4511559   1.005   5.029   6.362 -0.0512  0.2659  0.2483
   58MOL    N4611560   0.936   5.112   6.263  0.0097 -0.2954  0.5488
   58MOL    H4711561   1.184   5.015   6.476  2.5777  1.4459  0.4307
   58MOL    H4811562   1.129   5.172   6.441 -0.5542 -0.5201  0.5444
   58MOL    H4911563   1.001   4.925   6.330  1.5901  0.3727 -0.3204
   58MOL    H5011564   0.947   5.038   6.454 -0.5595 -1.2495  0.0866
   58MOL    H5111565   0.902   5.204   6.286  1.0413  0.5706 -1.2351
   58MOL    C5211566   0.893   5.067   6.148  0.3279 -0.1095 -0.2246
   58MOL    O5311567   0.927   4.957   6.103 -0.3533  0.0182  0.1965
   58MOL    C5411568   0.787   5.153   6.081 -0.0180  0.2460 -0.2077
   58MOL    C5511569   0.663   5.068   6.054 -0.2918 -0.1581 -0.1189
   58MOL    N5611570   0.656   5.017   5.920 -0.1285  0.3989 -0.5347
   58MOL    H5711571   0.769   5.246   6.135  1.2095  0.9753 -1.0131
   58MOL    H5811572   0.838   5.195   5.994 -0.7986  3.0288  0.6047
   58MOL    H5911573   0.577   5.134   6.042 -0.8982 -1.2723 -1.9529
   58MOL    H6011574   0.642   4.993   6.129 -2.9449 -0.2710 -0.9155
   58MOL    H6111575   0.700   5.059   5.839  1.0602  0.5146  0.1712
   58MOL    C6211576   0.569   4.915   5.889  0.1119 -0.2199  0.1125
   58MOL    O6311577   0.496   4.851   5.965 -0.2281  0.3441 -0.0339
   58MOL    C6411578   0.567   4.882   5.740 -0.0792  0.3081  0.7857
   58MOL    C6511579   0.434   4.818   5.701 -0.1761  0.0301  0.5124
   58MOL    N6611580   0.442   4.782   5.562  0.0115 -0.1308 -0.3378
   58MOL    H6711581   0.574   4.963   5.666 -0.4393 -0.5063 -0.1560
   58MOL    H6811582   0.640   4.801   5.734 -0.5336 -0.0100 -0.7505
   58MOL    H6911583   0.409   4.737   5.770  4.7963 -0.1005  2.3583
   58MOL    H7011584   0.360   4.898   5.709 -0.2873  0.4488 -3.7302
   58MOL    H7111585   0.440   4.856   5.493 -0.2598  0.8826  0.7554
   58MOL    C7211586   0.464   4.662   5.507  0.2168 -0.1241  0.4855
   58MOL    O7311587   0.462   4.560   5.569 -0.0164  0.1522  0.0893
   58MOL    C7411588   0.484   4.650   5.356  0.5342  0.0980 -0.1335
   58MOL    C7511589   0.388   4.535   5.304 -0.1592  0.8857 -0.7313
   58MOL    N7611590   0.253   4.600   5.287 -0.2473 -0.5559 -0.6534
   58MOL    H7711591   0.458   4.748   5.316 -0.8539 -1.2623 -2.6464
   58MOL    H7811592   0.583   4.627   5.316  0.4560 -2.6293  1.1123
   58MOL    H7911593   0.419   4.504   5.204 -0.0127 -0.2696 -0.3296
   58MOL    H8011594   0.378   4.452   5.374 -1.6260  1.3446 -0.3737
   58MOL    H8111595   0.256   4.662   5.207  0.3230  2.0527  1.3282
   58MOL    C8211596   0.146   4.575   5.361 -0.2218 -0.4543 -0.6777
   58MOL    O8311597   0.136   4.497   5.454  0.0123  0.2297  0.6402
   58MOL    C8411598   0.025   4.645   5.316 -0.0272 -0.4644 -0.4314
   58MOL    C8511599   7.668   4.567   5.312 -0.1818 -1.1798 -0.7078
   58MOL    N8611600   7.666   4.458   5.219 -0.0014 -0.0426  0.5429
   58MOL    H8711601   0.019   4.738   5.374 -0.6703 -0.6548 -0.1974
   58MOL    H8811602   0.043   4.679   5.214 -0.8835  0.1453 -0.3798
   58MOL    H8911603   7.659   4.532   5.415 -1.2124 -4.3963 -1.8319
   58MOL    H9011604   7.583   4.631   5.288  1.1012 -0.4096 -3.3386
   58MOL    H9111605   7.713   4.373   5.245 -0.2747  0.1505  1.7049
   58MOL    C9211606   7.604   4.453   5.099 -0.0309  0.1172  0.8737
   58MOL    O9311607   7.537   4.550   5.057 -0.0949  0.5325 -0.5418
   58MOL    C9411608   7.615   4.323   5.026  0.6329  0.1862  0.4687
   58MOL    C9511609   7.552   4.317   4.886 -0.0956 -0.2674 -0.0107
   58MOL    N9611610   7.539   4.177   4.846 -0.4506 -0.2128  0.2443
   58MOL    H9711611   7.717   4.286   5.015 -0.2808 -2.0924 -0.7075
   58MOL    H9811612   7.565   4.245   5.084  1.3041 -0.1997  0.5275
   58MOL    H9911613   7.453   4.362   4.886 -0.9392 -2.0388  1.0014
   58MOL   H10011614   7.621   4.366   4.817  0.3256  1.3270  1.5348
   58MOL   H10111615   7.504   4.112   4.914  1.4212 -1.3451  0.1646
   58MOL   C10211616   7.582   4.108   4.741 -0.5591 -0.1979 -0.4228
   58MOL   O10311617   7.638   4.169   4.649  0.2940  0.3845 -0.4218
   58MOL   C10411618   7.570   3.953   4.744 -0.5575 -0.5895  0.0835
   58MOL   C10511619   7.676   3.887   4.646  0.6640 -0.1135  0.1298
   58MOL   N10611620   7.652   3.907   4.498  0.6013 -0.1538  0.9979
   58MOL   H10711621   7.475   3.910   4.709 -0.5614 -0.6473  0.1653
   58MOL   H10811622   7.592   3.913   4.843  0.6678  0.5626  0.2712
   58MOL   H10911623   7.774   3.931   4.666  0.7167 -0.9795  1.8663
   58MOL   H11011624   7.680   3.780   4.667  1.6338 -0.0270  0.4224
   58MOL   H11111625   7.644   4.004   4.474 -5.3057 -0.6537  0.4136
   58MOL   C11211626   7.658   3.814   4.406  0.2089 -0.2982  0.4658
   58MOL   O11311627   7.688   3.703   4.426  0.0260 -0.0336 -0.6224
   58MOL   C11411628   7.636   3.862   4.260 -0.5206 -0.2840  0.4915
   58MOL   C11511629   7.779   3.890   4.195  0.0248  0.1373  0.1097
   58MOL   N11611630   0.064   4.000   4.261  0.5388 -0.0406  0.2111
   58MOL   H11711631   7.587   3.959   4.261 -0.0876 -0.0718  1.8919
   58MOL   H11811632   7.579   3.796   4.195 -0.5245  0.0756  0.1280
   58MOL   H11911633   0.064   3.802   4.201  1.8470  1.3062 -1.8167
   58MOL   H12011634   7.768   3.907   4.088  0.4301  1.3147  0.2488
   58MOL   H12111635   0.091   3.982   4.356 -0.1938  0.0044  0.4237
   58MOL   C12211636   0.128   4.104   4.203  0.7828  0.2659  0.3818
   58MOL   O12311637   0.131   4.121   4.083  0.9475  0.3624  0.7380
   58MOL   C12411638   0.194   4.206   4.302 -0.6763  0.3311 -0.4873
   58MOL   C12511639   0.220   4.342   4.230 -0.5447 -0.7812  0.0209
   58MOL   N12611640   0.164   4.447   4.310  0.3716  0.1494  0.1460
   58MOL   H12711641   0.292   4.161   4.316 -1.0223 -0.5270 -0.7929
   58MOL   H12811642   0.144   4.213   4.398  0.3097  0.8056  0.0007
   58MOL   H12911643   0.326   4.369   4.230 -0.1611 -2.2891  0.3945
   58MOL   H13011644   0.170   4.344   4.133 -1.5955 -0.5891  0.5603
   58MOL   H13111645   0.118   4.427   4.397  0.8561 -0.9765  0.1553
   58MOL   C13211646   0.156   4.574   4.275  0.7157  0.3813  0.5378
   58MOL   O13311647   0.201   4.612   4.168  0.2626  0.3335  0.0809
   58MOL   C13411648   0.079   4.661   4.369 -0.8218 -0.6346 -0.7356
   58MOL   C13511649   0.082   4.808   4.338 -0.2620 -0.0242  0.6531
   58MOL   N13611650   0.022   4.850   4.206 -0.0534  0.0952  0.0647
   58MOL   H13711651   0.117   4.649   4.470 -0.2059  0.8450 -0.7650
   58MOL   H13811652   7.760   4.618   4.367 -1.0790 -0.0180 -1.6386
   58MOL   H13911653   0.043   4.867   4.422 -0.3242 -2.0628  2.0931
   58MOL   H14011654   0.182   4.836   4.306 -0.3369  0.3070  0.7070
   58MOL   H14111655   0.057   4.800   4.125  2.4695 -1.1278  1.8555
   58MOL   C14211656   7.700   4.933   4.191 -0.8001 -0.4270 -0.2432
   58MOL   O14311657   7.660   4.998   4.281 -0.0833 -0.3123  0.0806
   58MOL   C14411658   7.656   4.962   4.047 -0.4939  0.4619 -0.3283
   58MOL   C14511659   7.528   5.041   4.036  1.0763  0.5779 -0.7668
   58MOL   N14611660   7.508   5.078   3.898  0.3782  0.3472  0.3165
   58MOL   H14711661   7.654   4.874   3.983  1.9062 -0.4743  0.8018
   58MOL   H14811662   7.730   5.033   4.009  0.7992  0.1310  1.5012
   58MOL   H14911663   7.447   4.977   4.071  1.1267 -0.6146 -2.7384
   58MOL   H15011664   7.525   5.129   4.099 -1.0320 -1.5304  2.2271
   58MOL   H15111665   7.567   5.048   3.822 -0.9992 -0.8155 -0.3333
   58MOL   C15211666   7.419   5.164   3.864  0.1285 -0.0466  0.0951
   58MOL   O15311667   7.345   5.216   3.948 -0.2757 -0.3295  0.2874
   58MOL   C15411668   7.392   5.183   3.711  0.3449 -0.4329 -0.3733
   58MOL   C15511669   7.454   5.317   3.674 -0.1088 -0.1192  0.1329
   58MOL   N15611670   7.600   5.297   3.656  0.2013 -0.2661  1.3185
   58MOL   H15711671   7.283   5.185   3.699  0.2501  0.4205  0.5133
   58MOL   H15811672   7.440   5.105   3.652  0.6266 -0.4567 -0.1140
   58MOL   H15911673   7.408   5.363   3.586 -1.4659 -1.8437 -0.1016
   58MOL   H16011674   7.427   5.389   3.751 -0.6417 -1.4161  1.1735
   58MOL   H16111675   7.636   5.202   3.658  0.4127 -0.1900  1.0746
   58MOL   C16211676   7.678   5.405   3.662 -0.0058 -0.2439  0.7581
   58MOL   O16311677   7.624   5.520   3.659 -0.2155 -0.2436  0.2144
   58MOL   C16411678   0.046   5.395   3.647 -0.3507  0.5199  0.0728
   58MOL   C16511679   0.132   5.419   3.769 -0.2826  0.2455 -0.3831
   58MOL   N16611680   0.096   5.322   3.880 -0.6651  0.1839  0.1365
   58MOL   H16711681   0.075   5.454   3.560  0.2812  0.7181  0.4155
   58MOL   H16811682   0.061   5.296   3.605 -1.7364 -0.6739  2.2463
   58MOL   H16911683   0.233   5.403   3.732  0.3061  0.9100  0.9306
   58MOL   H17011684   0.116   5.521   3.803 -0.4707 -0.6652  2.3615
   58MOL   H17111685   0.004   5.340   3.919 -0.5204  0.5883  0.2999
   58MOL   C17211686   0.189   5.278   3.970 -0.1067  0.2829  0.0229
   58MOL   O17311687   0.309   5.273   3.942  0.7255 -0.1898 -0.0371
   58MOL   C17411688   0.130   5.217   4.099  0.6665  0.5860  0.1460
   58MOL   C17511689   0.199   5.273   4.231  0.4099 -0.5534  0.1456
   58MOL   N17611690   0.175   5.418   4.254 -0.1904 -0.2453  0.5131
   58MOL   H17711691   0.176   5.118   4.093  2.5551  1.4814 -0.7747
   58MOL   H17811692   0.022   5.214   4.111  0.6751 -0.0044  0.0995
   58MOL   H17911693   0.184   5.209   4.318  1.7875 -1.7654 -0.4775
   58MOL   H18011694   0.308   5.266   4.224  0.3871 -0.0566 -0.9028
   58MOL   H18111695   0.087   5.450   4.217 -0.0378  0.4158  0.7081
   58MOL   C18211696   0.266   5.512   4.284  1.4412  0.4307  0.4430
   58MOL   O18311697   0.378   5.487   4.325  0.0557 -0.1706 -0.4395
   58MOL   C18411698   0.215   5.654   4.271  0.0956 -0.0974  0.0491
   58MOL   C18511699   0.187   5.700   4.125  0.5869  0.3252  0.0245
   58MOL   N18611700   0.046   5.730   4.093 -0.0723 -0.1924 -0.5262
   58MOL   H18711701   0.291   5.719   4.315  0.4644 -0.2971 -0.2941
   58MOL   H18811702   0.126   5.655   4.335  1.2381 -2.2862  1.7399
   58MOL   H18911703   0.248   5.788   4.106 -0.0445  0.8342  0.3489
   58MOL   H19011704   0.229   5.629   4.054  0.0329  0.0150  0.0052
   58MOL   H19111705   0.011   5.824   4.080 -1.3892 -0.6266 -0.1165
   58MOL   C19211706   7.727   5.639   4.092  0.4534 -0.8106  0.7412
   58MOL   O19311707   7.741   5.522   4.135  0.2693 -0.7120 -0.1727
   58MOL   C19411708   7.593   5.687   4.038  0.4374 -0.5388 -0.1492
   58MOL   C19511709   7.520   5.582   3.953  0.4040  0.0683 -0.7396
   58MOL   N19611710   7.450   5.486   4.039  0.2021  0.1140  0.1501
   58MOL   H19711711   7.524   5.734   4.107  0.8899 -0.2713  0.1258
   58MOL   H19811712   7.619   5.769   3.972  0.2361 -1.4504 -1.3924
   58MOL   H19911713   7.454   5.640   3.888  0.5483  1.7486  0.5990
   58MOL   H20011714   7.592   5.530   3.890  0.6379 -3.0507  1.9413
   58MOL   H20111715   7.412   5.407   3.990 -0.2890  0.6222 -0.2967
   58MOL   H20211716   7.505   5.454   4.117  1.7900 -1.2077 -1.4849
   59MOL     C111717   5.243   7.645   2.817 -0.4699  0.5145 -0.0233
   59MOL     O211718   5.144   7.687   2.879  0.5632 -0.2746 -0.3269
   59MOL     C311719   5.344   7.740   2.765 -0.7360 -0.1828  0.3070
   59MOL     C411720   5.453   7.767   2.863  0.0878 -0.6303  0.3316
   59MOL     N511721   5.551   7.660   2.866 -0.6716 -0.6280  0.5598
   59MOL     H611722   5.294   0.055   2.747  1.3460  1.1983  1.6622
   59MOL     H711723   5.396   7.701   2.677  0.8882  0.5421  0.9230
   59MOL     H811724   5.414   0.002   2.964 -2.4133  2.2088 -1.0052
   59MOL     H911725   5.491   0.088   2.848 -4.4344  0.9169 -1.2998
   59MOL    H1011726   5.523   7.563   2.864 -1.5522 -0.3716  0.3283
   59MOL    H1111727   5.281   7.543   2.818 -1.4405  0.1537 -0.0753
   59MOL    C1211728   5.683   7.684   2.878  0.2917  0.4351  0.7582
   59MOL    O1311729   5.732   0.012   2.885  0.1301 -0.3052 -0.3199
   59MOL    C1411730   5.773   7.562   2.890  0.1091  0.3686  0.2525
   59MOL    C1511731   5.912   7.597   2.834 -0.5049  0.3492  0.0068
   59MOL    N1611732   5.984   7.476   2.809 -0.5433  0.6442  0.3010
   59MOL    H1711733   5.721   7.484   2.834  2.3525  0.1780 -1.6785
   59MOL    H1811734   5.780   7.530   2.994  1.4992  1.7153  0.5979
   59MOL    H1911735   5.903   7.664   2.748 -0.2958  0.6015  0.1778
   59MOL    H2011736   5.969   7.647   2.913  0.0023 -2.7630  1.6899
   59MOL    H2111737   6.032   7.424   2.881  0.4236 -0.2800 -0.9869
   59MOL    C2211738   6.011   7.436   2.684 -0.6560 -1.1885 -0.2998
   59MOL    O2311739   5.958   7.493   2.587  0.0856  0.3128 -0.2148
   59MOL    C2411740   6.108   7.321   2.668  0.2854 -0.2166 -0.7417
   59MOL    C2511741   6.233   7.361   2.596 -0.1502  0.3945 -0.0707
   59MOL    N2611742   6.341   7.265   2.615  0.1125 -0.3524  0.1376
   59MOL    H2711743   6.050   7.253   2.605  0.4049 -0.6760 -0.3568
   59MOL    H2811744   6.112   7.260   2.758  0.5977  0.2656 -0.4279
   59MOL    H2911745   6.212   7.370   2.489 -2.2017 -0.1485  0.2753
   59MOL    H3011746   6.274   7.458   2.625  2.1442  0.3914 -2.9824
   59MOL    H3111747   6.307   7.171   2.622  0.4393 -0.6317 -1.7108
   59MOL    C3211748   6.472   7.297   2.631  0.1459 -0.6177  0.4300
   59MOL    O3311749   6.517   7.412   2.609 -0.0657 -0.4623 -0.0053
   59MOL    C3411750   6.567   7.186   2.677  0.0027 -0.2455 -0.0381
   59MOL    C3511751   6.686   7.170   2.567  0.3515 -0.1667  0.3947
   59MOL    N3611752   6.816   7.210   2.625 -0.1277 -0.0534 -0.3022
   59MOL    H3711753   6.515   7.090   2.682 -0.7328  0.2193  1.5578
   59MOL    H3811754   6.608   7.199   2.777 -0.0963  0.3895 -0.0758
   59MOL    H3911755   6.689   7.067   2.533  1.6305  0.5095 -1.6618
   59MOL    H4011756   6.663   7.226   2.476  2.1560 -1.2383 -0.7329
   59MOL    H4111757   6.840   7.307   2.608 -1.3529  0.7740  2.4709
   59MOL    C4211758   6.897   7.123   2.678 -0.0970 -0.4843 -0.2759
   59MOL    O4311759   6.858   7.010   2.714  0.3520  0.4185  0.4585
   59MOL    C4411760   7.045   7.155   2.698  0.8145 -0.4228  0.2477
   59MOL    C4511761   7.073   7.232   2.827 -0.0063 -0.8686 -0.2107
   59MOL    N4611762   7.006   7.361   2.828 -0.4991  0.7361 -0.7764
   59MOL    H4711763   7.102   7.063   2.696  1.9901  0.3190 -0.9779
   59MOL    H4811764   7.074   7.213   2.610  0.0316  0.3883  0.5113
   59MOL    H4911765   7.062   7.178   2.921 -0.9218 -0.9463 -0.3586
   59MOL    H5011766   7.178   7.261   2.816  0.1036 -1.4000 -0.5910
   59MOL    H5111767   6.983   7.408   2.741  2.9122  0.5207 -1.8738
   59MOL    C5211768   6.982   7.441   2.929 -0.3044 -0.6098  0.6692
   59MOL    O5311769   7.029   7.422   3.040 -0.0068 -1.0227 -0.6595
   59MOL    C5411770   6.891   7.560   2.903 -0.6025 -0.0195  0.7515
   59MOL    C5511771   6.930   7.640   2.773  0.4666  0.3032  0.3075
   59MOL    N5611772   6.834   7.624   2.668  0.0905  0.2251  0.6204
   59MOL    H5711773   6.786   7.534   2.908 -0.2066 -2.1390 -0.9897
   59MOL    H5811774   6.893   7.627   2.989 -3.6590 -0.2403  1.0493
   59MOL    H5911775   7.030   7.616   2.739  0.1989 -0.6949  0.2179
   59MOL    H6011776   6.937   7.748   2.789  4.0583  0.2300 -0.4165
   59MOL    H6111777   6.775   7.706   2.674  1.1320  1.0147  0.2943
   59MOL    C6211778   6.845   7.559   2.556  0.4256  0.5956  0.3813
   59MOL    O6311779   6.940   7.475   2.542  0.6069 -0.3813 -0.2402
   59MOL    C6411780   6.745   7.590   2.443 -0.0820 -0.4138 -0.2218
   59MOL    C6511781   6.817   7.658   2.321  0.8804 -0.2957 -0.5121
   59MOL    N6611782   6.718   7.706   2.229 -0.2758  0.2936 -0.3884
   59MOL    H6711783   6.695   7.495   2.427 -1.3347  0.2550 -0.3569
   59MOL    H6811784   6.674   7.660   2.487 -1.0832 -2.2183  1.1287
   59MOL    H6911785   6.880   7.741   2.353 -2.4313  2.5160 -0.9800
   59MOL    H7011786   6.885   7.591   2.269  0.5530 -0.7734 -0.3217
   59MOL    H7111787   6.623   7.681   2.251  0.2815 -2.2844 -0.7688
   59MOL    C7211788   6.751   7.765   2.109  0.1610 -0.5334  0.1558
   59MOL    O7311789   6.866   0.001   2.070  0.3422  0.6557 -0.0897
   59MOL    C7411790   6.637   0.049   2.028 -0.0023  0.2218  0.4017
   59MOL    C7511791   6.685   0.180   1.964  0.0321 -0.0828  0.1236
   59MOL    N7611792   6.557   0.253   1.915  0.3753  0.2519 -0.4289
   59MOL    H7711793   6.611   7.757   1.951 -0.3881 -1.5420  2.1289
   59MOL    H7811794   6.552   0.064   2.095  1.0871 -2.0613  2.3661
   59MOL    H7911795   6.739   0.242   2.036 -0.0023  0.8992 -0.6906
   59MOL    H8011796   6.756   0.168   1.882  0.1568 -0.9921  0.3595
   59MOL    H8111797   6.519   0.321   1.980  0.5952 -0.8889  0.9071
   59MOL    C8211798   6.497   0.255   1.795 -0.4301  0.0498  0.0094
   59MOL    O8311799   6.542   0.180   1.707  0.4116  0.1986  0.4226
   59MOL    C8411800   6.370   0.334   1.777  0.1374  0.3057  0.2635
   59MOL    C8511801   6.389   0.441   1.667  0.0974  0.0824  0.0790
   59MOL    N8611802   6.453   0.560   1.711  0.2337  0.2354  0.3025
   59MOL    H8711803   6.305   0.263   1.725  1.3235 -0.0510 -0.7566
   59MOL    H8811804   6.317   0.374   1.863 -3.4047  1.1155 -2.1921
   59MOL    H8911805   6.442   0.396   1.583  0.3489  0.7779 -0.1382
   59MOL    H9011806   6.297   0.461   1.613 -2.1513 -0.3428  3.5495
   59MOL    H9111807   6.481   0.570   1.807 -0.9541  1.7628  0.4963
   59MOL    C9211808   6.469   0.664   1.635 -0.0003  0.3033 -0.1491
   59MOL    O9311809   6.429   0.670   1.521  0.2342  0.3716 -0.2278
   59MOL    C9411810   6.548   0.779   1.690  0.1086 -0.1006  0.4928
   59MOL    C9511811   6.635   0.849   1.584 -0.4932  0.0002  0.3112
   59MOL    N9611812   6.552   0.934   1.501 -0.6829  0.1493  0.6872
   59MOL    H9711813   6.486   0.852   1.743 -1.5998 -0.7181 -0.5883
   59MOL    H9811814   6.616   0.736   1.762  1.8373  2.1050  0.2278
   59MOL    H9911815   6.717   0.905   1.628 -0.4381  1.8064 -2.0026
   59MOL   H10011816   6.682   0.783   1.511  0.9087  1.6408 -0.2895
   59MOL   H10111817   6.454   0.910   1.494 -0.3497 -0.4738 -2.5478
   59MOL   C10211818   6.599   1.010   1.400  1.0096  0.0138 -0.8493
   59MOL   O10311819   6.717   1.029   1.387  0.2499  0.2075  0.5082
   59MOL   C10411820   6.497   1.072   1.301 -0.2526 -0.8369  0.2574
   59MOL   C10511821   6.480   1.220   1.317 -0.1770  0.5825 -0.5765
   59MOL   N10611822   6.571   1.299   1.230 -0.6375 -0.1876 -0.2251
   59MOL   H10711823   6.405   1.014   1.306 -0.4990 -0.6002 -1.3014
   59MOL   H10811824   6.535   1.051   1.202 -0.0231 -0.1111  0.1918
   59MOL   H10911825   6.378   1.251   1.294 -1.2610 -1.0351  1.9402
   59MOL   H11011826   6.492   1.252   1.420  5.7700 -0.1148 -0.9150
   59MOL   H11111827   6.585   1.258   1.139 -1.8902 -1.3730  0.1035
   59MOL   C11211828   6.628   1.416   1.263  0.5750 -0.4170 -0.3541
   59MOL   O11311829   6.608   1.462   1.378  0.2094  0.3063 -0.5541
   59MOL   C11411830   6.685   1.504   1.156  0.2793 -0.4019 -0.3876
   59MOL   C11511831   6.653   1.651   1.168  0.6030  0.9644 -0.1877
   59MOL   N11611832   6.724   1.730   1.068 -0.9254  0.7094  0.2039
   59MOL   H11711833   6.649   1.464   1.062 -1.0166  2.0163 -0.9793
   59MOL   H11811834   6.790   1.479   1.152  1.3986  3.6911  0.6464
   59MOL   H11911835   6.547   1.668   1.147  0.7860 -1.1499 -3.0482
   59MOL   H12011836   6.661   1.689   1.270 -1.5875  0.4401  0.2105
   59MOL   H12111837   6.804   1.682   1.029  2.4084  2.0938  4.9178
   59MOL   C12211838   6.711   1.861   1.046 -0.0984  0.1399 -0.9984
   59MOL   O12311839   6.614   1.922   1.091  0.6173 -0.1806 -0.1737
   59MOL   C12411840   6.801   1.937   0.950 -0.4751 -0.8011  0.3943
   59MOL   C12511841   6.859   2.073   0.986  0.0393  0.4807 -0.6930
   59MOL   N12611842   6.947   2.065   1.109 -0.8733 -0.6140 -0.2139
   59MOL   H12711843   6.737   1.947   0.863 -0.1956  0.1537  0.3031
   59MOL   H12811844   6.876   1.873   0.902 -1.0954  0.9031 -2.9891
   59MOL   H12911845   6.909   2.124   0.904 -0.7431  0.5018 -1.1528
   59MOL   H13011846   6.785   2.147   1.016 -0.0529 -0.6060  1.9427
   59MOL   H13111847   7.045   2.061   1.086 -0.5591 -1.3467  1.1871
   59MOL   C13211848   6.911   2.076   1.238  0.2559  0.5904 -0.0075
   59MOL   O13311849   6.790   2.096   1.269 -0.2854 -0.7044 -0.0020
   59MOL   C13411850   7.014   2.081   1.349  0.4996  0.2801 -0.2698
   59MOL   C13511851   7.058   2.215   1.410  0.0699 -0.0692 -0.3451
   59MOL   N13611852   7.089   2.322   1.317  0.1972  1.0415 -0.9088
   59MOL   H13711853   7.105   2.022   1.332  0.7677  0.2692  1.1593
   59MOL   H13811854   6.966   2.017   1.423  0.3645 -0.2262 -0.7896
   59MOL   H13911855   6.964   2.250   1.454 -1.0222 -1.2231 -1.7290
   59MOL   H14011856   7.132   2.195   1.488  1.5180 -1.7531 -2.1254
   59MOL   H14111857   7.015   2.390   1.310  0.1908  1.2866  1.1925
   59MOL   C14211858   7.214   2.348   1.285 -0.5253 -0.2004  0.1596
   59MOL   O14311859   7.306   2.270   1.295 -0.0370  0.7417  0.1865
   59MOL   C14411860   7.238   2.489   1.243  0.4170  0.7437  0.1701
   59MOL   C14511861   7.326   2.510   1.119  0.0306 -0.2008  0.4384
   59MOL   N14611862   7.274   2.470   0.992  0.4393  0.0028 -0.6260
   59MOL   H14711863   7.288   2.547   1.321  3.1961  0.8037 -1.5771
   59MOL   H14811864   7.147   2.549   1.240  1.9379  3.2112  1.5489
   59MOL   H14911865   7.363   2.612   1.123  2.3819 -1.0761  2.7076
   59MOL   H15011866   7.421   2.458   1.136  0.0232 -1.1735 -2.3584
   59MOL   H15111867   7.321   2.387   0.958 -0.1135 -0.5444 -0.0620
   59MOL   C15211868   7.173   2.528   0.925 -0.6426  0.0090  0.2253
   59MOL   O15311869   7.109   2.620   0.977 -0.6903 -0.6344 -0.3632
   59MOL   C15411870   7.140   2.480   0.781  0.0087  0.3255  0.0354
   59MOL   C15511871   6.995   2.514   0.733  0.2057 -0.1316 -0.3931
   59MOL   N15611872   6.986   2.517   0.593 -0.8336  0.4840 -0.2859
   59MOL   H15711873   7.165   2.375   0.770  2.6450  0.9853 -0.4892
   59MOL   H15811874   7.207   2.533   0.714 -0.2901 -1.4218 -1.6708
   59MOL   H15911875   6.922   2.442   0.770 -0.2948 -0.8190 -2.6566
   59MOL   H16011876   6.969   2.607   0.785  3.9732 -0.6635  2.6870
   59MOL   H16111877   6.976   2.427   0.548  0.0961  0.0001  0.4525
   59MOL   C16211878   6.959   2.627   0.521  0.1957 -0.5258 -0.3434
   59MOL   O16311879   6.966   2.737   0.576  0.3048 -0.3875 -0.2817
   59MOL   C16411880   6.908   2.621   0.375  0.4970  0.4512  0.2465
   59MOL   C16511881   6.764   2.577   0.355 -0.0108  0.0152  0.7669
   59MOL   N16611882   6.740   2.435   0.385  0.4102 -0.7047 -0.1694
   59MOL   H16711883   6.972   2.552   0.319  0.4464  0.0068  0.7230
   59MOL   H16811884   6.912   2.718   0.327  1.3642  0.6354  0.6733
   59MOL   H16911885   6.693   2.637   0.412  0.5781  2.2154 -0.7617
   59MOL   H17011886   6.751   2.583   0.247 -0.2619  1.5595  0.8748
   59MOL   H17111887   6.749   2.364   0.314  0.8050  0.1634 -0.9929
   59MOL   C17211888   6.691   2.391   0.503  0.5644  0.1582  0.0607
   59MOL   O17311889   6.663   2.471   0.594  0.8760 -0.0106  0.6890
   59MOL   C17411890   6.677   2.236   0.533 -0.2039  0.1783  0.4705
   59MOL   C17511891   6.560   2.187   0.615 -0.2983  0.3713  0.9831
   59MOL   N17611892   6.430   2.246   0.569  0.3219 -0.3042  0.1045
   59MOL   H17711893   6.767   2.201   0.582 -0.4817 -3.4321 -1.4119
   59MOL   H17811894   6.687   2.199   0.431 -0.9725  1.9053 -0.2696
   59MOL   H17911895   6.550   2.079   0.621  0.8716  0.3338  2.8447
   59MOL   H18011896   6.588   2.214   0.718 -0.7350  0.2714  1.1295
   59MOL   H18111897   6.387   2.305   0.639 -0.5861 -2.2507  1.2468
   59MOL   C18211898   6.349   2.179   0.482  0.8210  0.3686  0.4879
   59MOL   O18311899   6.395   2.093   0.400  0.5579 -0.1812 -0.3589
   59MOL   C18411900   6.207   2.219   0.474  0.1423 -0.1851 -0.2309
   59MOL   C18511901   6.161   2.287   0.342  0.0101 -0.8324  0.2137
   59MOL   N18611902   6.194   2.429   0.332 -0.1409 -0.3307 -0.0493
   59MOL   H18711903   6.185   2.287   0.556 -1.9873 -0.2393 -0.7303
   59MOL   H18811904   6.135   2.138   0.482  0.2290 -0.1517  0.9239
   59MOL   H18911905   6.195   2.222   0.261  0.5657 -0.7075  0.3483
   59MOL   H19011906   6.053   2.283   0.324  0.2193  0.4649 -1.4846
   59MOL   H19111907   6.155   2.478   0.411 -0.3256 -2.5824  1.2912
   59MOL   C19211908   6.216   2.502   0.226  0.5095  0.0711 -0.8220
   59MOL   O19311909   6.247   2.456   0.114 -0.2070 -0.5563  0.0949
   59MOL   C19411910   6.196   2.654   0.252  0.6542 -1.2919 -0.3828
   59MOL   C19511911   6.135   2.740   0.146 -0.3887  0.9350 -0.0077
   59MOL   N19611912   5.991   2.722   0.134 -0.1863  0.2046  0.2455
   59MOL   H19711913   6.144   2.669   0.347 -4.3344 -1.1393 -2.9652
   59MOL   H19811914   6.300   2.687   0.258  0.5630 -0.8874 -0.9173
   59MOL   H19911915   6.147   2.847   0.165 -0.3896  0.8502  0.4701
   59MOL   H20011916   6.171   2.711   0.047 -1.2389 -4.5418  1.1163
   59MOL   H20111917   5.943   2.741   0.220 -2.6276  0.7703 -1.1771
   59MOL   H20211918   5.958   2.785   0.062  0.3810 -0.7516 -0.8716
   60MOL     C111919   1.110   3.066   7.473  0.0984 -0.2623 -0.9221
   60MOL     O211920   1.232   3.074   7.466 -0.0705  0.2915 -0.0979
   60MOL     C311921   1.034   2.947   7.436  0.6889  1.0323 -0.2959
   60MOL     C411922   1.121   2.844   7.365 -0.2026 -0.3681  0.3875
   60MOL     N511923   1.037   2.746   7.307  0.1393 -0.2786  0.5683
   60MOL     H611924   0.950   2.983   7.377 -2.0211 -2.0842  1.4394
   60MOL     H711925   0.993   2.895   7.523  0.4087 -1.7535 -2.0498
   60MOL     H811926   1.189   2.806   7.441 -0.1914 -1.4227 -0.1403
   60MOL     H911927   1.175   2.900   7.288 -1.9236  0.7947 -0.0045
   60MOL    H1011928   0.980   2.684   7.363  0.4450 -0.8519  0.2601
   60MOL    H1111929   1.046   3.144   7.513  2.8015  1.5674 -0.0282
   60MOL    C1211930   0.996   2.751   7.178 -0.3650 -0.3912 -0.2955
   60MOL    O1311931   1.052   2.825   7.093 -0.2570  0.7177 -0.5090
   60MOL    C1411932   0.879   2.650   7.132  0.1248 -0.4399  0.3888
   60MOL    C1511933   0.824   2.669   6.989  0.0572 -0.8226  0.1485
   60MOL    N1611934   0.733   2.784   6.976 -0.6727  0.3562 -0.3006
   60MOL    H1711935   0.798   2.661   7.204  1.6169 -0.4263  2.1036
   60MOL    H1811936   0.912   2.549   7.159  1.9285  0.1793  0.5513
   60MOL    H1911937   0.909   2.700   6.928 -1.2224  2.5613 -0.0207
   60MOL    H2011938   0.793   2.568   6.964  1.5092 -1.1084 -0.5491
   60MOL    H2111939   0.733   2.851   7.051 -0.5280  1.4832 -1.2960
   60MOL    C2211940   0.678   2.818   6.863 -0.1453 -0.1654 -0.3037
   60MOL    O2311941   0.698   2.754   6.756 -1.1197 -0.3760  0.5518
   60MOL    C2411942   0.602   2.950   6.858  0.4437  0.8658  0.2737
   60MOL    C2511943   0.464   2.952   6.781  0.1220  0.2829  0.0978
   60MOL    N2611944   0.478   2.927   6.634 -0.6959 -0.1297 -0.8769
   60MOL    H2711945   0.674   3.027   6.831  0.1292  1.0676  0.0193
   60MOL    H2811946   0.582   2.970   6.963  0.7189  0.7796  0.3445
   60MOL    H2911947   0.401   2.873   6.823  0.1639 -0.5836 -1.4406
   60MOL    H3011948   0.415   3.049   6.795  1.7128  1.0886  0.2338
   60MOL    H3111949   0.523   2.842   6.604  0.0824 -0.2213  0.5113
   60MOL    C3211950   0.443   3.010   6.535 -0.3562 -0.5848 -0.6044
   60MOL    O3311951   0.393   3.121   6.551 -0.6562  0.2057 -0.5039
   60MOL    C3411952   0.493   2.971   6.391 -0.2255 -0.7162 -0.3792
   60MOL    C3511953   0.417   2.861   6.321  0.6747 -0.9371  0.5197
   60MOL    N3611954   0.294   2.919   6.259  0.1471  0.2860 -0.4789
   60MOL    H3711955   0.587   2.916   6.402  1.3313  1.7974 -0.7840
   60MOL    H3811956   0.491   3.058   6.326 -1.6161 -0.7961 -0.4471
   60MOL    H3911957   0.482   2.818   6.245  1.5746  1.6381 -0.2291
   60MOL    H4011958   0.391   2.788   6.397  0.6087 -1.3987  0.0571
   60MOL    H4111959   0.303   2.952   6.164 -0.1744 -1.6598 -1.2126
   60MOL    C4211960   0.170   2.909   6.310 -0.0853 -0.5627 -1.2561
   60MOL    O4311961   0.146   2.858   6.421  0.0726  0.2897  0.4370
   60MOL    C4411962   0.054   2.971   6.229  0.1273 -0.4780  0.5244
   60MOL    C4511963   0.037   3.118   6.246 -0.1431  0.1471  0.1896
   60MOL    N4611964   7.704   3.166   6.317  0.3224 -0.8364  0.2412
   60MOL    H4711965   0.060   2.958   6.121  2.3637  1.3850  0.3957
   60MOL    H4811966   7.733   2.936   6.248  0.2468  0.0699  2.3258
   60MOL    H4911967   0.116   3.154   6.312 -1.9931 -0.0071  2.5449
   60MOL    H5011968   0.038   3.160   6.145  0.8013 -1.7799 -0.6528
   60MOL    H5111969   7.709   3.149   6.416 -1.3140  0.5027  0.5808
   60MOL    C5211970   7.582   3.202   6.274  0.6837 -0.6056 -0.7836
   60MOL    O5311971   7.565   3.218   6.155 -0.1456  0.3955 -0.6872
   60MOL    C5411972   7.474   3.220   6.383 -0.5808 -0.6199 -0.4215
   60MOL    C5511973   7.328   3.211   6.332 -0.0977 -0.0422 -0.4323
   60MOL    N5611974   7.276   3.076   6.301  0.4021 -0.0166  0.6464
   60MOL    H5711975   7.495   3.138   6.452 -1.7263 -1.9254 -1.6103
   60MOL    H5811976   7.491   3.313   6.437  0.3467 -0.0679 -1.6543
   60MOL    H5911977   7.327   3.262   6.236 -0.6536  0.4254 -0.1862
   60MOL    H6011978   7.256   3.268   6.390 -2.2714 -1.9583 -1.1349
   60MOL    H6111979   7.281   3.038   6.208 -2.4108  1.9380 -0.3537
   60MOL    C6211980   7.225   2.987   6.385  0.0066  0.6710 -0.5945
   60MOL    O6311981   7.212   3.010   6.506  0.2547 -0.3666  1.3879
   60MOL    C6411982   7.187   2.850   6.325 -0.8070 -0.4374 -0.8967
   60MOL    C6511983   7.099   2.761   6.415 -0.5435 -0.3554 -0.0934
   60MOL    N6611984   6.963   2.792   6.431  0.1806 -0.4435  0.0920
   60MOL    H6711985   7.145   2.871   6.226  0.6428  1.4284 -1.1469
   60MOL    H6811986   7.286   2.812   6.301 -0.8425 -0.2083 -1.4234
   60MOL    H6911987   7.109   2.657   6.384 -0.7464 -1.5288  3.4863
   60MOL    H7011988   7.123   2.756   6.521  2.5939 -2.4579 -0.8265
   60MOL    H7111989   6.937   2.818   6.526  0.4385 -1.5917  0.4913
   60MOL    C7211990   6.871   2.811   6.338 -0.6924  0.1123  0.6370
   60MOL    O7311991   6.899   2.788   6.219  0.7236  0.3645 -0.1547
   60MOL    C7411992   6.736   2.870   6.369  0.8658  0.2283 -0.3547
   60MOL    C7511993   6.731   3.017   6.404  0.5752  0.5239 -0.6550
   60MOL    N7611994   6.788   3.044   6.532 -0.9860  0.4811  0.0755
   60MOL    H7711995   6.675   2.864   6.279 -0.1887 -0.4619  0.3955
   60MOL    H7811996   6.677   2.825   6.449  1.0630  0.9950  0.2311
   60MOL    H7911997   6.794   3.074   6.335  0.3570 -0.0827 -1.3610
   60MOL    H8011998   6.628   3.052   6.398  0.5765  0.3937 -1.4158
   60MOL    H8111999   6.869   3.105   6.533 -0.1720 -0.5235 -2.2668
   60MOL    C8212000   6.739   3.036   6.654 -0.1881  0.1968 -0.0960
   60MOL    O8312001   6.635   2.982   6.680  0.4287 -0.0133 -0.0086
   60MOL    C8412002   6.812   3.117   6.760  0.3421  0.6513  0.7798
   60MOL    C8512003   6.739   3.222   6.841  0.1271  0.7412  0.2029
   60MOL    N8612004   6.823   3.304   6.927 -0.4480 -0.5257  0.3488
   60MOL    H8712005   6.857   3.041   6.825  0.7825  1.7183  1.7476
   60MOL    H8812006   6.903   3.156   6.715 -0.9774  1.6808 -1.0532
   60MOL    H8912007   6.686   3.279   6.765  0.0680 -0.5402 -0.7259
   60MOL    H9012008   6.660   3.177   6.901 -1.3421  2.2722 -0.5586
   60MOL    H9112009   6.875   3.383   6.891 -1.3015 -0.0784  0.1014
   60MOL    C9212010   6.813   3.304   7.064  0.0336  0.0030 -0.0005
   60MOL    O9312011   6.718   3.242   7.118  0.1188 -0.0693  0.0422
   60MOL    C9412012   6.934   3.354   7.138 -0.2330 -0.0828 -0.4166
   60MOL    C9512013   6.931   3.349   7.299 -0.1475  0.5198  0.5270
   60MOL    N9612014   6.909   3.476   7.368 -0.1281  0.3045  0.1878
   60MOL    H9712015   7.011   3.286   7.101  0.3998  2.0323 -3.0614
   60MOL    H9812016   6.950   3.453   7.098 -1.3740  0.1427 -0.3389
   60MOL    H9912017   6.853   3.280   7.333  0.6355  1.0670  3.5481
   60MOL   H10012018   7.031   3.318   7.326  1.4031  1.9000 -3.2585
   60MOL   H10112019   6.908   3.452   7.466  3.9433 -1.8616 -0.2087
   60MOL   C10212020   6.891   3.610   7.338  0.5339 -0.1110  0.6250
   60MOL   O10312021   6.929   3.655   7.231 -0.6482  0.5489 -0.0250
   60MOL   C10412022   6.824   3.705   7.440 -0.5076 -0.3462 -0.0905
   60MOL   C10512023   6.786   3.847   7.395 -0.0284  0.2847 -0.1251
   60MOL   N10612024   6.695   3.899   7.496  0.1109 -0.0093 -0.0962
   60MOL   H10712025   6.907   3.714   7.510 -1.2599  1.1283  0.6254
   60MOL   H10812026   6.748   3.649   7.494 -1.3919  0.9267  0.0089
   60MOL   H10912027   6.870   3.916   7.392  0.5188 -0.4041 -0.8293
   60MOL   H11012028   6.732   3.837   7.301 -0.4644  0.8877  0.0621
   60MOL   H11112029   6.607   3.854   7.516 -0.0631  1.1562  1.9482
   60MOL   C11212030   6.713   4.014   7.567 -0.2757 -0.1499 -0.8325
   60MOL   O11312031   6.814   4.083   7.557  0.1565 -0.1263 -0.3071
   60MOL   C11412032   6.600   4.068   7.651 -0.1093 -0.4318 -0.8852
   60MOL   C11512033   6.642   4.162   7.760 -0.5724  0.5142  0.0575
   60MOL   N11612034   6.712   4.085   0.090 -0.5305 -0.1297 -0.3732
   60MOL   H11712035   6.537   3.988   7.691  2.2256 -0.4161  3.0497
   60MOL   H11812036   6.530   4.122   7.586 -2.1239 -2.4779 -0.4932
   60MOL   H11912037   6.713   4.239   7.730  1.4949 -1.3605 -0.0574
   60MOL   H12012038   6.551   4.211   0.015  0.3151  1.4863  1.0138
   60MOL   H12112039   6.708   3.985   0.086  1.1996 -0.2400  0.1382
   60MOL   C12212040   6.782   4.130   0.198 -0.0744 -0.5578 -0.1673
   60MOL   O12312041   6.785   4.245   0.233 -0.6580 -0.5807 -0.3770
   60MOL   C12412042   6.861   4.022   0.284  0.3365 -0.6949  0.4808
   60MOL   C12512043   6.984   4.078   0.358 -0.0789 -0.5449  0.2532
   60MOL   N12612044   7.090   4.138   0.272  0.0465  0.4281  0.7868
   60MOL   H12712045   6.883   3.929   0.231 -0.8984 -1.4615  1.2948
   60MOL   H12812046   6.785   3.995   0.357  0.5405 -1.2357  0.4943
   60MOL   H12912047   6.956   4.153   0.432  0.0781  0.2875 -0.5207
   60MOL   H13012048   7.026   4.000   0.422 -0.0607 -1.7820 -1.2417
   60MOL   H13112049   7.111   4.081   0.191  0.8021  1.4994  0.2176
   60MOL   C13212050   7.184   4.227   0.322  0.0671 -0.3904 -0.0821
   60MOL   O13312051   7.176   4.289   0.425 -1.1803 -0.7070  0.0630
   60MOL   C13412052   7.309   4.239   0.233 -0.2913 -0.0710 -0.6755
   60MOL   C13512053   7.340   4.380   0.169  0.2902  0.2243 -0.0362
   60MOL   N13612054   7.247   4.415   0.052  0.5774 -0.1083 -0.1784
   60MOL   H13712055   7.316   4.160   0.158 -0.9754 -1.0839  0.2928
   60MOL   H13812056   7.386   4.224   0.308  0.3276  1.2994 -1.0343
   60MOL   H13912057   7.337   4.461   0.242 -1.3393  1.8044 -1.7983
   60MOL   H14012058   7.439   4.370   0.123 -0.1594 -0.4357 -0.8823
   60MOL   H14112059   7.207   4.508   0.048 -0.3083 -0.5705 -2.8526
   60MOL   C14212060   7.224   4.352   7.720 -0.2259  0.0029  0.3805
   60MOL   O14312061   7.278   4.248   7.687 -0.3289 -0.2245  0.0871
   60MOL   C14412062   7.123   4.413   7.628 -0.3222 -0.2021  0.1952
   60MOL   C14512063   6.973   4.362   7.657  0.6195  0.0946  0.0901
   60MOL   N14612064   6.917   4.418   7.779  0.1437 -0.2691  0.0983
   60MOL   H14712065   7.146   4.382   7.526 -0.3851  0.9029 -0.1627
   60MOL   H14812066   7.126   4.522   7.633  3.0716 -0.2129 -0.0064
   60MOL   H14912067   6.903   4.379   7.574 -0.9883 -0.0798  1.3873
   60MOL   H15012068   6.958   4.256   7.675 -0.8537  0.3322  0.3960
   60MOL   H15112069   6.932   4.356   0.077  1.4802 -0.8674 -0.6182
   60MOL   C15212070   6.868   4.546   0.001 -0.7262  0.4043 -0.1190
   60MOL   O15312071   6.850   4.613   7.678  0.2023  0.2915  0.3449
   60MOL   C15412072   6.847   4.605   0.142  0.2525 -0.3858  0.0233
   60MOL   C15512073   6.709   4.572   0.204  0.1642 -0.1516  0.1322
   60MOL   N15612074   6.614   4.675   0.170 -0.6801 -0.1992 -0.4736
   60MOL   H15712075   6.861   4.712   0.132  0.8666 -0.3471  1.2665
   60MOL   H15812076   6.923   4.576   0.215  0.9011  0.5213 -0.2779
   60MOL   H15912077   6.658   4.493   0.150  0.2245 -1.4837  1.9518
   60MOL   H16012078   6.697   4.540   0.308  0.8668 -3.4353 -0.7541
   60MOL   H16112079   6.636   4.740   0.096  1.0816 -0.8500 -0.5307
   60MOL   C16212080   6.492   4.686   0.231 -0.5136  0.1594  0.1390
   60MOL   O16312081   6.464   4.622   0.330 -0.0739  0.1471  0.1873
   60MOL   C16412082   6.391   4.783   0.174  0.3271 -0.6048  0.7610
   60MOL   C16512083   6.378   4.910   0.264 -0.3558 -0.5101 -0.0315
   60MOL   N16612084   6.496   4.993   0.264 -0.3303 -0.8803 -0.0015
   60MOL   H16712085   6.293   4.735   0.173  1.0539 -2.1151  1.3128
   60MOL   H16812086   6.419   4.807   0.071  1.3067 -1.5156  0.8122
   60MOL   H16912087   6.298   4.963   0.213  0.1060  1.5794  1.3673
   60MOL   H17012088   6.332   4.903   0.362  0.5305  2.4282  0.6196
   60MOL   H17112089   6.522   5.045   0.346 -2.1916  1.7150 -0.9825
   60MOL   C17212090   6.546   5.059   0.160 -0.6048 -0.5710  0.4656
   60MOL   O17312091   6.503   5.042   0.045 -0.5042  0.1832  0.6799
   60MOL   C17412092   6.665   5.157   0.185 -0.3207 -0.3005 -0.0246
   60MOL   C17512093   6.783   5.135   0.091  0.5402 -0.1266  0.2263
   60MOL   N17612094   6.846   5.263   0.065 -0.4109  0.1339  0.1817
   60MOL   H17712095   6.697   5.147   0.289  3.8535 -0.0423 -1.1884
   60MOL   H17812096   6.623   5.254   0.158 -0.0956 -0.1635  0.1080
   60MOL   H17912097   6.861   5.080   0.143  0.9971 -1.0292 -1.3725
   60MOL   H18012098   6.750   5.080   0.002 -1.3753 -0.4061  1.0866
   60MOL   H18112099   6.893   5.301   0.146 -0.5954  1.3035 -0.2585
   60MOL   C18212100   6.807   5.333   7.737  0.0204  0.0309  0.2838
   60MOL   O18312101   6.737   5.290   7.644 -0.1526  0.0181 -0.1296
   60MOL   C18412102   6.855   5.482   7.731  0.5649 -0.1472  0.0016
   60MOL   C18512103   6.885   5.516   7.584  0.5193  1.1187 -0.1513
   60MOL   N18612104   6.991   5.434   7.524  0.0356 -0.3945 -0.6310
   60MOL   H18712105   6.944   5.489   0.014 -0.9219  2.4178  1.9077
   60MOL   H18812106   6.767   5.541   7.756  0.1165 -0.3562 -1.0960
   60MOL   H18912107   6.798   5.503   7.521  1.1717 -1.6515 -0.5346
   60MOL   H19012108   6.908   5.623   7.583 -1.2989  1.5422  1.1879
   60MOL   H19112109   6.968   5.366   7.454  0.8233  1.9126 -3.1959
   60MOL   C19212110   7.126   5.451   7.552 -0.2677  0.0527  0.2354
   60MOL   O19312111   7.158   5.525   7.644 -0.2871  0.5285 -0.2165
   60MOL   C19412112   7.234   5.381   7.470 -0.3481  0.5808  0.3706
   60MOL   C19512113   7.276   5.249   7.538  0.3093  0.2668 -0.3846
   60MOL   N19612114   7.184   5.148   7.496 -0.1246 -0.4807  0.2495
   60MOL   H19712115   7.214   5.371   7.364  0.2523 -1.1215  0.4057
   60MOL   H19812116   7.325   5.441   7.467 -0.1887  0.2767 -2.7295
   60MOL   H19912117   7.374   5.217   7.504  1.5878  3.5463  0.0132
   60MOL   H20012118   7.281   5.258   7.646  0.8750 -2.2219 -0.1725
   60MOL   H20112119   7.138   5.179   7.412  1.4643  2.1869  0.3091
   60MOL   H20212120   7.113   5.130   7.566  0.4789  4.4275  2.3199
   61MOL     C112121   6.933   3.998   2.184  0.5322 -0.1640  0.4822
   61MOL     O212122   6.940   4.047   2.293  0.4231 -0.0371 -0.0526
   61MOL     C312123   6.792   3.953   2.131 -0.2302 -0.1719 -0.2487
   61MOL     C412124   6.661   4.052   2.148  0.1126 -0.2537  0.0920
   61MOL     N512125   6.598   4.045   2.281 -0.5295 -0.8935 -0.0420
   61MOL     H612126   6.770   3.859   2.181 -2.5388  0.0602 -0.7368
   61MOL     H712127   6.810   3.927   2.027 -1.5660  0.2853 -0.6156
   61MOL     H812128   6.584   4.039   2.073 -0.1412  1.0330  0.1172
   61MOL     H912129   6.699   4.154   2.138  0.5177 -0.3834  0.2643
   61MOL    H1012130   6.505   4.006   2.294 -2.1553  2.9762  0.7856
   61MOL    H1112131   7.022   3.992   2.122 -0.4788  1.8893 -1.2099
   61MOL    C1212132   6.639   4.123   2.385 -0.0104 -0.3323 -0.3864
   61MOL    O1312133   6.721   4.216   2.372  0.3644  0.9918 -0.2670
   61MOL    C1412134   6.554   4.114   2.509 -0.2244  0.3386 -0.0323
   61MOL    C1512135   6.606   4.203   2.624 -1.1722 -0.9440 -0.1797
   61MOL    N1612136   6.515   4.190   2.737 -0.8504  0.5750 -0.4345
   61MOL    H1712137   6.572   4.012   2.542  0.2236 -0.2651 -2.1215
   61MOL    H1812138   6.451   4.143   2.487  0.2535  1.3240 -1.0273
   61MOL    H1912139   6.709   4.176   2.646 -1.1636 -2.2236 -1.6855
   61MOL    H2012140   6.618   4.304   2.585 -1.7383 -0.6526  0.3937
   61MOL    H2112141   6.505   4.099   2.779  1.6285  0.9853  1.1143
   61MOL    C2212142   6.452   4.293   2.785 -0.3430 -0.5674 -0.7886
   61MOL    O2312143   6.476   4.407   2.743  0.4047 -0.1173 -0.2794
   61MOL    C2412144   6.348   4.268   2.892  0.6198 -0.0879  0.7299
   61MOL    C2512145   6.409   4.280   3.035 -0.8400  0.3423 -0.4847
   61MOL    N2612146   6.489   4.153   3.058  0.0054  0.9463  0.1682
   61MOL    H2712147   6.301   4.171   2.876  0.0049  0.2722  0.3130
   61MOL    H2812148   6.265   4.338   2.877  1.8852  1.3826  0.4113
   61MOL    H2912149   6.464   4.374   3.048 -0.2599 -0.1511  0.7024
   61MOL    H3012150   6.324   4.286   3.103 -0.1253 -2.0939  0.6779
   61MOL    H3112151   6.448   4.069   3.019 -0.0248  0.0769  2.0431
   61MOL    C3212152   6.599   4.137   3.123 -0.0902 -0.1797 -0.3571
   61MOL    O3312153   6.650   4.227   3.191  0.6301 -0.4097 -0.4110
   61MOL    C3412154   6.666   4.003   3.124  0.2873  0.5744 -0.7328
   61MOL    C3512155   6.742   3.970   2.994 -0.3781  0.8116  0.5927
   61MOL    N3612156   6.693   3.851   2.932 -0.2066 -0.2789 -0.4495
   61MOL    H3712157   6.589   3.930   3.152 -0.5944  1.8477  0.1869
   61MOL    H3812158   6.733   4.009   3.210  0.0720 -1.2304 -0.4133
   61MOL    H3912159   6.731   4.051   2.922 -1.2824  0.4801  0.3494
   61MOL    H4012160   6.848   3.951   3.007 -0.0930  1.9659  0.0320
   61MOL    H4112161   6.751   3.773   2.908 -1.9871 -1.1565 -2.0070
   61MOL    C4212162   6.574   3.844   2.866 -0.0790 -0.0801 -0.2124
   61MOL    O4312163   6.494   3.937   2.858 -0.5590 -0.5330  0.4944
   61MOL    C4412164   6.541   3.709   2.807  0.0926 -0.4467 -0.1686
   61MOL    C4512165   6.418   3.654   2.879 -0.7910  0.2742 -0.5938
   61MOL    N4612166   6.382   3.530   2.816 -0.1428  0.2957  0.6488
   61MOL    H4712167   6.534   3.723   2.699 -0.7334 -0.2120 -0.0859
   61MOL    H4812168   6.616   3.631   2.822 -0.0293 -0.3190  1.1743
   61MOL    H4912169   6.443   3.637   2.984  1.3465 -0.8643 -1.2557
   61MOL    H5012170   6.337   3.726   2.865 -2.8846 -1.7691  0.6795
   61MOL    H5112171   6.403   3.510   2.720  0.1514  3.5981 -0.0294
   61MOL    C5212172   6.330   3.427   2.881 -0.1791  0.4057  0.1765
   61MOL    O5312173   6.295   3.438   3.000 -0.9102  0.5450  0.5365
   61MOL    C5412174   6.284   3.308   2.800 -0.6230 -0.4210 -0.2695
   61MOL    C5512175   6.149   3.337   2.736 -0.2247  0.5569 -0.5333
   61MOL    N5612176   6.060   3.218   2.759  0.7159  0.6383 -0.0684
   61MOL    H5712177   6.363   3.266   2.738 -1.3316  1.4732 -2.4993
   61MOL    H5812178   6.274   3.231   2.877  0.9752 -0.3848  0.0052
   61MOL    H5912179   6.173   3.336   2.630  1.8731 -0.9929 -0.0847
   61MOL    H6012180   6.114   3.437   2.761  1.4986  0.3488  3.0648
   61MOL    H6112181   6.106   3.129   2.772  1.0039  0.6926 -0.7205
   61MOL    C6212182   5.925   3.221   2.753  0.0605 -0.1024 -0.4504
   61MOL    O6312183   5.869   3.330   2.760 -0.3119 -0.0874  0.1188
   61MOL    C6412184   5.841   3.094   2.739  0.2163 -0.3074  0.0729
   61MOL    C6512185   5.786   3.040   2.878 -1.0179 -0.1526  0.8196
   61MOL    N6612186   5.651   3.089   2.914 -0.2938  0.9604 -0.3727
   61MOL    H6712187   5.763   3.122   2.668  0.9891 -2.6032 -1.7218
   61MOL    H6812188   5.898   3.016   2.689  0.6971  1.0024 -1.4528
   61MOL    H6912189   5.782   2.932   2.866  1.2455 -0.0333 -1.4559
   61MOL    H7012190   5.849   3.054   2.966 -2.6520  2.1047  1.6861
   61MOL    H7112191   5.651   3.157   2.989  0.8054 -0.4401  0.9410
   61MOL    C7212192   5.547   3.008   2.916  0.4440 -0.7999  0.5074
   61MOL    O7312193   5.519   2.928   2.831  0.0243  0.6763  0.1472
   61MOL    C7412194   5.441   3.027   3.031 -0.5631 -0.2127  0.3888
   61MOL    C7512195   5.397   2.894   3.083  0.7383  0.0234  0.2929
   61MOL    N7612196   5.506   2.803   3.129 -0.3499  0.3307  0.5375
   61MOL    H7712197   5.487   3.085   3.111 -0.7368 -0.5763  0.7559
   61MOL    H7812198   5.356   3.091   3.007 -0.3361 -0.6105 -1.4861
   61MOL    H7912199   5.331   2.906   3.169 -0.7184 -1.6590 -0.5737
   61MOL    H8012200   5.348   2.844   3.000 -0.9082 -0.2895  1.4194
   61MOL    H8112201   5.532   2.729   3.065  0.7583  1.0378  0.1527
   61MOL    C8212202   5.564   2.791   3.244  0.2508 -0.2284 -0.1334
   61MOL    O8312203   5.537   2.872   3.334 -0.0743 -0.3422 -0.3528
   61MOL    C8412204   5.654   2.665   3.274 -0.2565 -0.2891  0.2920
   61MOL    C8512205   5.579   2.573   3.371  0.0040 -0.5697  0.2374
   61MOL    N8612206   5.589   2.598   3.513 -0.0201  0.0760 -0.0075
   61MOL    H8712207   5.680   2.620   3.179 -1.1844  1.2278 -0.7106
   61MOL    H8812208   5.748   2.704   3.314 -0.7268 -0.2031  1.3287
   61MOL    H8912209   5.475   2.563   3.340 -0.0253  4.2198 -1.6235
   61MOL    H9012210   5.618   2.472   3.355  1.0554 -0.2210  0.5422
   61MOL    H9112211   5.683   2.602   3.550  0.8383 -0.6284 -2.0418
   61MOL    C9212212   5.478   2.595   3.593  0.7910  1.1140  0.8264
   61MOL    O9312213   5.359   2.581   3.552 -0.0113  0.4549 -0.4097
   61MOL    C9412214   5.497   2.593   3.745  0.1632  0.3461  0.3705
   61MOL    C9512215   5.365   2.572   3.826  0.4103 -0.2704 -0.7001
   61MOL    N9612216   5.376   2.555   3.975 -0.6946 -0.4157  0.2000
   61MOL    H9712217   5.569   2.511   3.759  1.2923  1.5999  2.0432
   61MOL    H9812218   5.568   2.671   3.770  0.4856  0.2229 -0.1436
   61MOL    H9912219   5.293   2.652   3.808 -0.5151 -0.9387  0.0115
   61MOL   H10012220   5.314   2.486   3.784 -1.1359 -0.7992  2.1500
   61MOL   H10112221   5.448   2.607   4.025 -1.1048 -1.7299  2.1854
   61MOL   C10212222   5.294   2.476   4.045 -1.1294  0.1581  0.3048
   61MOL   O10312223   5.204   2.410   3.989  0.0228 -0.0976  0.0721
   61MOL   C10412224   5.300   2.476   4.202  0.2616 -1.0070 -0.5255
   61MOL   C10512225   5.278   2.328   4.254  0.3167  0.2143 -0.9232
   61MOL   N10612226   5.375   2.236   4.197  0.0260  0.3303  0.4062
   61MOL   H10712227   5.216   2.534   4.239  1.5554  1.6177 -1.6075
   61MOL   H10812228   5.382   2.536   4.240  0.5120 -0.2953 -2.1277
   61MOL   H10912229   5.276   2.319   4.363  0.3578  1.1552 -0.8404
   61MOL   H11012230   5.179   2.303   4.216  0.8093 -3.8430  0.3007
   61MOL   H11112231   5.465   2.267   4.166 -0.0186 -0.2740 -0.3512
   61MOL   C11212232   5.350   2.106   4.181 -0.3404  0.6834  0.1230
   61MOL   O11312233   5.247   2.056   4.227  0.3301  0.3198 -0.0126
   61MOL   C11412234   5.453   2.027   4.111 -0.3293  0.3681  1.0056
   61MOL   C11512235   5.407   1.975   3.972 -0.0825  0.0781  0.3476
   61MOL   N11612236   5.418   2.081   3.873 -0.3540 -0.4804 -0.5591
   61MOL   H11712237   5.465   1.935   4.168 -2.1840 -0.6690 -0.2152
   61MOL   H11812238   5.554   2.070   4.106 -0.0764 -0.3846 -1.1391
   61MOL   H11912239   5.468   1.888   3.945  0.2077  0.4663 -0.2687
   61MOL   H12012240   5.304   1.940   3.967  0.7650 -2.6321  0.9384
   61MOL   H12112241   5.420   2.175   3.910 -1.2897  0.1865 -2.1394
   61MOL   C12212242   5.410   2.068   3.741  0.1412 -0.0554  0.2054
   61MOL   O12312243   5.406   1.956   3.686  0.3801 -0.8235  0.5448
   61MOL   C12412244   5.411   2.200   3.660  0.7505  0.3556  0.0438
   61MOL   C12512245   5.479   2.189   3.522 -0.0811  0.0301  0.1663
   61MOL   N12612246   5.387   2.147   3.413 -0.3668 -0.2380 -0.6157
   61MOL   H12712247   5.461   2.279   3.715 -1.5839  2.5541 -0.9146
   61MOL   H12812248   5.304   2.222   3.654  0.0924 -1.7554  2.6813
   61MOL   H12912249   5.522   2.280   3.480  0.2243 -0.2916 -0.2260
   61MOL   H13012250   5.565   2.122   3.525 -1.4941 -1.8362  0.7553
   61MOL   H13112251   5.309   2.207   3.387  0.1675  1.5664  1.7803
   61MOL   C13212252   5.410   2.052   3.329  0.4320  0.3392  0.3873
   61MOL   O13312253   5.514   1.991   3.321 -0.0492 -0.2508  0.0656
   61MOL   C13412254   5.293   2.026   3.236  0.8138  0.3412  0.6281
   61MOL   C13512255   5.308   2.109   3.109  0.0120  0.4844 -0.1028
   61MOL   N13612256   5.230   2.237   3.098  0.4453 -0.2780  0.9339
   61MOL   H13712257   5.198   2.039   3.288  0.4908 -0.3149  0.2018
   61MOL   H13812258   5.291   1.923   3.200  1.5172  0.4798  0.1986
   61MOL   H13912259   5.414   2.126   3.087 -0.0327  0.6082 -0.2257
   61MOL   H14012260   5.265   2.050   3.028  1.0492  2.8618 -2.4672
   61MOL   H14112261   5.162   2.237   3.023  0.0720 -1.8238  1.2378
   61MOL   C14212262   5.239   2.351   3.177 -0.1948  0.2693 -0.2531
   61MOL   O14312263   5.331   2.370   3.260  0.7990 -0.1339 -0.0377
   61MOL   C14412264   5.127   2.456   3.171 -0.0792 -0.1009  0.2094
   61MOL   C14512265   5.161   2.599   3.240  0.1591  0.1355 -0.3998
   61MOL   N14612266   5.157   2.580   3.384  0.0626  0.2430 -0.3102
   61MOL   H14712267   5.042   2.411   3.223 -0.2880  1.1470  0.9745
   61MOL   H14812268   5.098   2.469   3.067 -3.1756 -1.8437  0.7854
   61MOL   H14912269   5.256   2.645   3.213 -1.6093  2.5052 -2.7724
   61MOL   H15012270   5.088   2.673   3.208 -1.3712 -1.5998 -1.0512
   61MOL   H15112271   5.243   2.588   3.437 -1.2542  2.6150  1.5920
   61MOL   C15212272   5.045   2.553   3.459  0.1440 -0.3917 -0.4101
   61MOL   O15312273   4.932   2.546   3.408  0.4568  0.6052 -0.1291
   61MOL   C15412274   5.073   2.535   3.608  0.0043 -0.6442 -0.6374
   61MOL   C15512275   4.940   2.526   3.693 -0.2240 -0.5683  0.5891
   61MOL   N15612276   4.964   2.553   3.834 -0.1855  0.7503 -0.2499
   61MOL   H15712277   5.132   2.613   3.656 -1.0054 -0.7626  0.8413
   61MOL   H15812278   5.128   2.443   3.629 -0.0975 -0.4982  0.2958
   61MOL   H15912279   4.871   2.603   3.660  0.9010  0.8132  1.4154
   61MOL   H16012280   4.889   2.430   3.683  1.7301 -1.5268 -0.6508
   61MOL   H16112281   5.057   2.543   3.870 -0.0906 -2.2804 -1.1698
   61MOL   C16212282   4.866   2.563   3.927 -0.2333  0.5341  0.3769
   61MOL   O16312283   4.744   2.570   3.905 -0.0254  0.0267  0.4193
   61MOL   C16412284   4.921   2.565   4.072  0.4716 -0.1647  0.4419
   61MOL   C16512285   4.815   2.585   4.181  0.4321 -0.2006 -0.5595
   61MOL   N16612286   4.794   2.727   4.202 -0.3466  0.3382  0.4027
   61MOL   H16712287   4.999   2.639   4.090  0.7405  0.4242 -2.6993
   61MOL   H16812288   4.961   2.466   4.093 -2.6346 -1.3651  0.8604
   61MOL   H16912289   4.722   2.533   4.157 -0.7468  0.7272  1.8277
   61MOL   H17012290   4.853   2.545   4.275 -0.2672 -0.8530 -0.5518
   61MOL   H17112291   4.861   2.793   4.164 -0.3654  0.0786 -0.0941
   61MOL   C17212292   4.708   2.770   4.296  0.3700  0.1740  0.0251
   61MOL   O17312293   4.622   2.693   4.337  0.1026 -0.4608  0.1211
   61MOL   C17412294   4.713   2.922   4.325 -0.0217 -0.4670 -0.5859
   61MOL   C17512295   4.677   2.960   4.470 -0.0144 -0.2935  0.2260
   61MOL   N17612296   4.680   3.112   4.490 -0.7817  0.0574  0.6930
   61MOL   H17712297   4.648   2.969   4.251 -1.9982 -1.7216  0.3173
   61MOL   H17812298   4.817   2.952   4.315  0.3524 -0.9258  1.6918
   61MOL   H17912299   4.577   2.921   4.489  0.0084 -0.1274  0.7046
   61MOL   H18012300   4.751   2.914   4.536  0.3930 -1.4548 -1.0305
   61MOL   H18112301   4.725   3.163   4.416 -0.5763 -2.0411 -0.6688
   61MOL   C18212302   4.631   3.178   4.595  0.8063  0.2410  0.4375
   61MOL   O18312303   4.596   3.126   4.702  0.6087  0.9008 -0.6324
   61MOL   C18412304   4.636   3.328   4.576  0.2719 -0.3599 -0.3163
   61MOL   C18512305   4.748   3.385   4.669  1.0265  0.6536  0.3271
   61MOL   N18612306   4.754   3.526   4.664  0.4030  0.0130  0.4698
   61MOL   H18712307   4.537   3.365   4.604  0.0321 -1.7741  0.8143
   61MOL   H18812308   4.644   3.345   4.469 -2.6909  0.4140 -0.4719
   61MOL   H18912309   4.748   3.340   4.768  0.9951 -0.1103 -0.0152
   61MOL   H19012310   4.846   3.358   4.629 -0.0554 -1.5232 -0.9473
   61MOL   H19112311   4.757   3.566   4.572 -0.7231  1.2306  0.9438
   61MOL   C19212312   4.723   3.618   4.757 -0.3682  0.4243 -0.6936
   61MOL   O19312313   4.688   3.589   4.871 -0.6589  0.5145  0.0268
   61MOL   C19412314   4.742   3.766   4.721  0.5647  0.3821 -0.6181
   61MOL   C19512315   4.691   3.816   4.581  0.5025 -0.2806 -0.4296
   61MOL   N19612316   4.755   3.747   4.473 -0.3791  0.2942  0.2665
   61MOL   H19712317   4.686   3.815   4.801 -0.7478  0.0532 -1.3128
   61MOL   H19812318   4.845   3.798   4.734  0.9926 -0.7067 -1.2465
   61MOL   H19912319   4.583   3.801   4.579  0.1680  1.9562 -0.0078
   61MOL   H20012320   4.693   3.923   4.565 -0.8016 -0.4192 -1.5875
   61MOL   H20112321   4.715   3.770   4.384  2.4248  1.0463 -0.8465
   61MOL   H20212322   4.840   3.803   4.471 -0.3193  0.3033  2.1627
   62MOL     C112323   6.347   6.045   6.744  0.5061 -0.6332 -0.5831
   62MOL     O212324   6.405   5.974   6.833  0.5336  0.5403 -0.0142
   62MOL     C312325   6.283   6.177   6.789  0.3252  0.6649  0.5831
   62MOL     C412326   6.376   6.274   6.858  0.9888  0.3631  0.7169
   62MOL     N512327   6.447   6.356   6.765 -0.5904  0.2823 -0.0229
   62MOL     H612328   6.207   6.157   6.864 -0.4535 -2.3706 -0.9760
   62MOL     H712329   6.238   6.218   6.699 -0.0134 -0.4229  0.2541
   62MOL     H812330   6.439   6.223   6.931  1.2845 -0.6709 -0.2418
   62MOL     H912331   6.309   6.321   6.930 -0.3829 -0.5674  0.0719
   62MOL    H1012332   6.434   6.456   6.769 -0.9155  0.2541 -0.3741
   62MOL    H1112333   6.330   6.024   6.639 -5.0985  1.2182 -0.2386
   62MOL    C1212334   6.552   6.317   6.692 -0.1212 -0.7197 -0.0607
   62MOL    O1312335   6.588   6.195   6.681  0.8223  0.0383  0.3422
   62MOL    C1412336   6.615   6.429   6.613 -0.3451 -0.4597  0.1645
   62MOL    C1512337   6.725   6.509   6.682 -0.0872 -0.2805 -0.0369
   62MOL    N1612338   6.831   6.567   6.606  0.1906 -0.6816  0.2016
   62MOL    H1712339   6.544   6.504   6.578 -1.9499 -1.5600  1.0510
   62MOL    H1812340   6.653   6.384   6.521  0.0205  2.9509 -1.4771
   62MOL    H1912341   6.692   6.583   6.754  0.1608 -0.6497  0.4595
   62MOL    H2012342   6.782   6.443   6.748  1.1854 -0.0060 -0.8351
   62MOL    H2112343   6.901   6.504   6.571  0.8219 -0.5748  1.2316
   62MOL    C2212344   6.854   6.698   6.582  0.1244  0.1076 -0.7076
   62MOL    O2312345   6.781   6.790   6.621 -0.2944 -0.4621 -0.0208
   62MOL    C2412346   6.973   6.736   6.490 -0.0143  0.8463 -0.3142
   62MOL    C2512347   6.932   6.854   6.392  0.2881 -0.3153 -0.2137
   62MOL    N2612348   7.000   6.840   6.263 -0.1700 -0.1586 -0.7319
   62MOL    H2712349   7.004   6.650   6.430 -0.5391  0.0687  0.5188
   62MOL    H2812350   7.062   6.761   6.548  1.3779 -3.0261 -0.6147
   62MOL    H2912351   6.824   6.865   6.378  0.5658  0.6859 -1.6207
   62MOL    H3012352   6.962   6.938   6.454 -0.6688  0.1955 -0.4279
   62MOL    H3112353   7.098   6.864   6.260 -0.5210  1.5196  0.2632
   62MOL    C3212354   6.937   6.802   6.150  0.2903 -0.4295  0.6130
   62MOL    O3312355   6.816   6.786   6.150  0.6515  0.0083  0.3506
   62MOL    C3412356   7.023   6.783   6.025 -0.7629  0.4392 -0.4433
   62MOL    C3512357   6.964   6.861   5.909 -0.1318  0.2750 -0.1086
   62MOL    N3612358   6.831   6.826   5.865 -0.1383  0.4469  0.1376
   62MOL    H3712359   7.035   6.675   6.012 -2.3784  0.3249 -1.0693
   62MOL    H3812360   7.125   6.816   6.046 -0.3280 -0.6717 -0.7095
   62MOL    H3912361   6.974   6.968   5.931 -0.0241  0.2351  0.0380
   62MOL    H4012362   7.033   6.838   5.828 -0.9691  0.7037 -0.9559
   62MOL    H4112363   6.772   6.760   5.913 -0.4538 -0.7611 -1.8434
   62MOL    C4212364   6.775   6.882   5.758  0.3740 -0.0100  0.5801
   62MOL    O4312365   6.819   6.981   5.702  0.2991  0.3659  0.4366
   62MOL    C4412366   6.640   6.816   5.722  0.2099  0.8652  0.3542
   62MOL    C4512367   6.526   6.900   5.664 -0.0475  0.2045 -1.2074
   62MOL    N4612368   6.519   6.870   5.521 -0.0666  0.5109  0.1119
   62MOL    H4712369   6.681   6.749   5.646  2.7140  0.3473  2.0938
   62MOL    H4812370   6.600   6.754   5.802 -0.9752  1.9279  0.5953
   62MOL    H4912371   6.444   6.863   5.725  1.2484  2.6551  2.1846
   62MOL    H5012372   6.527   7.009   5.673  0.3322 -0.0143  1.9161
   62MOL    H5112373   6.539   6.951   5.464  0.4973 -0.5978 -1.2966
   62MOL    C5212374   6.472   6.753   5.467 -0.2192  0.6280  0.5028
   62MOL    O5312375   6.438   6.657   5.538  0.9048  0.3990  0.1746
   62MOL    C5412376   6.439   6.754   5.318 -0.1094  0.4647 -0.3488
   62MOL    C5512377   6.292   6.787   5.280  0.3266  0.0538 -0.1637
   62MOL    N5612378   6.261   6.932   5.293  0.2388 -0.3037 -0.5607
   62MOL    H5712379   6.509   6.811   5.257  0.3926  1.7563  1.3946
   62MOL    H5812380   6.457   6.650   5.291 -0.5048  0.4806 -0.6614
   62MOL    H5912381   6.235   6.743   5.362 -2.0279 -4.6045 -4.0717
   62MOL    H6012382   6.272   6.753   5.178  1.1109 -1.3511  0.1508
   62MOL    H6112383   6.296   6.996   5.223  0.9053  0.9248  0.8700
   62MOL    C6212384   6.203   6.991   5.397 -0.8201 -0.1387 -0.2742
   62MOL    O6312385   6.151   6.927   5.489 -0.0291 -0.0179 -0.2241
   62MOL    C6412386   6.195   7.144   5.401  0.0833 -0.2009  0.1813
   62MOL    C6512387   6.172   7.207   5.544  0.4458  0.0992 -0.5736
   62MOL    N6612388   6.299   7.244   5.619  0.3130  0.2631  0.0388
   62MOL    H6712389   6.283   7.179   5.347 -0.8435  2.3177  0.2370
   62MOL    H6812390   6.113   7.171   5.335 -0.9258 -3.0402  0.2040
   62MOL    H6912391   6.124   7.303   5.528 -0.1269 -0.2955 -1.2306
   62MOL    H7012392   6.105   7.158   5.615  1.6760  0.3832  0.8071
   62MOL    H7112393   6.316   7.196   5.706  0.2340  0.0986 -0.0360
   62MOL    C7212394   6.392   7.334   5.588 -0.3669  0.2947  0.4913
   62MOL    O7312395   6.400   7.382   5.476  0.1439 -0.1906 -0.2919
   62MOL    C7412396   6.480   7.391   5.699  0.0174 -0.2512 -0.5225
   62MOL    C7512397   6.618   7.327   5.679  0.0919 -0.3757 -0.0893
   62MOL    N7612398   6.719   7.372   5.776  0.4365  0.4524  0.4422
   62MOL    H7712399   6.474   7.499   5.712  0.8195 -0.5703  2.8965
   62MOL    H7812400   6.441   7.362   5.797  0.8468 -0.6455 -0.3038
   62MOL    H7912401   6.620   7.219   5.667  2.9213 -0.4149  0.4301
   62MOL    H8012402   6.653   7.347   5.577  0.4690  0.5237  0.2155
   62MOL    H8112403   6.737   7.302   5.847  0.1747  2.1328  2.1911
   62MOL    C8212404   6.794   7.478   5.761  0.6532 -0.2601  0.0913
   62MOL    O8312405   6.781   7.550   5.665 -0.5204 -0.1248 -0.0901
   62MOL    C8412406   6.902   7.497   5.865  0.1347 -0.3317  0.3075
   62MOL    C8512407   7.042   7.453   5.830  0.0610  0.6454  0.0972
   62MOL    N8612408   7.047   7.315   5.776  0.7409  0.0453  0.7596
   62MOL    H8712409   6.899   7.606   5.873  1.6016 -0.2331 -0.1454
   62MOL    H8812410   6.863   7.464   5.961 -2.6782 -2.8559 -1.6125
   62MOL    H8912411   7.093   7.514   5.756  0.8295  2.1085  1.8016
   62MOL    H9012412   7.104   7.461   5.919 -0.3632  3.2923  0.1949
   62MOL    H9112413   6.972   7.252   5.802  0.2481  0.3785  0.1705
   62MOL    C9212414   7.154   7.261   5.719  0.5997  0.0095  0.2130
   62MOL    O9312415   7.259   7.327   5.703  0.0876 -0.2102  0.1792
   62MOL    C9412416   7.146   7.113   5.671 -0.1111 -0.3578  0.2692
   62MOL    C9512417   7.278   7.068   5.612  0.0829  0.0549  0.4230
   62MOL    N9612418   7.279   6.928   5.573  0.1295  0.5127 -0.3204
   62MOL    H9712419   7.122   7.060   5.763 -2.4397 -0.9353 -0.6303
   62MOL    H9812420   7.060   7.100   5.606  0.5834  0.0527 -0.7524
   62MOL    H9912421   7.286   7.111   5.512 -0.3688  1.9454  1.1820
   62MOL   H10012422   7.371   7.103   5.657  0.0846  0.4134  0.1516
   62MOL   H10112423   7.291   6.912   5.474 -0.8764  0.2802 -0.4105
   62MOL   C10212424   7.290   6.818   5.650 -0.4563  0.7500  0.4766
   62MOL   O10312425   7.274   6.823   5.771 -0.4101  0.8339 -0.0948
   62MOL   C10412426   7.327   6.690   5.575  0.6781  0.6742 -0.3011
   62MOL   C10512427   7.227   6.574   5.607 -0.2239  0.4287  0.3197
   62MOL   N10612428   7.265   6.453   5.538  0.2609  0.1077 -0.8411
   62MOL   H10712429   7.429   6.656   5.596  1.1720  2.4493  0.3345
   62MOL   H10812430   7.321   6.703   5.467  2.6029  0.6259 -0.4286
   62MOL   H10912431   7.217   6.547   5.712  1.9888 -0.1652  0.4128
   62MOL   H11012432   7.131   6.616   5.576 -0.2317 -1.7174 -2.8277
   62MOL   H11112433   7.313   6.380   5.589 -0.3328  0.2899  0.0047
   62MOL   C11212434   7.201   6.402   5.435 -0.2404  0.0022 -0.2718
   62MOL   O11312435   7.140   6.473   5.360 -0.7301  0.1146 -0.7419
   62MOL   C11412436   7.205   6.247   5.411 -0.0869  0.0452  0.3597
   62MOL   C11512437   7.248   6.195   5.273 -0.1306  0.5197 -0.1093
   62MOL   N11612438   7.151   6.235   5.169 -0.3248 -0.0778  0.0182
   62MOL   H11712439   7.106   6.220   5.449 -0.0364 -0.5110  0.1079
   62MOL   H11812440   7.274   6.192   5.476  1.4787  0.5732 -0.8269
   62MOL   H11912441   7.345   6.240   5.255 -0.5190  1.9273  1.1538
   62MOL   H12012442   7.264   6.087   5.270 -0.9534  0.3680  0.5598
   62MOL   H12112443   7.172   6.323   5.124  0.3151 -0.1597  0.1492
   62MOL   C12212444   7.028   6.181   5.150  0.2927  1.1549  0.3170
   62MOL   O12312445   7.001   6.069   5.197 -0.0618 -0.1471 -0.2713
   62MOL   C12412446   6.925   6.261   5.063 -0.4911  0.1829 -0.1255
   62MOL   C12512447   6.873   6.397   5.118 -0.5318 -0.4553  0.4936
   62MOL   N12612448   6.975   6.500   5.131  0.3645 -0.8594 -0.1915
   62MOL   H12712449   6.858   6.183   5.025  1.4245  0.3151 -4.1059
   62MOL   H12812450   6.988   6.288   4.978 -0.0678 -0.0288  0.1218
   62MOL   H12912451   6.790   6.422   5.051 -2.5413  2.0793  3.7831
   62MOL   H13012452   6.834   6.379   5.218  0.5476  1.1842  1.2296
   62MOL   H13112453   7.042   6.488   5.206 -0.1787 -3.1774 -0.0400
   62MOL   C13212454   6.998   6.607   5.051  0.8650  0.2192  0.1931
   62MOL   O13312455   6.922   6.631   4.956  0.4569  0.5118 -0.3331
   62MOL   C13412456   7.118   6.691   5.094 -0.7711 -0.0629  0.1020
   62MOL   C13512457   7.240   6.675   5.002  0.3456 -0.4783  0.2839
   62MOL   N13612458   7.326   6.570   5.042  0.1872 -0.6281 -0.0578
   62MOL   H13712459   7.154   6.678   5.196  1.9950  1.0194 -0.7012
   62MOL   H13812460   7.086   6.793   5.075 -2.3582 -0.8118 -1.3926
   62MOL   H13912461   7.196   6.661   4.904  1.9866  0.6334 -0.6314
   62MOL   H14012462   7.288   6.774   5.001 -2.0872  0.7860 -4.5169
   62MOL   H14112463   7.322   6.479   4.998  3.1312 -1.7107  1.7079
   62MOL   C14212464   7.438   6.584   5.112 -0.5903  0.3128 -0.3213
   62MOL   O14312465   7.464   6.691   5.166 -0.7151 -0.4858 -0.0866
   62MOL   C14412466   7.532   6.459   5.122 -0.3406  0.0954 -0.6470
   62MOL   C14512467   7.586   6.432   5.269 -0.0613 -0.1463  0.0174
   62MOL   N14612468   7.668   6.316   5.270 -0.1129 -0.1006 -0.5753
   62MOL   H14712469   7.615   6.477   5.055 -1.4899  0.4750 -1.9978
   62MOL   H14812470   7.482   6.374   5.075 -0.6812 -0.3379  0.4817
   62MOL   H14912471   7.640   6.512   5.319 -1.5785 -0.6955  2.6681
   62MOL   H15012472   7.500   6.409   5.332 -0.4993 -2.0471 -1.2373
   62MOL   H15112473   7.625   6.239   5.320 -1.3504  1.2684  0.5081
   62MOL   C15212474   0.011   6.307   5.217  0.4117  0.5829 -0.3792
   62MOL   O15312475   0.074   6.398   5.162 -0.1284 -0.1802  1.1618
   62MOL   C15412476   0.081   6.176   5.260 -1.0462 -0.3389  0.2193
   62MOL   C15512477   0.161   6.102   5.155  0.2158  0.0447  0.0185
   62MOL   N15612478   0.085   6.065   5.035  0.3230 -0.3759 -0.0006
   62MOL   H15712479   0.011   6.097   5.289 -1.8714  0.1417 -0.4409
   62MOL   H15812480   0.154   6.210   5.334 -1.8553  1.2497  0.3041
   62MOL   H15912481   0.244   6.163   5.120 -0.9334  0.4474 -2.0916
   62MOL   H16012482   0.205   6.017   5.208 -0.7243 -0.6446 -0.2801
   62MOL   H16112483   0.100   6.127   4.957 -3.8109  1.7825  0.7352
   62MOL   C16212484   7.744   5.998   5.032  0.1547 -0.3621 -0.3699
   62MOL   O16312485   7.696   5.923   5.112  0.1827  0.1685 -0.8199
   62MOL   C16412486   7.666   6.020   4.900  0.1638  0.2337  0.4754
   62MOL   C16512487   7.582   6.149   4.922  0.6119 -0.6389 -0.2791
   62MOL   N16612488   7.481   6.148   4.819  0.3261  0.1894  0.2368
   62MOL   H16712489   7.604   5.932   4.885 -0.6595  0.6983  1.1002
   62MOL   H16812490   7.732   6.040   4.816 -0.8615  0.7387 -0.2244
   62MOL   H16912491   7.524   6.140   5.014 -0.6405 -1.3214 -1.1330
   62MOL   H17012492   7.638   6.242   4.918 -1.2929  0.5481  0.1189
   62MOL   H17112493   7.507   6.096   4.737  0.8551  0.7781  0.0283
   62MOL   C17212494   7.354   6.194   4.832  0.7333  0.3637  0.1322
   62MOL   O17312495   7.314   6.263   4.923 -0.2122 -0.2327  0.0711
   62MOL   C17412496   7.256   6.158   4.722  0.7676 -0.6890  0.6162
   62MOL   C17512497   7.166   6.033   4.762  0.4098  0.7973 -0.5992
   62MOL   N17612498   7.247   5.914   4.777  0.1219  0.8513 -0.1004
   62MOL   H17712499   7.317   6.120   4.640  2.3049 -0.5471  1.6627
   62MOL   H17812500   7.190   6.237   4.687  1.5432 -0.1203  0.4275
   62MOL   H17912501   7.116   6.066   4.854  3.4052  0.2164  1.3315
   62MOL   H18012502   7.085   6.016   4.692  0.6715  2.6454 -1.3829
   62MOL   H18112503   7.285   5.893   4.868  1.3521  2.8457 -0.1351
   62MOL   C18212504   7.255   5.814   4.686 -0.4099 -0.1632  0.2725
   62MOL   O18312505   7.206   5.815   4.572  0.3926  0.0733  0.1409
   62MOL   C18412506   7.355   5.701   4.733 -0.1164 -0.2581  0.6206
   62MOL   C18512507   7.315   5.561   4.682 -0.1439  0.0726 -0.0372
   62MOL   N18612508   7.373   5.527   4.555 -0.3743  0.4466  0.4091
   62MOL   H18712509   7.358   5.690   4.842  0.5661 -3.5018  0.3064
   62MOL   H18812510   7.458   5.724   4.707 -0.4641  1.4733  0.6904
   62MOL   H18912511   7.353   5.491   4.756  1.2927  0.3664 -0.4860
   62MOL   H19012512   7.206   5.550   4.686  0.0562 -1.6065  1.5448
   62MOL   H19112513   7.312   5.522   4.475  0.5244  0.3017 -0.2864
   62MOL   C19212514   7.501   5.491   4.538 -0.1864 -0.1686 -0.4024
   62MOL   O19312515   7.587   5.523   4.617  0.3728  0.1930 -0.3120
   62MOL   C19412516   7.537   5.441   4.396 -0.1824  0.2725  0.3374
   62MOL   C19512517   7.620   5.313   4.400 -0.1400  0.8231 -0.1085
   62MOL   N19612518   7.541   5.201   4.424  0.1290 -0.2108  0.0058
   62MOL   H19712519   7.449   5.424   4.334 -0.3575 -0.2528  0.7303
   62MOL   H19812520   7.582   5.527   4.346 -1.9365  1.2326  0.3527
   62MOL   H19912521   7.667   5.299   4.303  1.4788  0.6067  0.6796
   62MOL   H20012522   7.699   5.315   4.475  0.5454 -1.5789 -0.7086
   62MOL   H20112523   7.601   5.120   4.415  0.4137 -0.1212  1.0193
   62MOL   H20212524   7.507   5.198   4.520 -2.9502 -0.4172 -1.0142
   63MOL     C112525   4.342   0.892   0.012  0.4236  0.3296  0.1938
   63MOL     O212526   4.344   0.861   0.132  0.4045 -0.2744 -1.0721
   63MOL     C312527   4.421   1.012   7.734  0.2639 -0.3588  0.0142
   63MOL     C412528   4.485   1.109   0.061  0.5145 -0.0535  0.3902
   63MOL     N512529   4.385   1.208   0.115  0.6058 -0.2265 -0.4927
   63MOL     H612530   4.363   1.059   7.654 -1.2165  0.0009  1.2779
   63MOL     H712531   4.502   0.958   7.683 -0.4128 -0.3862 -1.0535
   63MOL     H812532   4.564   1.165   0.012  0.0302 -0.1527 -0.4974
   63MOL     H912533   4.535   1.045   0.134  2.4464  0.2069 -0.6532
   63MOL    H1012534   4.286   1.195   0.098  0.0595  1.3943  1.2285
   63MOL    H1112535   4.312   0.824   7.712 -2.7371  1.0570  0.6887
   63MOL    C1212536   4.410   1.295   0.212 -0.9596 -0.6045  0.3602
   63MOL    O1312537   4.511   1.301   0.279 -0.0563 -0.1171  0.4608
   63MOL    C1412538   4.291   1.391   0.247  0.1759 -0.4928  0.3612
   63MOL    C1512539   4.273   1.494   0.135  0.6660 -0.6277  0.1108
   63MOL    N1612540   4.182   1.603   0.171  0.6183 -0.1496  0.4611
   63MOL    H1712541   4.317   1.453   0.332  0.7402  0.6726 -0.6468
   63MOL    H1812542   4.194   1.345   0.266 -0.9336  2.3942  1.8925
   63MOL    H1912543   4.367   1.534   0.097 -0.5886  1.7364 -0.5936
   63MOL    H2012544   4.220   1.448   0.051 -0.9074  0.8036  0.3001
   63MOL    H2112545   4.120   1.594   0.250 -2.1248  0.5683 -1.5285
   63MOL    C2212546   4.172   1.710   0.088 -0.3761 -0.3045 -0.1446
   63MOL    O2312547   4.237   1.717   7.764  0.3563 -0.4068 -0.8895
   63MOL    C2412548   4.086   1.827   0.134 -0.0417  0.2536 -0.0971
   63MOL    C2512549   3.943   1.801   0.108  1.0369  0.2191  0.4286
   63MOL    N2612550   3.874   1.760   0.231 -0.3697 -0.2959  0.3766
   63MOL    H2712551   4.111   1.910   0.068  3.1123 -0.3452  0.2297
   63MOL    H2812552   4.108   1.856   0.237  0.4887 -1.3219  0.2505
   63MOL    H2912553   3.884   1.883   0.066  0.5589 -0.2877  0.1086
   63MOL    H3012554   3.932   1.720   0.036 -0.5211 -0.4948  1.4488
   63MOL    H3112555   3.913   1.681   0.281  0.4234 -0.6631 -0.7999
   63MOL    C3212556   3.767   1.818   0.281 -0.1949 -0.2847 -0.1346
   63MOL    O3312557   3.726   1.922   0.229 -0.1139 -0.3496 -0.4884
   63MOL    C3412558   3.714   1.761   0.414 -0.1701 -0.9617 -0.8405
   63MOL    C3512559   3.577   1.693   0.410  0.4299 -0.7561 -0.2235
   63MOL    N3612560   3.478   1.777   0.342 -0.1957  0.2662  0.5421
   63MOL    H3712561   3.700   1.859   0.461  1.9678 -2.1368  2.4445
   63MOL    H3812562   3.785   1.705   0.474  0.1761  1.5801  1.2420
   63MOL    H3912563   3.589   1.596   0.363  0.7441 -1.3481  1.0426
   63MOL    H4012564   3.529   1.686   0.508 -2.3339 -3.9115 -1.7150
   63MOL    H4112565   3.510   1.862   0.298  1.4792 -0.4461  0.3319
   63MOL    C4212566   3.351   1.755   0.338  1.1473 -0.0705  0.1290
   63MOL    O4312567   3.292   1.657   0.380 -0.6905 -0.0041  0.0507
   63MOL    C4412568   3.261   1.862   0.282  0.1481 -0.1937 -0.3684
   63MOL    C4512569   3.217   1.855   0.137 -0.4486  0.1620 -0.3231
   63MOL    N4612570   3.174   1.981   0.082 -0.2833  0.3361 -0.2237
   63MOL    H4712571   3.169   1.871   0.338 -0.1382 -1.0885 -0.6839
   63MOL    H4812572   3.303   1.962   0.296 -0.6291  0.4966 -2.7126
   63MOL    H4912573   3.297   1.806   0.082 -1.8187 -2.4630 -0.0604
   63MOL    H5012574   3.147   1.773   0.122  0.1820 -0.2011 -1.2692
   63MOL    H5112575   3.243   2.029   0.026 -0.5303  0.0641 -0.7707
   63MOL    C5212576   3.052   2.041   0.095 -0.4933  0.5005  0.0220
   63MOL    O5312577   2.959   1.987   0.155 -0.6672 -0.1909  0.4076
   63MOL    C5412578   3.042   2.187   0.045 -0.4827  0.1291 -0.5151
   63MOL    C5512579   2.968   2.187   7.689 -0.3446  0.1199 -0.0576
   63MOL    N5612580   2.952   2.324   7.630 -0.0431 -0.0970  0.2717
   63MOL    H5712581   2.973   2.244   0.107 -2.2288  0.7018 -2.9050
   63MOL    H5812582   3.136   2.236   0.021 -0.7045  0.4114 -0.8259
   63MOL    H5912583   2.868   2.149   7.708 -0.2780 -1.1954 -2.1861
   63MOL    H6012584   3.013   2.111   7.625 -2.4416 -1.7149  0.6020
   63MOL    H6112585   2.991   2.394   7.691 -2.8695  0.0172  2.0081
   63MOL    C6212586   2.885   2.355   7.519 -0.1692 -0.2543 -0.4314
   63MOL    O6312587   2.823   2.274   7.451  0.3472 -0.2203 -0.4416
   63MOL    C6412588   2.874   2.499   7.472 -0.3172 -0.1820  0.1694
   63MOL    C6512589   2.936   2.522   7.336 -0.2633  0.2028 -0.0288
   63MOL    N6612590   2.913   2.655   7.292 -0.3824 -0.3647 -1.1013
   63MOL    H6712591   2.771   2.534   7.468 -0.3423 -0.0570  1.4642
   63MOL    H6812592   2.907   2.557   7.559  1.7576  0.6238 -1.1077
   63MOL    H6912593   3.042   2.501   7.345 -0.3889 -0.9255 -1.0573
   63MOL    H7012594   2.899   2.447   7.266 -1.4591  0.8832 -0.1310
   63MOL    H7112595   2.946   2.727   7.354 -2.2025  0.9479 -1.6109
   63MOL    C7212596   2.857   2.696   7.174 -0.2712 -0.2170  0.6331
   63MOL    O7312597   2.808   2.614   7.098  0.0934 -0.3808  0.3907
   63MOL    C7412598   2.874   2.844   7.128 -0.6797 -0.1841 -0.3845
   63MOL    C7512599   2.959   2.855   7.004  0.5416 -0.3149  0.0028
   63MOL    N7612600   2.988   2.990   6.955 -0.1635  0.1606 -0.7141
   63MOL    H7712601   2.771   2.872   7.108 -1.9853 -3.6671  0.9952
   63MOL    H7812602   2.925   2.903   7.204  2.0479 -0.2264 -2.1239
   63MOL    H7912603   3.050   2.797   7.023  0.8086 -0.2358 -1.0024
   63MOL    H8012604   2.920   2.797   6.921  0.5379 -0.3010 -0.0057
   63MOL    H8112605   3.069   3.035   6.995  0.0487 -1.7423  1.0831
   63MOL    C8212606   2.925   3.047   6.848 -0.7308 -0.7129  0.0912
   63MOL    O8312607   2.836   2.988   6.788  0.6842  0.0584 -0.3579
   63MOL    C8412608   2.954   3.197   6.818  0.2894 -0.3743  0.0190
   63MOL    C8512609   3.053   3.217   6.701 -0.3288 -0.0708 -0.0901
   63MOL    N8612610   3.184   3.205   6.757  0.1554  0.1694 -0.2717
   63MOL    H8712611   2.856   3.242   6.804 -0.3153 -0.8273  2.4386
   63MOL    H8812612   2.990   3.243   6.910  0.0016  2.6153 -1.3301
   63MOL    H8912613   3.036   3.132   6.635 -0.3168  0.0539 -0.2560
   63MOL    H9012614   3.052   3.309   6.643  2.3374  0.2111  0.2590
   63MOL    H9112615   3.197   3.243   6.850 -0.7086 -1.4403  0.5240
   63MOL    C9212616   3.289   3.141   6.700 -0.2320 -0.1249 -0.8564
   63MOL    O9312617   3.283   3.080   6.598  0.6300  0.0310 -0.3196
   63MOL    C9412618   3.426   3.130   6.776  0.2584  0.9413 -0.7140
   63MOL    C9512619   3.435   3.189   6.914  0.1311  0.3491  0.4668
   63MOL    N9612620   3.441   3.085   7.012  0.4121  0.3415  0.2044
   63MOL    H9712621   3.465   3.028   6.773 -2.1639 -0.0859  1.0311
   63MOL    H9812622   3.500   3.172   6.709  2.0042 -3.4234 -1.7252
   63MOL    H9912623   3.524   3.250   6.927  0.5849 -0.2796  0.3308
   63MOL   H10012624   3.353   3.257   6.938  0.8059  0.5716  2.1530
   63MOL   H10112625   3.532   3.046   7.030 -0.1738 -0.7212  0.9332
   63MOL   C10212626   3.329   3.048   7.084 -0.6382  0.0815  0.3241
   63MOL   O10312627   3.216   3.075   7.050  0.1558 -0.2165 -0.3417
   63MOL   C10412628   3.354   2.969   7.208  0.7557  0.5209  0.5915
   63MOL   C10512629   3.234   2.898   7.266  0.9400 -0.1416 -0.5562
   63MOL   N10612630   3.258   2.875   7.415  0.4426  0.6788  0.4162
   63MOL   H10712631   3.394   3.041   7.280 -2.2160  2.1068  0.7324
   63MOL   H10812632   3.438   2.907   7.178 -0.5661 -0.5446 -1.0118
   63MOL   H10912633   3.149   2.967   7.270  1.1316  0.0805 -0.2704
   63MOL   H11012634   3.199   2.810   7.213 -1.2817 -0.0295  0.6587
   63MOL   H11112635   3.339   2.915   7.461 -0.6481  0.1640  2.8800
   63MOL   C11212636   3.172   2.824   7.501  0.4641 -0.3561 -1.0229
   63MOL   O11312637   3.059   2.790   7.463 -0.0632 -0.2817 -0.0963
   63MOL   C11412638   3.214   2.812   7.648 -0.1774 -0.2039 -0.2106
   63MOL   C11512639   3.126   2.718   7.723 -0.0691  0.3996  0.6429
   63MOL   N11612640   3.184   2.683   0.072 -0.4328 -0.2587  0.1524
   63MOL   H11712641   3.208   2.915   7.681 -0.4849 -0.3943  0.3230
   63MOL   H11812642   3.316   2.779   7.665 -0.0276 -0.1252 -0.9245
   63MOL   H11912643   3.025   2.758   7.730 -0.1203  0.8833 -2.2838
   63MOL   H12012644   3.124   2.630   7.659  1.4444 -1.6439  3.2773
   63MOL   H12112645   3.223   2.764   0.119  0.0844 -0.2923 -0.2170
   63MOL   C12212646   3.196   2.560   0.116 -0.1251  0.1200 -0.3865
   63MOL   O12312647   3.150   2.467   0.050  0.2666 -0.3191 -0.3872
   63MOL   C12412648   3.259   2.530   0.258  0.2515 -0.1101 -0.2555
   63MOL   C12512649   3.235   2.386   0.298  0.3987  0.3991  0.0402
   63MOL   N12612650   3.108   2.370   0.359 -0.8107 -0.4050 -0.4530
   63MOL   H12712651   3.229   2.604   0.332  1.1119  0.3307 -0.3432
   63MOL   H12812652   3.366   2.548   0.252  0.0115  1.1317 -0.7809
   63MOL   H12912653   3.249   2.305   0.226  0.2961  0.3538  0.0710
   63MOL   H13012654   3.303   2.363   0.380 -0.2167 -1.4424  0.0631
   63MOL   H13112655   3.039   2.441   0.338  0.9549  1.2969 -0.5893
   63MOL   C13212656   3.060   2.252   0.397 -0.1156  0.2123 -0.3350
   63MOL   O13312657   3.135   2.155   0.418 -0.5033  0.3465  0.0806
   63MOL   C13412658   2.907   2.236   0.420  0.2663 -0.5016  0.0628
   63MOL   C13512659   2.861   2.148   0.538  0.2207  0.2495 -0.1330
   63MOL   N13612660   2.832   2.019   0.484 -0.6072  0.1440  0.0197
   63MOL   H13712661   2.864   2.195   0.329 -1.0922 -1.2318  1.0112
   63MOL   H13812662   2.875   2.337   0.448 -1.1556 -0.7091 -0.7791
   63MOL   H13912663   2.943   2.141   0.610  0.3041 -0.5318 -0.2991
   63MOL   H14012664   2.777   2.196   0.588  0.4050  1.3432 -0.8680
   63MOL   H14112665   2.868   1.985   0.396 -0.5938  1.1055 -0.3530
   63MOL   C14212666   2.757   1.932   0.555 -0.5313  0.0847  0.5370
   63MOL   O14312667   2.705   1.956   0.663 -0.0691  0.1978  0.0786
   63MOL   C14412668   2.748   1.785   0.500 -0.2466 -0.4135 -0.1789
   63MOL   C14512669   2.693   1.684   0.611 -0.6212 -0.4028 -0.3699
   63MOL   N14612670   2.714   1.546   0.575 -0.6230  0.0326  0.0609
   63MOL   H14712671   2.850   1.755   0.476  0.0402  0.3815  0.0213
   63MOL   H14812672   2.679   1.789   0.416  0.8612  0.5666 -1.0747
   63MOL   H14912673   2.752   1.705   0.700 -0.3348 -0.6629 -0.4963
   63MOL   H15012674   2.587   1.703   0.619 -0.5072  1.1668 -2.0478
   63MOL   H15112675   2.631   1.490   0.563 -0.2364 -0.4935 -0.1753
   63MOL   C15212676   2.831   1.481   0.559 -0.1802 -0.0056 -0.2762
   63MOL   O15312677   2.939   1.530   0.576 -0.2123  0.2479 -0.8486
   63MOL   C15412678   2.820   1.334   0.511 -0.6087  0.8802 -0.4015
   63MOL   C15512679   2.881   1.235   0.618 -0.6958  0.3153 -0.0501
   63MOL   N15612680   2.835   1.098   0.593 -0.1262  0.4057  1.0185
   63MOL   H15712681   2.868   1.317   0.415  0.2431 -1.2072  0.3694
   63MOL   H15812682   2.714   1.312   0.497 -0.6099 -0.1612  1.1591
   63MOL   H15912683   2.989   1.241   0.621 -0.5920 -1.5525  0.6392
   63MOL   H16012684   2.854   1.273   0.716 -1.1984 -0.6503  0.1937
   63MOL   H16112685   2.905   1.025   0.586 -0.7851  0.0816 -4.1126
   63MOL   C16212686   2.706   1.055   0.598  0.6294  0.9699 -0.1903
   63MOL   O16312687   2.605   1.127   0.619  0.7638 -0.0406  0.0434
   63MOL   C16412688   2.695   0.906   0.585  0.6000 -0.5477 -0.6904
   63MOL   C16512689   2.561   0.855   0.539 -0.7043  0.1758  0.1416
   63MOL   N16612690   2.558   0.855   0.396 -0.2579 -0.1886 -0.2780
   63MOL   H16712691   2.701   0.874   0.689 -0.9492 -0.3897 -0.5537
   63MOL   H16812692   2.777   0.858   0.532 -0.1377 -0.9780 -1.4462
   63MOL   H16912693   2.562   0.752   0.574  0.4994  0.1723  0.1410
   63MOL   H17012694   2.474   0.906   0.582 -0.1554  0.8479  0.4807
   63MOL   H17112695   2.490   0.921   0.361 -0.4171 -0.1382  0.1170
   63MOL   C17212696   2.615   0.763   0.322  0.3153  0.2849  0.2679
   63MOL   O17312697   2.685   0.673   0.367 -0.0226  0.6977  0.6537
   63MOL   C17412698   2.585   0.784   0.180 -0.0856 -0.5954  0.1779
   63MOL   C17512699   2.429   0.789   0.138  0.1497 -0.3339  0.6378
   63MOL   N17612700   2.366   0.657   0.135  0.7094 -0.2438 -0.0362
   63MOL   H17712701   2.648   0.721   0.117 -0.0647 -1.0185  0.6109
   63MOL   H17812702   2.614   0.886   0.158 -4.8675  0.8532 -0.0786
   63MOL   H17912703   2.362   0.859   0.189 -1.3078 -1.8536  0.8632
   63MOL   H18012704   2.422   0.819   0.034 -1.5342 -2.2378  0.1650
   63MOL   H18112705   2.296   0.638   0.206  1.0211 -2.0070 -0.1820
   63MOL   C18212706   2.388   0.564   0.043  0.2966  0.4799  1.2499
   63MOL   O18312707   2.452   0.590   7.718  0.0357 -0.0323 -0.1839
   63MOL   C18412708   2.324   0.426   0.074  0.8007 -0.1094  0.1545
   63MOL   C18512709   2.397   0.306   0.005 -0.2745  0.6879 -0.5875
   63MOL   N18612710   2.544   0.299   0.027  0.2605  0.4400  0.0477
   63MOL   H18712711   2.219   0.426   0.047  0.8436 -1.3711 -0.0476
   63MOL   H18812712   2.334   0.416   0.183  1.5664  0.5774  0.1579
   63MOL   H18912713   2.360   0.205   0.025 -0.0667  0.5306 -0.9953
   63MOL   H19012714   2.382   0.312   7.678  1.0323 -4.2219 -1.1685
   63MOL   H19112715   2.593   0.301   7.719  0.6548 -0.1559  0.2446
   63MOL   C19212716   2.610   0.277   0.141 -0.2392 -0.5172 -0.2217
   63MOL   O19312717   2.548   0.255   0.245 -0.1585 -0.2030  0.4297
   63MOL   C19412718   2.762   0.293   0.131 -0.5441 -0.2277  0.6178
   63MOL   C19512719   2.802   0.435   0.172  0.2460  0.6783  0.0569
   63MOL   N19612720   2.946   0.445   0.184  0.0530  0.0011 -0.4643
   63MOL   H19712721   2.813   0.224   0.199  2.3777  1.8253  0.5984
   63MOL   H19812722   2.782   0.258   0.030  0.9807 -0.4944  0.9882
   63MOL   H19912723   2.764   0.503   0.097 -0.4192  0.2771  0.0228
   63MOL   H20012724   2.747   0.453   0.265  0.9173 -2.0166  1.0320
   63MOL   H20112725   2.980   0.539   0.169 -0.4623  0.5390  1.6012
   63MOL   H20212726   2.964   0.422   0.281  0.0424 -1.7487 -0.8743
   64MOL     C112727   5.239   0.355   4.086  0.0187  0.3179 -0.6619
   64MOL     O212728   5.335   0.287   4.055 -0.3688 -0.2648 -0.5483
   64MOL     C312729   5.126   0.380   3.989 -0.2723 -0.0600 -0.3504
   64MOL     C412730   5.024   0.256   3.977  0.7060 -0.1738  0.5138
   64MOL     N512731   4.886   0.304   4.014  0.1529 -0.8898  0.1204
   64MOL     H612732   5.181   0.379   3.894  0.7306  0.0531  0.2173
   64MOL     H712733   5.082   0.479   3.985 -0.3483 -0.1321 -1.6087
   64MOL     H812734   5.064   0.166   4.026 -0.1204 -0.6211  0.3769
   64MOL     H912735   5.025   0.227   3.872  0.5215  1.4414  0.0615
   64MOL    H1012736   4.822   0.331   3.940  2.0193  1.9421 -0.5593
   64MOL    H1112737   5.217   0.390   4.186 -1.9181  1.2416 -1.4031
   64MOL    C1212738   4.852   0.306   4.141 -0.9713 -0.1204  0.1318
   64MOL    O1312739   4.936   0.261   4.222  0.4614 -0.4023  0.0202
   64MOL    C1412740   4.704   0.348   4.173 -0.2435 -0.3047 -0.0046
   64MOL    C1512741   4.671   0.335   4.320  0.7602 -0.0287  0.8281
   64MOL    N1612742   4.630   0.196   4.348 -0.1397  0.9475  0.0092
   64MOL    H1712743   4.636   0.288   4.113 -0.3090 -0.8300  0.5881
   64MOL    H1812744   4.702   0.450   4.135  1.6847  0.2303  1.2519
   64MOL    H1912745   4.757   0.354   4.385  0.6038  0.5641  0.8667
   64MOL    H2012746   4.587   0.394   4.355  0.1353 -1.8379  2.4718
   64MOL    H2112747   4.601   0.152   4.261 -0.7306  1.0623  0.1429
   64MOL    C2212748   4.626   0.132   4.467  0.5611 -0.3825 -0.4284
   64MOL    O2312749   4.653   0.195   4.571  0.3022 -0.2787  0.0086
   64MOL    C2412750   4.592   7.764   4.472 -0.5568 -0.2692 -0.2947
   64MOL    C2512751   4.484   7.732   4.574  0.8323 -0.3790 -0.7055
   64MOL    N2612752   4.529   7.667   4.699 -0.1746 -0.2245  1.1946
   64MOL    H2712753   4.673   7.693   4.492 -1.3527 -1.5096 -1.3436
   64MOL    H2812754   4.550   7.729   4.378 -0.6524 -1.9289  0.3353
   64MOL    H2912755   4.417   0.036   4.591  0.7753 -0.7710  1.0632
   64MOL    H3012756   4.411   7.661   4.536  0.3992 -1.1887  1.6018
   64MOL    H3112757   4.556   7.728   4.775 -0.5764  0.8066  0.5046
   64MOL    C3212758   4.531   7.539   4.716 -0.2336  0.2290  0.3579
   64MOL    O3312759   4.506   7.451   4.633 -0.1971  0.1755 -0.9364
   64MOL    C3412760   4.577   7.501   4.850  0.0696 -0.2625  0.6902
   64MOL    C3512761   4.738   7.504   4.855  0.2579  0.1422 -0.2368
   64MOL    N3612762   4.796   7.370   4.836  0.6023 -0.2979 -0.0378
   64MOL    H3712763   4.529   7.407   4.877 -2.3776  0.8342  0.2615
   64MOL    H3812764   4.539   7.573   4.922  1.5602  1.5356 -0.2810
   64MOL    H3912765   4.774   7.565   4.772  1.1624 -0.4275 -0.2686
   64MOL    H4012766   4.760   7.545   4.953 -0.0187 -1.2190  0.4123
   64MOL    H4112767   4.736   7.292   4.811 -1.7906  1.1637  1.0308
   64MOL    C4212768   4.924   7.346   4.868 -0.4852  1.1119 -0.3596
   64MOL    O4312769   4.997   7.436   4.911  1.2203 -0.1939 -0.8181
   64MOL    C4412770   4.977   7.197   4.852 -0.2289 -0.3652 -0.2389
   64MOL    C4512771   5.114   7.178   4.914  0.1914  0.3327  0.2057
   64MOL    N4612772   5.154   7.039   4.894 -0.7133  0.0193  0.5201
   64MOL    H4712773   4.910   7.130   4.904 -1.0612 -0.7907 -1.8384
   64MOL    H4812774   4.967   7.184   4.744  0.1981 -0.9585 -0.2056
   64MOL    H4912775   5.184   7.253   4.878  1.0149  0.1370  1.3742
   64MOL    H5012776   5.114   7.200   5.021 -0.9402 -0.3124  0.3440
   64MOL    H5112777   5.094   6.969   4.855 -0.6529  0.3203 -0.1096
   64MOL    C5212778   5.267   6.984   4.945  0.1565  0.2613  0.2675
   64MOL    O5312779   5.353   7.058   4.990 -0.1794  0.5504  0.5223
   64MOL    C5412780   5.271   6.827   4.940 -0.2735  0.8064  0.1984
   64MOL    C5512781   5.358   6.764   5.052 -0.6711 -0.6630  1.1312
   64MOL    N5612782   5.357   6.616   5.056  0.2047 -0.3795  0.3366
   64MOL    H5712783   5.170   6.787   4.952 -0.8116  1.7023 -1.2921
   64MOL    H5812784   5.302   6.780   4.847  2.9883 -0.8651  2.0275
   64MOL    H5912785   5.312   6.796   5.146 -3.0176 -1.4102  0.2956
   64MOL    H6012786   5.461   6.797   5.039 -0.6820 -0.9589  0.2911
   64MOL    H6112787   5.277   6.569   5.017 -1.5775  1.4066  1.7611
   64MOL    C6212788   5.462   6.539   5.087  0.0578 -1.2926 -1.2485
   64MOL    O6312789   5.572   6.593   5.110 -0.6152  0.3477 -0.3437
   64MOL    C6412790   5.447   6.389   5.109 -0.5535 -0.1909 -0.6717
   64MOL    C6512791   5.557   6.322   5.194 -0.4204 -0.7151 -0.7782
   64MOL    N6612792   5.684   6.322   5.111  0.2863  0.2016 -0.3768
   64MOL    H6712793   5.345   6.371   5.144 -0.3428  0.8153  0.4585
   64MOL    H6812794   5.439   6.332   5.016 -2.2204 -2.1264  0.6070
   64MOL    H6912795   5.572   6.375   5.288  0.7360  1.7310 -2.3081
   64MOL    H7012796   5.521   6.220   5.212  0.8852 -1.2029 -0.8176
   64MOL    H7112797   5.734   6.408   5.130  0.4628  0.0926 -0.3501
   64MOL    C7212798   5.722   6.236   5.024  0.0244  0.0089 -0.4586
   64MOL    O7312799   5.657   6.135   4.996  0.1488 -0.4911  0.1186
   64MOL    C7412800   5.852   6.271   4.951  0.2118 -0.2582 -0.5354
   64MOL    C7512801   5.982   6.212   5.017 -0.1165  0.1569  0.2995
   64MOL    N7612802   6.043   6.283   5.126 -0.3272  0.0225 -0.4682
   64MOL    H7712803   5.836   6.259   4.844  0.7148  0.3159 -0.6819
   64MOL    H7812804   5.861   6.380   4.947 -2.9451  0.0306 -1.0127
   64MOL    H7912805   5.964   6.112   5.058 -1.5936 -0.2507 -1.2935
   64MOL    H8012806   6.058   6.192   4.942  1.0094  0.9163  1.2323
   64MOL    H8112807   6.000   6.368   5.160 -0.0489  0.4545 -1.1902
   64MOL    C8212808   6.157   6.248   5.187 -0.9142  0.1843 -0.0595
   64MOL    O8312809   6.214   6.139   5.168 -0.2098  0.3757  0.3982
   64MOL    C8412810   6.213   6.353   5.283 -0.1409 -0.3401  0.4396
   64MOL    C8512811   6.279   6.304   5.411 -0.7486 -0.2856  0.3542
   64MOL    N8612812   6.288   6.412   5.514 -0.7626 -0.0577  0.1814
   64MOL    H8712813   6.288   6.416   5.236 -1.1799  0.7035  0.1468
   64MOL    H8812814   6.131   6.418   5.316 -0.6320 -0.6528 -0.1466
   64MOL    H8912815   6.235   6.211   5.448 -1.1475 -0.0992  0.3552
   64MOL    H9012816   6.380   6.271   5.388 -0.5885  0.3733  0.0998
   64MOL    H9112817   6.372   6.468   5.519 -0.8851  0.2606 -1.1687
   64MOL    C9212818   6.210   6.415   5.624 -0.2036  0.2485  0.5522
   64MOL    O9312819   6.112   6.339   5.630 -0.6428 -0.0715 -0.1054
   64MOL    C9412820   6.241   6.507   5.736  0.1864  0.0308 -0.1688
   64MOL    C9512821   6.348   6.453   5.828  0.1045  0.1440  0.2720
   64MOL    N9612822   6.368   6.551   5.937  0.4790  0.4408  0.7170
   64MOL    H9712823   6.265   6.607   5.701  0.9456 -0.4836 -1.1392
   64MOL    H9812824   6.149   6.525   5.791  0.8875  1.6032  0.5220
   64MOL    H9912825   6.320   6.354   5.863  3.1106 -1.5130 -1.7307
   64MOL   H10012826   6.437   6.444   5.765  0.2191 -2.6924  0.7641
   64MOL   H10112827   6.299   6.624   5.951 -2.6396 -2.5751  1.9841
   64MOL   C10212828   6.445   6.532   6.045  0.0412  0.4040  0.1268
   64MOL   O10312829   6.514   6.434   6.052  0.1246 -0.4349 -1.2306
   64MOL   C10412830   6.434   6.637   6.157 -0.3220 -0.0453 -0.7806
   64MOL   C10512831   6.467   6.579   6.297 -0.1139  0.4550 -0.3685
   64MOL   N10612832   6.365   6.629   6.387  0.8939  0.2061  0.2365
   64MOL   H10712833   6.336   6.683   6.149 -0.2463  0.2662  0.1222
   64MOL   H10812834   6.506   6.710   6.120 -1.5803  0.5186 -2.1747
   64MOL   H10912835   6.477   6.471   6.291  0.8037  0.6090 -2.0330
   64MOL   H11012836   6.561   6.622   6.332 -0.9162  0.0885  2.3138
   64MOL   H11112837   6.354   6.729   6.394  0.2407  0.3558 -2.4978
   64MOL   C11212838   6.253   6.564   6.425  0.6826  0.3911 -0.7919
   64MOL   O11312839   6.233   6.448   6.411  0.2245  0.6881 -0.1559
   64MOL   C11412840   6.151   6.655   6.486  0.1938 -0.4934  0.0323
   64MOL   C11512841   6.011   6.601   6.520 -0.0103  0.7307 -0.0005
   64MOL   N11612842   5.932   6.700   6.595 -0.8463 -0.2988  0.4493
   64MOL   H11712843   6.133   6.734   6.413 -2.4241  0.9426  2.1566
   64MOL   H11812844   6.197   6.706   6.571 -0.7492  0.7254 -0.1687
   64MOL   H11912845   5.953   6.563   6.435  1.4174 -0.0948 -0.6196
   64MOL   H12012846   6.015   6.519   6.592 -2.1595 -0.6986 -1.4449
   64MOL   H12112847   5.949   6.694   6.694  2.7830 -0.8458 -0.1324
   64MOL   C12212848   5.861   6.794   6.537  0.8160 -0.0853 -0.8071
   64MOL   O12312849   5.862   6.810   6.411  0.3440 -0.0939  0.6931
   64MOL   C12412850   5.770   6.873   6.637 -0.0491  0.1060 -0.1563
   64MOL   C12512851   5.654   6.946   6.564 -0.4277 -0.0611  0.0271
   64MOL   N12612852   5.564   6.855   6.507 -0.0281  0.1505  0.1035
   64MOL   H12712853   5.834   6.939   6.696 -1.5870  1.7529 -0.2833
   64MOL   H12812854   5.718   6.802   6.700 -0.8051  1.0614  0.3034
   64MOL   H12912855   5.596   7.010   6.630 -0.6924 -1.2509  0.9542
   64MOL   H13012856   5.690   7.013   6.485  0.6934  0.6054  1.0868
   64MOL   H13112857   5.584   6.756   6.506 -0.4036  0.0582 -2.5138
   64MOL   C13212858   5.455   6.894   6.437 -0.0240  0.0973 -0.4430
   64MOL   O13312859   5.415   7.006   6.416  0.1378 -0.4944 -0.0940
   64MOL   C13412860   5.372   6.777   6.372  0.0193 -0.9212 -0.0098
   64MOL   C13512861   5.423   6.714   6.241  0.3157  0.3159 -0.6423
   64MOL   N13612862   5.394   6.811   6.138  0.8463 -0.2863 -0.4092
   64MOL   H13712863   5.266   6.800   6.360 -0.1012  0.4608  3.2935
   64MOL   H13812864   5.366   6.693   6.442  0.9166 -1.3350 -0.4173
   64MOL   H13912865   5.527   6.684   6.241 -0.4160 -2.5085  2.0484
   64MOL   H14012866   5.370   6.619   6.232  1.8094 -0.5626 -0.3013
   64MOL   H14112867   5.470   6.876   6.124  1.1302 -0.5741 -0.2247
   64MOL   C14212868   5.284   6.822   6.057  0.0008 -0.1811 -0.6743
   64MOL   O14312869   5.195   6.736   6.056 -0.2885  0.6781 -0.2060
   64MOL   C14412870   5.288   6.942   5.956  0.5436  1.4441  0.2630
   64MOL   C14512871   5.254   6.902   5.806  0.6162  0.0135 -0.2913
   64MOL   N14612872   5.350   6.812   5.738  0.2390 -0.3011 -0.7626
   64MOL   H14712873   5.380   7.000   5.954 -0.6540  3.3604 -0.8833
   64MOL   H14812874   5.216   7.017   5.987 -1.0496  0.5058 -1.0741
   64MOL   H14912875   5.154   6.861   5.802  0.8754 -0.6379 -0.1786
   64MOL   H15012876   5.257   6.996   5.750  0.0673 -0.2073 -0.6946
   64MOL   H15112877   5.435   6.810   5.792  0.4799 -1.0997 -1.1698
   64MOL   C15212878   5.332   6.746   5.626 -0.3156  0.6224  0.3022
   64MOL   O15312879   5.227   6.756   5.563 -0.1677 -0.2423 -0.6874
   64MOL   C15412880   5.441   6.657   5.566  0.5490  0.3877  0.0179
   64MOL   C15512881   5.381   6.537   5.484 -0.0838 -0.4166 -0.7657
   64MOL   N15612882   5.326   6.439   5.581  0.1190  0.0449  0.3990
   64MOL   H15712883   5.522   6.619   5.628  0.5054 -0.5578 -0.4892
   64MOL   H15812884   5.501   6.716   5.496  0.6002 -1.0365 -1.1537
   64MOL   H15912885   5.308   6.551   5.405 -1.0939  2.0520  0.5544
   64MOL   H16012886   5.455   6.489   5.420  0.6747 -1.1919  0.6663
   64MOL   H16112887   5.339   6.445   5.680 -1.0522  0.6115  0.5250
   64MOL   C16212888   5.258   6.327   5.530  0.0957  0.3503  0.1736
   64MOL   O16312889   5.249   6.308   5.402 -0.1683  0.4875 -0.2179
   64MOL   C16412890   5.187   6.242   5.624  0.2886 -0.0597  0.0839
   64MOL   C16512891   5.281   6.142   5.696  0.1586  0.6072 -0.3621
   64MOL   N16612892   5.211   6.032   5.762 -0.0490 -1.0676  0.5558
   64MOL   H16712893   5.122   6.176   5.567 -0.0925 -0.4104  0.9126
   64MOL   H16812894   5.130   6.298   5.699  2.5511  0.7953  1.2252
   64MOL   H16912895   5.348   6.107   5.618  0.0504 -0.1326 -0.1226
   64MOL   H17012896   5.348   6.194   5.764 -3.1749  2.0457  1.9511
   64MOL   H17112897   5.154   5.969   5.707 -0.5328  0.0132 -0.1982
   64MOL   C17212898   5.212   6.002   5.891 -0.0066 -0.2734 -0.0398
   64MOL   O17312899   5.278   6.067   5.978 -0.4045 -0.5073 -0.4283
   64MOL   C17412900   5.129   5.890   5.939  0.0091  0.2415  0.2713
   64MOL   C17512901   5.014   5.932   6.031 -0.6867 -0.1549  0.3583
   64MOL   N17612902   4.904   5.838   6.039  0.7570  0.0543  0.5511
   64MOL   H17712903   5.199   5.823   5.989  2.0510  2.3772  0.3720
   64MOL   H17812904   5.093   5.832   5.854 -0.8449 -0.7663  1.3011
   64MOL   H17912905   5.056   5.938   6.132 -0.4303  1.7916  0.1546
   64MOL   H18012906   4.988   6.034   6.001 -0.1374 -0.0062  0.3927
   64MOL   H18112907   4.823   5.858   5.983  2.1732 -2.5273 -2.5576
   64MOL   C18212908   4.901   5.722   6.096  0.6131  0.6190 -0.2014
   64MOL   O18312909   5.000   5.673   6.149  0.0209 -0.0458 -0.3110
   64MOL   C18412910   4.775   5.643   6.101  0.7114  0.0494 -0.0921
   64MOL   C18512911   4.772   5.510   6.028 -0.4748  0.3636  0.0207
   64MOL   N18612912   4.762   5.529   5.883  0.0158  0.0293 -0.3706
   64MOL   H18712913   4.690   5.708   6.086  0.7884  0.0457 -0.5678
   64MOL   H18812914   4.763   5.626   6.208 -2.4601  1.8203 -0.1143
   64MOL   H18912915   4.862   5.450   6.044 -0.5937 -0.0513 -0.8532
   64MOL   H19012916   4.690   5.446   6.061  1.2811 -1.5201  0.8850
   64MOL   H19112917   4.731   5.621   5.854 -0.3645  0.1937  0.5232
   64MOL   C19212918   4.809   5.448   5.790  0.2691  0.4137 -0.0098
   64MOL   O19312919   4.841   5.333   5.818  0.2389  0.0955 -0.0841
   64MOL   C19412920   4.799   5.487   5.640  0.3013 -0.1602  0.3314
   64MOL   C19512921   4.912   5.575   5.587  0.0287  0.1367 -0.5948
   64MOL   N19612922   5.048   5.525   5.609 -0.0123 -0.2987  0.2284
   64MOL   H19712923   4.794   5.390   5.590 -2.7845  0.0561  0.1286
   64MOL   H19812924   4.708   5.545   5.625  0.5361 -0.3287 -1.8329
   64MOL   H19912925   4.891   5.592   5.482  0.3414 -0.2369 -0.7205
   64MOL   H20012926   4.900   5.667   5.644 -0.2413 -1.1689  1.5410
   64MOL   H20112927   5.110   5.592   5.566 -1.3702  1.1774  0.5554
   64MOL   H20212928   5.067   5.528   5.708  2.0475  0.4242 -0.1510
   65MOL     C112929   6.937   1.556   6.695 -0.3790 -0.5373 -0.0001
   65MOL     O212930   6.978   1.498   6.598  0.3683  0.0764  0.0900
   65MOL     C312931   6.885   1.702   6.678  0.0739 -0.2415  0.1856
   65MOL     C412932   6.743   1.699   6.595 -1.2338  0.1499  0.4096
   65MOL     N512933   6.632   1.614   6.635  0.2331 -1.3030 -0.5772
   65MOL     H612934   6.958   1.754   6.617  1.8256 -3.1074 -0.3015
   65MOL     H712935   6.880   1.759   6.771  1.0595  0.0284  0.0800
   65MOL     H812936   6.766   1.666   6.494  0.2126  0.0249  0.7663
   65MOL     H912937   6.710   1.801   6.576 -0.8666  0.0444 -0.8341
   65MOL    H1012938   6.616   1.519   6.602 -1.5886 -0.5324 -1.9857
   65MOL    H1112939   6.940   1.512   6.794 -2.3676 -1.7624 -0.4588
   65MOL    C1212940   6.568   1.636   6.748  0.5836 -0.2500  0.4516
   65MOL    O1312941   6.568   1.744   6.809 -0.3720  0.3191 -0.7278
   65MOL    C1412942   6.494   1.515   6.807 -0.1680  0.1735  0.6059
   65MOL    C1512943   6.433   1.533   6.947 -0.2660 -0.2271  0.5145
   65MOL    N1612944   6.299   1.468   6.967  0.4332 -0.0309 -0.4545
   65MOL    H1712945   6.553   1.424   6.819 -0.8594  0.1172  3.9708
   65MOL    H1812946   6.430   1.480   6.726 -0.6015  1.0266  0.5752
   65MOL    H1912947   6.492   1.487   7.027  3.3463  1.0332 -1.2988
   65MOL    H2012948   6.423   1.640   6.958  0.2771 -0.0375 -0.7363
   65MOL    H2112949   6.296   1.406   7.047 -0.5788  0.2456 -0.2600
   65MOL    C2212950   6.183   1.495   6.906  0.3071  0.3449 -0.1682
   65MOL    O2312951   6.174   1.584   6.820  0.1496 -0.2499  0.3930
   65MOL    C2412952   6.066   1.397   6.952 -0.1100  0.6413  0.0558
   65MOL    C2512953   5.953   1.401   6.855  0.1220  0.2005  0.0462
   65MOL    N2612954   5.848   1.310   6.895 -0.0357  0.1531  0.2078
   65MOL    H2712955   6.014   1.430   7.042 -2.9886 -1.2339 -0.8559
   65MOL    H2812956   6.105   1.295   6.957  0.3273  0.8442  0.7615
   65MOL    H2912957   5.922   1.504   6.839  1.3296  0.3674 -1.2829
   65MOL    H3012958   5.982   1.370   6.755  1.5545 -1.5003  0.9692
   65MOL    H3112959   5.871   1.212   6.899 -1.9936 -0.2876  2.0997
   65MOL    C3212960   5.718   1.336   6.887 -0.0796  0.1904  0.3273
   65MOL    O3312961   5.672   1.448   6.856  0.1792  0.4222  0.0019
   65MOL    C3412962   5.629   1.216   6.909  0.0067  0.8040 -0.0134
   65MOL    C3512963   5.500   1.204   6.829  0.1402 -0.1071 -0.9598
   65MOL    N3612964   5.492   1.081   6.756 -0.0216 -0.1603  0.2279
   65MOL    H3712965   5.599   1.220   7.014 -1.4489  1.0242 -0.4346
   65MOL    H3812966   5.690   1.128   6.888 -0.4678  1.3131 -3.7326
   65MOL    H3912967   5.415   1.204   6.897 -0.0770 -3.3390 -1.1512
   65MOL    H4012968   5.484   1.298   6.776 -1.6901 -0.4526 -1.0721
   65MOL    H4112969   5.420   1.018   6.788  1.0130 -0.4618  2.1014
   65MOL    C4212970   5.536   1.055   6.630  0.0815 -0.1736  0.4119
   65MOL    O4312971   5.597   1.140   6.563  0.0996 -0.1215 -0.1547
   65MOL    C4412972   5.497   0.917   6.565 -0.1180 -0.9973  0.0036
   65MOL    C4512973   5.471   0.929   6.414  0.4702 -0.0562  0.1749
   65MOL    N4612974   5.583   0.893   6.322  0.8202  0.9093 -0.6991
   65MOL    H4712975   5.577   0.846   6.586  0.3840 -0.2740  0.5997
   65MOL    H4812976   5.412   0.878   6.620 -0.1297 -2.7729 -1.2509
   65MOL    H4912977   5.389   0.859   6.399  0.1662 -0.1509  2.1447
   65MOL    H5012978   5.425   1.021   6.378  2.6971  1.0247  0.0286
   65MOL    H5112979   5.666   0.863   6.371  0.8414 -0.2282 -1.4173
   65MOL    C5212980   5.574   0.911   6.192  0.0635  0.5334 -0.1199
   65MOL    O5312981   5.471   0.948   6.136  0.6228 -0.3812 -0.1864
   65MOL    C5412982   5.699   0.885   6.114 -0.1067 -0.6103 -0.0871
   65MOL    C5512983   5.702   0.962   5.975  0.8721 -0.0340 -0.1606
   65MOL    N5612984   5.704   1.109   5.976 -0.5337  0.5534 -0.2046
   65MOL    H5712985   5.782   0.928   6.170  0.5067  0.6400 -1.9104
   65MOL    H5812986   5.718   0.777   6.110 -1.1165 -0.8218  0.7480
   65MOL    H5912987   5.608   0.945   5.924  1.0712 -0.7061 -0.3034
   65MOL    H6012988   5.788   0.937   5.914 -0.8317  0.2836 -2.7735
   65MOL    H6112989   5.625   1.165   5.949 -1.2791  0.3304  1.4606
   65MOL    C6212990   5.811   1.183   6.012  0.5473 -0.1985  0.1722
   65MOL    O6312991   5.927   1.144   6.044  0.6639  0.3045  0.3102
   65MOL    C6412992   5.789   1.335   6.019 -0.3054 -0.7031 -0.0584
   65MOL    C6512993   5.817   1.401   6.153 -0.3634  0.1555 -0.4116
   65MOL    N6612994   5.770   1.535   6.154 -0.2778 -0.3272  0.0445
   65MOL    H6712995   5.850   1.377   5.939  0.8712  0.8251  1.6000
   65MOL    H6812996   5.687   1.338   5.983  0.0587  0.7745 -0.9945
   65MOL    H6912997   5.772   1.347   6.237  1.6210 -1.2779 -0.2446
   65MOL    H7012998   5.925   1.396   6.164 -0.3878  1.6836  0.7931
   65MOL    H7112999   5.671   1.548   6.140  0.2265  1.4586 -2.0247
   65MOL    C7213000   5.847   1.639   6.161  0.0598 -0.4711 -0.0535
   65MOL    O7313001   5.967   1.630   6.152 -0.0440  0.4212 -0.2280
   65MOL    C7413002   5.782   1.781   6.143 -0.7059  0.1824  0.3278
   65MOL    C7513003   5.873   1.885   6.072 -1.2305  0.8699  0.9146
   65MOL    N7613004   5.997   1.910   6.142  0.0088 -0.3843 -0.1473
   65MOL    H7713005   5.688   1.781   6.088  0.1971 -1.1207 -1.2607
   65MOL    H7813006   5.759   1.821   6.242 -0.5852 -0.0222  0.4370
   65MOL    H7913007   5.889   1.859   5.967 -1.1522  0.4986  1.0190
   65MOL    H8013008   5.814   1.973   6.045 -3.4207 -1.9395 -4.2566
   65MOL    H8113009   6.008   1.891   6.241  0.8420 -0.1671 -0.1944
   65MOL    C8213010   6.098   1.974   6.079 -0.1109  0.5968  0.1628
   65MOL    O8313011   6.092   1.995   5.957 -0.2939 -0.3929 -0.3547
   65MOL    C8413012   6.210   2.032   6.170 -0.0778  0.7161  0.6178
   65MOL    C8513013   6.347   2.007   6.109  0.4245 -0.0284 -0.1349
   65MOL    N8613014   6.450   2.097   6.158  0.1494  0.4420 -0.0279
   65MOL    H8713015   6.190   2.139   6.174 -0.0888  0.6877  1.3289
   65MOL    H8813016   6.203   2.001   6.274  0.0287  0.9218  0.6866
   65MOL    H8913017   6.373   1.903   6.127  2.5019  0.2397 -1.3892
   65MOL    H9013018   6.358   2.019   6.001  0.3850  0.5581 -0.0735
   65MOL    H9113019   6.485   2.149   6.079 -0.6858  0.4516 -0.3950
   65MOL    C9213020   6.524   2.090   6.273  0.1172 -0.5857  0.2976
   65MOL    O9313021   6.612   2.174   6.301  0.1937  0.8926  0.3546
   65MOL    C9413022   6.501   1.974   6.365 -0.0986 -0.3184  0.2769
   65MOL    C9513023   6.516   2.011   6.520  0.5889  1.2963  0.6605
   65MOL    N9613024   6.417   1.948   6.606 -0.2039  0.2188 -0.3144
   65MOL    H9713025   6.395   1.949   6.358 -0.1675 -1.2224  3.5624
   65MOL    H9813026   6.558   1.890   6.326 -0.6438 -0.6380  0.1645
   65MOL    H9913027   6.617   1.974   6.537  0.6084  1.1026  0.1479
   65MOL   H10013028   6.504   2.118   6.538 -1.5676  1.2379 -0.3028
   65MOL   H10113029   6.463   1.872   6.654 -4.1728 -2.0518  0.0676
   65MOL   C10213030   6.294   1.989   6.644  0.0703 -1.0657 -0.5414
   65MOL   O10313031   6.253   2.094   6.586 -0.1704  0.1491 -0.0388
   65MOL   C10413032   6.221   1.917   6.753 -0.2296 -0.3035 -0.0755
   65MOL   C10513033   6.065   1.941   6.750  0.4259  0.4869  0.3623
   65MOL   N10613034   5.991   1.865   6.854  0.1110  0.2044  0.3524
   65MOL   H10713035   6.262   1.966   6.841 -0.1110  0.0845 -0.3454
   65MOL   H10813036   6.261   1.816   6.750  0.2812 -0.0879 -0.5049
   65MOL   H10913037   6.049   2.049   6.755 -0.5867  0.4673 -1.7746
   65MOL   H11013038   6.020   1.930   6.651  2.0460  1.4015 -0.5055
   65MOL   H11113039   6.037   1.809   6.925 -2.9588  0.5437  2.6871
   65MOL   C11213040   5.857   1.892   6.872  0.0598 -0.3112 -0.1925
   65MOL   O11313041   5.794   1.977   6.813 -0.4337  0.4423  0.1375
   65MOL   C11413042   5.789   1.813   6.982  0.2115  0.0882  0.6309
   65MOL   C11513043   5.636   1.828   6.976 -0.5931 -0.0179  0.2580
   65MOL   N11613044   5.571   1.733   6.883 -0.0430  0.0094  0.0286
   65MOL   H11713045   5.825   1.855   7.076 -1.0863  0.1737  1.1008
   65MOL   H11813046   5.817   1.708   6.984  0.8601  0.2240 -0.6603
   65MOL   H11913047   5.595   1.818   7.077 -1.3563  3.7232  0.3945
   65MOL   H12013048   5.604   1.929   6.952 -0.2659  0.1299  0.4392
   65MOL   H12113049   5.611   1.642   6.866 -0.6354 -0.1170 -0.7095
   65MOL   C12213050   5.449   1.756   6.830  0.1117 -0.4328  0.3276
   65MOL   O12313051   5.384   1.855   6.861 -0.5953 -0.7364 -0.3224
   65MOL   C12413052   5.385   1.647   6.745 -0.6160 -0.4250 -0.6666
   65MOL   C12513053   5.235   1.611   6.795 -0.4735  0.0077  0.0590
   65MOL   N12613054   5.228   1.553   6.927  0.5412  0.2505  0.0522
   65MOL   H12713055   5.441   1.555   6.760  0.0046  0.1709  0.7582
   65MOL   H12813056   5.377   1.685   6.644  1.8428 -0.0674 -0.7491
   65MOL   H12913057   5.159   1.689   6.787 -0.6911 -0.2851 -0.8753
   65MOL   H13013058   5.196   1.537   6.725 -1.2625  1.9122 -1.5729
   65MOL   H13113059   5.230   1.620   7.001 -0.7846 -1.7536  1.9580
   65MOL   C13213060   5.207   1.425   6.967 -0.3682 -0.5603 -0.5413
   65MOL   O13313061   5.199   1.334   6.883  0.1469 -0.1275 -0.0747
   65MOL   C13413062   5.184   1.408   7.117  0.1188 -0.2202 -0.4612
   65MOL   C13513063   5.290   1.326   7.187  0.5273 -0.7158 -0.2790
   65MOL   N13613064   5.413   1.404   7.207 -0.0719  0.5226 -0.6708
   65MOL   H13713065   5.086   1.369   7.146  0.1709  0.1931  0.2654
   65MOL   H13813066   5.182   1.509   7.156  0.3961  0.0332 -1.0932
   65MOL   H13913067   5.240   1.296   7.279  0.5631  0.0246 -0.0140
   65MOL   H14013068   5.302   1.228   7.141 -1.1069 -0.7634 -0.6369
   65MOL   H14113069   5.396   1.504   7.200 -0.8542  0.4361 -0.0838
   65MOL   C14213070   5.535   1.365   7.242 -0.4703 -0.4078 -0.1762
   65MOL   O14313071   5.566   1.251   7.283 -0.1217  0.1802 -0.4898
   65MOL   C14413072   5.639   1.472   7.231 -0.1830  0.7800  0.2585
   65MOL   C14513073   5.709   1.527   7.360  0.3487  0.2477 -0.1886
   65MOL   N14613074   5.735   1.674   7.348  0.5015  0.4400 -0.2734
   65MOL   H14713075   5.602   1.555   7.170  1.4631  0.9194 -0.5736
   65MOL   H14813076   5.723   1.442   7.168  0.7007 -0.9655  2.2074
   65MOL   H14913077   5.640   1.517   7.444  0.2374 -0.5691 -0.3785
   65MOL   H15013078   5.802   1.482   7.394 -0.0252  1.5499  2.7291
   65MOL   H15113079   5.820   1.709   7.306  1.9492 -0.5089  1.7923
   65MOL   C15213080   5.652   1.774   7.395 -0.9409 -0.3687  1.0483
   65MOL   O15313081   5.544   1.743   7.449  0.4471 -0.0404  0.3027
   65MOL   C15413082   5.699   1.918   7.402 -1.1154  0.0854  0.7306
   65MOL   C15513083   5.710   1.980   7.544 -0.9827 -0.0619  0.0039
   65MOL   N15613084   5.589   1.972   7.623  0.6823 -1.1045 -0.4924
   65MOL   H15713085   5.619   1.981   7.364 -0.0821  0.8022 -0.2860
   65MOL   H15813086   5.794   1.933   7.350 -1.3606 -1.6182 -0.2457
   65MOL   H15913087   5.787   1.927   7.600 -0.1757  0.9862 -0.0847
   65MOL   H16013088   5.751   2.081   7.538 -1.1760 -0.0365 -1.0754
   65MOL   H16113089   5.579   1.891   7.683  2.0291  0.2442  1.6055
   65MOL   C16213090   5.485   2.056   7.610  0.1267 -0.0185 -1.2764
   65MOL   O16313091   5.476   2.143   7.522  0.0575 -0.2557  0.1165
   65MOL   C16413092   5.359   2.013   7.682 -0.2394 -0.2959 -0.3484
   65MOL   C16513093   5.263   2.139   7.705 -0.4511  0.2097  0.1229
   65MOL   N16613094   5.142   2.104   7.780 -0.4105  0.0130 -0.2029
   65MOL   H16713095   5.373   1.955   7.774 -1.3052  0.4647  0.3019
   65MOL   H16813096   5.311   1.949   7.609  0.6818 -0.4086 -0.8708
   65MOL   H16913097   5.326   2.201   7.769 -0.8925 -1.0772  1.8673
   65MOL   H17013098   5.235   2.189   7.613 -1.9097 -1.9088 -0.6219
   65MOL   H17113099   5.139   2.120   0.099  0.8669  2.8363 -0.5961
   65MOL   C17213100   5.051   2.021   7.722  0.1140  0.5152  0.0883
   65MOL   O17313101   5.058   1.989   7.605 -0.1123  0.3859  0.1488
   65MOL   C17413102   4.940   1.961   0.024  0.9489  0.3295 -0.6537
   65MOL   C17513103   4.933   1.803   0.029 -0.0153  0.4355  0.3159
   65MOL   N17613104   4.797   1.754   0.005 -0.6247  0.1160  0.2526
   65MOL   H17713105   4.850   1.997   7.754  0.5164 -1.2480 -1.0468
   65MOL   H17813106   4.942   1.998   0.127  0.6325  0.8319 -0.8243
   65MOL   H17913107   5.000   1.755   7.739 -1.3406 -1.6438  0.4480
   65MOL   H18013108   4.971   1.766   0.124 -0.8243 -1.4300 -0.0655
   65MOL   H18113109   4.722   1.812   0.039 -0.8646 -0.7357  1.2077
   65MOL   C18213110   4.765   1.625   7.745  0.1386  0.0849  0.5128
   65MOL   O18313111   4.852   1.542   7.719 -0.0749  0.5089 -0.1986
   65MOL   C18413112   4.621   1.604   7.722  0.9143  0.8352 -0.0676
   65MOL   C18513113   4.598   1.456   7.678 -0.2462  0.3559  0.0310
   65MOL   N18613114   4.624   1.426   7.533  0.4624  0.0635  0.3528
   65MOL   H18713115   4.586   1.676   7.648 -0.6884 -0.1832 -0.3451
   65MOL   H18813116   4.558   1.618   0.030 -0.0202  0.7847 -0.7169
   65MOL   H18913117   4.638   1.386   7.751 -1.1028  0.2748  0.4358
   65MOL   H19013118   4.489   1.452   7.684 -0.3590 -1.3817 -2.4871
   65MOL   H19113119   4.657   1.505   7.479  1.5256  1.3544  2.8121
   65MOL   C19213120   4.606   1.317   7.463  0.2744 -0.1146  0.6870
   65MOL   O19313121   4.550   1.218   7.508  0.3982  0.1852  0.1053
   65MOL   C19413122   4.641   1.321   7.312 -0.3700 -0.6684 -0.1059
   65MOL   C19513123   4.769   1.256   7.269 -0.0420  0.0148  0.8111
   65MOL   N19613124   4.877   1.357   7.279 -0.4562  0.0059 -0.5255
   65MOL   H19713125   4.556   1.287   7.253  1.3314  1.0173 -3.7398
   65MOL   H19813126   4.654   1.428   7.294  0.4990 -0.3518  2.2071
   65MOL   H19913127   4.793   1.174   7.337 -0.6934  0.1272  1.1815
   65MOL   H20013128   4.757   1.217   7.168 -1.3823  0.6415  0.7180
   65MOL   H20113129   4.856   1.429   7.345 -0.5041  0.3186 -0.8817
   65MOL   H20213130   4.951   1.310   7.330  1.0370  0.4214 -2.2571
   66MOL     C113131   4.031   3.623   4.047 -0.0922 -0.5065 -0.1128
   66MOL     O213132   4.145   3.621   4.097  0.0908 -0.7308  0.1646
   66MOL     C313133   3.988   3.734   3.959  0.2162  0.8152  0.5314
   66MOL     C413134   4.053   3.873   3.983 -0.1124  0.2810  0.2967
   66MOL     N513135   4.023   3.929   4.113 -0.6074  0.4744  0.7333
   66MOL     H613136   3.880   3.741   3.974 -0.3355  1.2710 -3.2540
   66MOL     H713137   4.009   3.704   3.856 -2.5449 -1.7261  0.6398
   66MOL     H813138   4.018   3.932   3.898 -0.3730 -1.3927 -0.7754
   66MOL     H913139   4.160   3.862   3.972 -0.3972 -1.0337 -1.4544
   66MOL    H1013140   3.999   3.859   4.181 -1.1695  0.1378  0.1954
   66MOL    H1113141   3.961   3.539   4.057  0.0190 -0.4532  1.1538
   66MOL    C1213142   4.005   4.055   4.143 -0.6048  0.2657 -0.3991
   66MOL    O1313143   4.030   4.144   4.063 -0.3340 -0.2312  0.4039
   66MOL    C1413144   3.969   4.094   4.287  0.3981 -0.1747 -0.5517
   66MOL    C1513145   3.936   4.248   4.302  0.9502 -0.2431 -0.2939
   66MOL    N1613146   4.053   4.329   4.343 -0.0048 -0.6487 -0.2629
   66MOL    H1713147   4.048   4.053   4.350 -0.1163  0.0001  0.2076
   66MOL    H1813148   3.883   4.031   4.307 -0.2907  1.1008  0.6079
   66MOL    H1913149   3.894   4.297   4.215 -3.1306  2.2823  2.8900
   66MOL    H2013150   3.864   4.256   4.384 -0.3622  1.0025 -1.5435
   66MOL    H2113151   4.142   4.282   4.329 -1.1366 -2.6586 -0.9453
   66MOL    C2213152   4.057   4.458   4.344  0.6476 -0.2963 -0.0773
   66MOL    O2313153   3.957   4.530   4.334 -0.2531  0.2718  0.4429
   66MOL    C2413154   4.195   4.528   4.350 -0.1007 -0.3231 -0.2504
   66MOL    C2513155   4.261   4.572   4.220  0.7349  0.1385  0.4707
   66MOL    N2613156   4.252   4.471   4.115  0.1355  0.1531  0.0106
   66MOL    H2713157   4.263   4.467   4.410 -0.1340  1.1974  1.3835
   66MOL    H2813158   4.193   4.622   4.405  0.8178 -2.0612  2.8393
   66MOL    H2913159   4.202   4.655   4.180  1.6276 -0.1404 -1.4869
   66MOL    H3013160   4.364   4.595   4.249  1.5890 -0.3199 -2.0387
   66MOL    H3113161   4.208   4.381   4.129  1.8914 -0.8608 -0.7983
   66MOL    C3213162   4.325   4.467   4.000 -0.2729  0.0088  0.6363
   66MOL    O3313163   4.405   4.548   3.959 -0.3086  0.7628  0.1093
   66MOL    C3413164   4.297   4.343   3.917 -0.1191 -0.4767 -0.3462
   66MOL    C3513165   4.231   4.374   3.775 -0.2688  0.6969 -0.3109
   66MOL    N3613166   4.310   4.353   3.658  0.1657  0.0620 -0.3270
   66MOL    H3713167   4.252   4.261   3.972  2.3225 -2.4920 -1.2396
   66MOL    H3813168   4.392   4.294   3.892  1.4563  2.6117 -0.6572
   66MOL    H3913169   4.133   4.326   3.769  1.0337 -1.9209 -1.4313
   66MOL    H4013170   4.199   4.478   3.774  0.1724  0.9008  2.4673
   66MOL    H4113171   4.323   4.433   3.598 -0.4657 -0.0633 -0.6439
   66MOL    C4213172   4.358   4.232   3.621 -0.0011  1.3378  0.3972
   66MOL    O4313173   4.336   4.133   3.690 -0.4257 -0.2054  0.2768
   66MOL    C4413174   4.438   4.215   3.491  0.1811 -0.1801  0.3345
   66MOL    C4513175   4.385   4.108   3.391 -0.1582 -0.0953 -0.5716
   66MOL    N4613176   4.449   3.973   3.400  0.3048 -0.1791  0.2955
   66MOL    H4713177   4.439   4.309   3.437  3.7605 -0.4523 -0.1802
   66MOL    H4813178   4.541   4.195   3.522  0.4220 -0.1346 -0.4385
   66MOL    H4913179   4.278   4.097   3.407  0.1795 -1.9268  0.6393
   66MOL    H5013180   4.398   4.156   3.294 -2.9381 -0.8718 -1.4006
   66MOL    H5113181   4.437   3.924   3.488 -0.7502 -1.4958 -0.5692
   66MOL    C5213182   4.524   3.929   3.302  0.0246  0.5139 -0.3742
   66MOL    O5313183   4.535   3.985   3.194 -0.0873 -0.5107 -0.2921
   66MOL    C5413184   4.608   3.801   3.325 -0.2704 -0.0614  0.8847
   66MOL    C5513185   4.753   3.823   3.373  0.0324 -0.1150 -0.4632
   66MOL    N5613186   4.844   3.902   3.283 -0.1330 -0.2299 -0.1219
   66MOL    H5713187   4.549   3.730   3.383 -2.1912  2.3681  2.0114
   66MOL    H5813188   4.612   3.748   3.230 -0.8680 -0.2722  0.9759
   66MOL    H5913189   4.802   3.725   3.375  1.2183  0.4770  0.2837
   66MOL    H6013190   4.762   3.881   3.465 -1.3869 -0.5812 -0.0114
   66MOL    H6113191   4.874   3.991   3.319  3.2267 -2.4864  2.9947
   66MOL    C6213192   4.870   3.871   3.153 -0.0876  0.0110  0.3979
   66MOL    O6313193   4.844   3.762   3.110  0.7202  0.0168  0.2133
   66MOL    C6413194   4.944   3.970   3.069  0.3247 -0.5804  0.6400
   66MOL    C6513195   4.853   3.990   2.946  0.0154 -0.3297  1.2455
   66MOL    N6613196   4.910   4.078   2.839 -0.0013  0.8244 -0.2988
   66MOL    H6713197   4.949   4.059   3.131 -2.3197 -0.3862  0.6377
   66MOL    H6813198   5.044   3.943   3.035 -0.3082 -0.9806 -0.9626
   66MOL    H6913199   4.851   3.904   2.879 -0.3670 -0.2563  1.1571
   66MOL    H7013200   4.749   4.015   2.968 -1.1681 -2.0864 -1.9629
   66MOL    H7113201   4.936   4.028   2.755 -0.6139  2.4210 -1.4659
   66MOL    C7213202   4.906   4.216   2.841  0.6756  0.1035  0.7501
   66MOL    O7313203   4.859   4.277   2.935  0.0450 -0.4160 -0.8569
   66MOL    C7413204   4.960   4.281   2.712 -0.0495  0.0697  0.4819
   66MOL    C7513205   4.854   4.264   2.598 -0.4037 -0.5033 -0.4518
   66MOL    N7613206   4.756   4.375   2.596 -0.4750 -0.5341  0.1187
   66MOL    H7713207   5.007   4.379   2.724 -0.6048  0.4492 -0.3529
   66MOL    H7813208   5.049   4.230   2.675 -0.9323  0.1886 -1.9474
   66MOL    H7913209   4.900   4.259   2.500 -2.0394 -3.4141 -1.1289
   66MOL    H8013210   4.797   4.172   2.616 -0.7769  0.4557  3.8249
   66MOL    H8113211   4.801   4.463   2.575 -1.2864 -0.2541 -0.4940
   66MOL    C8213212   4.624   4.371   2.571  0.5507 -0.3096  0.4471
   66MOL    O8313213   4.559   4.264   2.571 -0.3444  0.3995  0.5900
   66MOL    C8413214   4.541   4.506   2.552  0.0636  0.4190 -0.6681
   66MOL    C8513215   4.391   4.510   2.569  0.4518 -0.7356 -0.0628
   66MOL    N8613216   4.309   4.439   2.466  0.5993  0.1117  0.1698
   66MOL    H8713217   4.583   4.580   2.621 -0.5416 -2.0511  2.4827
   66MOL    H8813218   4.568   4.532   2.450 -0.0751 -1.2872 -1.1472
   66MOL    H8913219   4.362   4.449   2.655  2.3204  0.9234  1.7877
   66MOL    H9013220   4.352   4.610   2.588  3.1551  0.6810 -1.8281
   66MOL    H9113221   4.290   4.341   2.481 -1.2707  0.1211 -1.8514
   66MOL    C9213222   4.256   4.486   2.359 -0.1619  0.2286 -0.2141
   66MOL    O9313223   4.188   4.415   2.290 -0.5324 -0.1844 -0.2133
   66MOL    C9413224   4.296   4.628   2.309  0.8755  1.0182 -0.4619
   66MOL    C9513225   4.285   4.636   2.158  0.2532  0.8045  0.1610
   66MOL    N9613226   4.279   4.776   2.107  0.0612 -0.0634  0.5449
   66MOL    H9713227   4.240   4.703   2.365 -1.0896 -1.2531  0.7251
   66MOL    H9813228   4.401   4.641   2.332  1.2917  0.0366 -1.7551
   66MOL    H9913229   4.370   4.586   2.111 -0.5504 -0.5326  0.1274
   66MOL   H10013230   4.203   4.582   2.111  0.2529  0.1904  0.8496
   66MOL   H10113231   4.201   4.801   2.048  0.3988  1.2062  0.6248
   66MOL   C10213232   4.376   4.874   2.120  0.1140  0.3969  0.3482
   66MOL   O10313233   4.475   4.860   2.185 -0.0778  0.6342  1.0401
   66MOL   C10413234   4.334   5.004   2.054  0.6085  0.3071 -0.8678
   66MOL   C10513235   4.422   5.128   2.086 -0.0788 -0.2244 -0.0132
   66MOL   N10613236   4.363   5.246   2.026  0.5092 -0.2958  0.2874
   66MOL   H10713237   4.229   5.024   2.073  0.6873 -2.1204  2.5769
   66MOL   H10813238   4.342   4.992   1.946  2.6998 -1.9594 -0.5239
   66MOL   H10913239   4.440   5.140   2.193 -0.1088 -0.4654  0.0194
   66MOL   H11013240   4.521   5.110   2.044  0.0549  0.4684  0.0142
   66MOL   H11113241   4.293   5.293   2.082 -0.1848 -1.8166  0.7103
   66MOL   C11213242   4.398   5.304   1.915  0.0844 -0.6845 -0.0925
   66MOL   O11313243   4.481   5.250   1.845  0.2099 -0.6945  1.0887
   66MOL   C11413244   4.332   5.431   1.870  0.4267  0.4621  0.5220
   66MOL   C11513245   4.433   5.542   1.847  0.1068  0.1061  0.8514
   66MOL   N11613246   4.497   5.580   1.974  0.3257 -0.5240  0.0620
   66MOL   H11713247   4.254   5.463   1.939 -0.7879  2.2023 -1.6138
   66MOL   H11813248   4.274   5.406   1.782  1.1928  0.8771 -0.1081
   66MOL   H11913249   4.513   5.514   1.779 -0.1919  2.1412 -0.3824
   66MOL   H12013250   4.388   5.624   1.791 -0.2234 -0.3498  0.4513
   66MOL   H12113251   4.557   5.512   2.017  2.3641  1.0294 -0.2416
   66MOL   C12213252   4.495   5.700   2.025  0.2968 -0.3089 -0.4804
   66MOL   O12313253   4.438   5.794   1.976 -0.2533  0.0323 -0.2622
   66MOL   C12413254   4.590   5.727   2.141  0.0405  0.2850 -0.5467
   66MOL   C12513255   4.517   5.716   2.279 -0.0838 -0.6127  0.6877
   66MOL   N12613256   4.503   5.571   2.322  0.0058  0.1283  0.1920
   66MOL   H12713257   4.634   5.825   2.128  0.0341  0.3892  0.1846
   66MOL   H12813258   4.679   5.664   2.142  0.6104  1.0938  0.0018
   66MOL   H12913259   4.558   5.779   2.358 -4.5417  0.2829  2.4077
   66MOL   H13013260   4.418   5.757   2.262 -0.0404 -1.3708 -1.4823
   66MOL   H13113261   4.426   5.526   2.274  0.2246  0.8141 -0.8072
   66MOL   C13213262   4.550   5.511   2.433 -0.5385 -0.1149  0.1362
   66MOL   O13313263   4.621   5.571   2.519  0.8653 -0.5630 -0.3705
   66MOL   C13413264   4.509   5.368   2.458  0.9041  0.4080  0.2084
   66MOL   C13513265   4.514   5.322   2.606  0.0832 -0.2605  0.8204
   66MOL   N13613266   4.396   5.367   2.676  0.2786 -0.7604  0.1513
   66MOL   H13713267   4.587   5.309   2.409  0.8866  1.3807 -1.0195
   66MOL   H13813268   4.433   5.331   2.390  1.0346  0.5007  0.0099
   66MOL   H13913269   4.524   5.213   2.598 -0.0247 -0.1314 -1.4099
   66MOL   H14013270   4.598   5.354   2.667  1.0894 -0.4957 -0.4256
   66MOL   H14113271   4.336   5.418   2.613  1.5592  0.0222 -0.4647
   66MOL   C14213272   4.353   5.319   2.795  0.3943 -0.0188 -0.3505
   66MOL   O14313273   4.429   5.259   2.877 -0.1106  0.5353 -0.3257
   66MOL   C14413274   4.207   5.351   2.836 -0.3016 -0.0025  0.4026
   66MOL   C14513275   4.102   5.245   2.791 -0.0254 -0.2445 -0.1260
   66MOL   N14613276   3.967   5.307   2.800  0.3339 -0.4760  0.5140
   66MOL   H14713277   4.169   5.445   2.796 -1.3484 -0.6396 -0.1444
   66MOL   H14813278   4.211   5.379   2.942  1.5780  2.5387 -0.3058
   66MOL   H14913279   4.130   5.238   2.686  1.2856  1.3607  0.0937
   66MOL   H15013280   4.113   5.152   2.846  0.4260  0.1801  0.5166
   66MOL   H15113281   3.959   5.407   2.787  0.5733 -0.6144 -0.7336
   66MOL   C15213282   3.862   5.234   2.831  0.2040  0.9550 -0.1096
   66MOL   O15313283   3.870   5.114   2.835 -0.9049 -0.1012  0.2333
   66MOL   C15413284   3.727   5.307   2.848 -0.2692 -0.2498 -0.0798
   66MOL   C15513285   3.613   5.228   2.911  0.8589 -0.0113 -0.6565
   66MOL   N15613286   3.561   5.132   2.815  0.1881  0.2145 -0.2231
   66MOL   H15713287   3.706   5.337   2.745  0.8509 -3.2394 -1.2490
   66MOL   H15813288   3.746   5.400   2.902 -1.3700 -1.0998  1.8175
   66MOL   H15913289   3.641   5.171   2.999  0.6717 -0.5075 -0.9178
   66MOL   H16013290   3.529   5.297   2.922 -0.3830 -1.9791  2.7318
   66MOL   H16113291   3.594   5.139   2.719  2.4740 -0.7612  0.4496
   66MOL   C16213292   3.489   5.021   2.842 -0.1907 -0.3175 -0.0659
   66MOL   O16313293   3.440   4.995   2.952 -0.4038  0.7076  0.0010
   66MOL   C16413294   3.446   4.941   2.714  0.0451  0.2177  0.2459
   66MOL   C16513295   3.395   4.796   2.736  0.0114 -0.4454  0.4077
   66MOL   N16613296   3.420   4.703   2.629 -0.4602  1.0537 -0.3152
   66MOL   H16713297   3.529   4.940   2.644 -1.0963  1.7065 -1.1522
   66MOL   H16813298   3.369   5.002   2.668  0.4499 -0.5952 -1.5282
   66MOL   H16913299   3.433   4.749   2.827  2.3172  2.7995  1.1955
   66MOL   H17013300   3.289   4.804   2.761 -0.0604 -0.4342  0.0958
   66MOL   H17113301   3.341   4.648   2.598 -2.0057  2.9936  0.0306
   66MOL   C17213302   3.539   4.642   2.593  0.1279 -0.5915  0.5508
   66MOL   O17313303   3.651   4.682   2.633 -0.3065 -0.5535  0.2823
   66MOL   C17413304   3.521   4.516   2.509 -0.0504  0.2688  0.4996
   66MOL   C17513305   3.543   4.534   2.363  0.2695  0.0166  0.0540
   66MOL   N17613306   3.684   4.540   2.327 -0.7187 -0.5841  0.4511
   66MOL   H17713307   3.418   4.480   2.515  0.4085 -0.9063  1.4610
   66MOL   H17813308   3.584   4.435   2.545 -1.1568 -0.5566  0.6162
   66MOL   H17913309   3.489   4.456   2.311  1.1118  0.0775 -0.9219
   66MOL   H18013310   3.489   4.623   2.331 -1.0773 -0.7498  0.1484
   66MOL   H18113311   3.730   4.450   2.322 -2.5352 -1.5333  0.6118
   66MOL   C18213312   3.741   4.658   2.294 -0.6367  0.2898 -0.8340
   66MOL   O18313313   3.672   4.757   2.310  0.5487 -0.1504  0.2140
   66MOL   C18413314   3.882   4.656   2.231 -0.3834  0.6809 -0.1817
   66MOL   C18513315   3.898   4.751   2.111 -0.0032 -0.0850 -0.8211
   66MOL   N18613316   3.924   4.685   1.988 -0.5448 -0.2891 -0.3974
   66MOL   H18713317   3.906   4.551   2.216 -0.2503  0.6299  0.3623
   66MOL   H18813318   3.951   4.697   2.305  0.8341  0.0044 -0.9113
   66MOL   H18913319   3.814   4.820   2.114 -0.5870 -0.8156  0.0079
   66MOL   H19013320   3.982   4.811   2.145  0.6517 -2.3067  1.6625
   66MOL   H19113321   3.876   4.598   1.971  1.5917 -1.4346 -0.7229
   66MOL   C19213322   4.016   4.723   1.902  0.2116  0.2150  0.4701
   66MOL   O19313323   4.078   4.833   1.915  0.1459 -0.2708  0.2393
   66MOL   C19413324   4.028   4.642   1.780  0.0160 -0.1603  0.1422
   66MOL   C19513325   4.168   4.573   1.772  1.6239  0.1088  0.0564
   66MOL   N19613326   4.184   4.502   1.641  0.1904 -0.2557  0.1161
   66MOL   H19713327   3.938   4.584   1.757 -0.1787  0.2145 -0.0334
   66MOL   H19813328   4.030   4.716   1.701  1.2503  0.3904  0.6755
   66MOL   H19913329   4.251   4.642   1.789  0.1547  1.4752  1.7221
   66MOL   H20013330   4.171   4.503   1.855 -0.0124  0.1699  0.1692
   66MOL   H20113331   4.275   4.458   1.647  0.5379  0.4774  0.3196
   66MOL   H20213332   4.208   4.570   1.570 -0.1894  1.2065  1.3506
   67MOL     C113333   0.081   0.625   1.914  0.1368 -1.1773 -0.8125
   67MOL     O213334   0.125   0.533   1.986  0.1680 -0.1567 -0.1575
   67MOL     C313335   0.156   0.693   1.804 -0.7404  0.2690  0.4080
   67MOL     C413336   0.132   0.848   1.809 -0.5685  0.4384 -0.8642
   67MOL     N513337   0.220   0.922   1.910 -0.1448 -0.5700  0.6349
   67MOL     H613338   0.119   0.667   1.706 -0.6153 -2.1277  0.9618
   67MOL     H713339   0.264   0.680   1.816 -0.5794  0.6263 -0.6785
   67MOL     H813340   0.029   0.867   1.839 -0.7489 -0.6125 -0.7854
   67MOL     H913341   0.142   0.887   1.708 -0.3326 -3.2395 -2.3281
   67MOL    H1013342   0.208   0.896   2.007 -0.2295 -2.4329  0.1485
   67MOL    H1113343   7.760   0.662   1.934  1.3328  1.6922  0.1453
   67MOL    C1213344   0.316   1.012   1.879 -0.3411  0.4058  0.8633
   67MOL    O1313345   0.323   1.057   1.764  0.0848 -0.5119 -0.2710
   67MOL    C1413346   0.412   1.055   1.988  0.3605 -0.8097  0.2201
   67MOL    C1513347   0.408   1.209   2.023 -0.6796  0.0854 -0.0757
   67MOL    N1613348   0.549   1.248   2.051 -0.1596 -0.0716 -0.5679
   67MOL    H1713349   0.516   1.033   1.967  1.2439  1.7745  1.6381
   67MOL    H1813350   0.396   1.006   2.085  0.5798 -0.4547  0.4328
   67MOL    H1913351   0.368   1.266   1.939  0.4322  0.1607 -0.5689
   67MOL    H2013352   0.345   1.231   2.109  2.3421  1.9266  1.7293
   67MOL    H2113353   0.617   1.190   2.098  0.3307 -1.8064 -3.3205
   67MOL    C2213354   0.596   1.375   2.034 -0.2736 -0.4642 -0.0915
   67MOL    O2313355   0.525   1.463   1.985  0.3624 -0.4130 -0.4280
   67MOL    C2413356   0.741   1.403   2.085  0.2761  0.4710  0.1441
   67MOL    C2513357   0.738   1.517   2.194  0.5167 -0.6094 -0.1280
   67MOL    N2613358   0.753   1.654   2.142 -0.3567  0.8855 -0.2092
   67MOL    H2713359   0.801   1.424   1.997  0.8490  1.9226  0.8629
   67MOL    H2813360   0.791   1.316   2.128  0.3841 -0.0640 -1.0425
   67MOL    H2913361   0.644   1.515   2.250 -0.8002  2.6132 -2.0948
   67MOL    H3013362   0.815   1.494   2.268  0.1429 -0.7121  0.2333
   67MOL    H3113363   0.846   1.676   2.109 -0.4191 -0.4091 -1.3024
   67MOL    C3213364   0.658   1.749   2.139  0.7497 -0.4346 -0.0340
   67MOL    O3313365   0.541   1.733   2.190 -0.2363  0.1721 -0.0285
   67MOL    C3413366   0.700   1.885   2.087 -0.1654  0.0889  0.0783
   67MOL    C3513367   0.604   1.956   1.986 -0.5384 -0.2514  0.6499
   67MOL    N3613368   0.480   1.997   2.045 -0.3295 -0.5971  0.0930
   67MOL    H3713369   0.797   1.878   2.037  0.0500 -0.6826  0.5916
   67MOL    H3813370   0.722   1.956   2.167 -1.3041 -0.4367  0.8813
   67MOL    H3913371   0.652   2.048   1.954 -1.5019  0.9554  2.5685
   67MOL    H4013372   0.589   1.893   1.898  3.5706 -1.4323  0.7108
   67MOL    H4113373   0.460   1.990   2.143 -1.9905 -0.7756 -0.2519
   67MOL    C4213374   0.379   2.033   1.967 -0.1344  0.3928 -0.9703
   67MOL    O4313375   0.378   2.044   1.848  0.2544 -0.1685 -0.2244
   67MOL    C4413376   0.252   2.074   2.044 -0.5335 -0.2393 -0.2096
   67MOL    C4513377   0.209   2.218   2.013  0.6310 -0.7274 -0.4980
   67MOL    N4613378   0.093   2.258   2.093 -0.3118 -0.0548 -0.4723
   67MOL    H4713379   0.172   2.020   1.993  0.3419 -1.3971 -0.4038
   67MOL    H4813380   0.262   2.051   2.150  1.8857 -2.7911 -0.8853
   67MOL    H4913381   0.282   2.294   2.042  0.2103 -0.3093 -0.5294
   67MOL    H5013382   0.175   2.226   1.910 -0.2987  0.5061 -0.1025
   67MOL    H5113383   0.109   2.338   2.153  1.0072  1.0865 -2.3198
   67MOL    C5213384   7.746   2.224   2.074 -0.6850 -0.1653 -0.1460
   67MOL    O5313385   7.702   2.153   1.982  0.2832  0.0522  0.1248
   67MOL    C5413386   7.645   2.257   2.184  0.5775 -1.0206 -0.8294
   67MOL    C5513387   7.512   2.308   2.131  0.8793  0.4018 -0.3934
   67MOL    N5613388   7.507   2.447   2.095 -0.2594 -0.3477  0.2293
   67MOL    H5713389   7.626   2.167   2.242  0.6075  0.4522  1.5223
   67MOL    H5813390   7.677   2.334   2.254 -1.4299 -0.8688 -0.0515
   67MOL    H5913391   7.431   2.286   2.199  2.9930  0.4732  2.2356
   67MOL    H6013392   7.488   2.254   2.040 -3.2355 -0.0015  0.8671
   67MOL    H6113393   7.600   2.481   2.072 -0.2594 -0.6726 -0.2678
   67MOL    C6213394   7.405   2.535   2.097 -0.0962  0.0484 -0.0366
   67MOL    O6313395   7.293   2.510   2.133  0.4227  0.8210  0.0774
   67MOL    C6413396   7.437   2.677   2.049 -0.1298  0.7912 -0.9291
   67MOL    C6513397   7.330   2.779   2.066 -0.0517  0.1089  0.1315
   67MOL    N6613398   7.323   2.847   2.204 -0.1766  0.1530  0.4808
   67MOL    H6713399   7.526   2.704   2.105 -0.8181  0.7038  0.2314
   67MOL    H6813400   7.454   2.669   1.942 -2.1718 -2.7487 -1.0979
   67MOL    H6913401   7.351   2.862   1.999  0.9698  0.0855  0.4027
   67MOL    H7013402   7.229   2.751   2.037 -0.5579  0.6054  1.3871
   67MOL    H7113403   7.380   2.816   2.281  1.7498 -0.1727 -1.0378
   67MOL    C7213404   7.246   2.947   2.234 -0.0576 -0.7775  0.2190
   67MOL    O7313405   7.167   2.988   2.146  0.3537  0.3594  0.3006
   67MOL    C7413406   7.233   2.995   2.378  0.0715  0.6222 -0.1387
   67MOL    C7513407   7.113   3.093   2.391 -0.2659  0.0196 -0.0400
   67MOL    N7613408   7.106   3.161   2.525 -0.1938  0.1384 -0.0422
   67MOL    H7713409   7.213   2.920   2.455  0.8648 -0.6859 -1.1946
   67MOL    H7813410   7.324   3.050   2.403  0.1548  0.6831 -0.5846
   67MOL    H7913411   7.113   3.168   2.312  1.1115  2.1643  1.9350
   67MOL    H8013412   7.018   3.042   2.376 -0.5924 -0.2799  2.6902
   67MOL    H8113413   7.190   3.164   2.581  1.8469 -0.5845 -2.9183
   67MOL    C8213414   6.997   3.229   2.569  0.2001  0.3856 -0.8033
   67MOL    O8313415   6.889   3.244   2.505  0.1553 -0.3017  0.2539
   67MOL    C8413416   7.008   3.287   2.707 -0.0244  0.2914 -0.2036
   67MOL    C8513417   6.987   3.438   2.717  0.3440  0.3591 -0.0317
   67MOL    N8613418   7.035   3.486   2.844 -0.2508  0.1283 -0.5717
   67MOL    H8713419   6.945   3.229   2.774 -0.1683  0.4712 -0.1819
   67MOL    H8813420   7.107   3.267   2.746  0.7148  2.0021 -1.1663
   67MOL    H8913421   7.045   3.495   2.643 -0.2167  0.2286 -0.5763
   67MOL    H9013422   6.883   3.464   2.697  0.1436  0.6924  1.4317
   67MOL    H9113423   7.131   3.466   2.868 -0.4924  0.2601  0.5515
   67MOL    C9213424   6.969   3.570   2.933 -0.0739  0.1336 -0.4229
   67MOL    O9313425   6.849   3.593   2.928 -0.2307  0.0785  0.4435
   67MOL    C9413426   7.049   3.626   3.054  0.1601  0.5743 -0.7277
   67MOL    C9513427   7.101   3.766   3.055 -0.3711 -0.8205 -0.6100
   67MOL    N9613428   7.156   3.820   2.931  0.5214 -0.1605  0.2345
   67MOL    H9713429   6.985   3.606   3.139  0.9304  1.2320  0.0200
   67MOL    H9813430   7.130   3.557   3.079 -0.2399  0.7304  1.0642
   67MOL    H9913431   7.019   3.830   3.087  0.3483 -0.0916 -0.2041
   67MOL   H10013432   7.171   3.787   3.136 -0.5537 -1.6284 -0.2417
   67MOL   H10113433   7.088   3.867   2.873  1.5294 -1.3758 -2.0032
   67MOL   C10213434   7.268   3.787   2.864  0.7190 -0.1387 -0.4769
   67MOL   O10313435   7.347   3.709   2.904 -0.5713  0.6984 -0.2248
   67MOL   C10413436   7.290   3.860   2.730 -0.0757 -0.6526 -0.1318
   67MOL   C10513437   7.389   3.786   2.635  0.2118  0.0501 -0.3067
   67MOL   N10613438   7.358   3.643   2.622  0.0740  0.2312 -0.0745
   67MOL   H10713439   7.329   3.961   2.744  0.0701 -1.0872  3.0753
   67MOL   H10813440   7.194   3.860   2.679 -0.3406 -0.1226  0.3652
   67MOL   H10913441   7.381   3.837   2.539 -0.0716  0.7237  0.0660
   67MOL   H11013442   7.485   3.783   2.685 -0.9910 -3.3381  1.9760
   67MOL   H11113443   7.341   3.592   2.708  0.0640 -1.1806 -0.8892
   67MOL   C11213444   7.386   3.572   2.516  0.1217 -0.4046 -0.2504
   67MOL   O11313445   7.434   3.622   2.409 -1.0149 -0.5862 -0.2888
   67MOL   C11413446   7.359   3.424   2.523  0.4885 -0.1396  0.2600
   67MOL   C11513447   7.484   3.342   2.499 -0.0219  0.2223  0.2038
   67MOL   N11613448   7.509   3.291   2.368  0.0089 -0.3550 -0.3339
   67MOL   H11713449   7.276   3.408   2.453  3.3950  0.5427 -3.5453
   67MOL   H11813450   7.331   3.402   2.626  2.3836 -0.0160  0.8093
   67MOL   H11913451   7.565   3.405   2.537  0.8193  0.0242 -1.2346
   67MOL   H12013452   7.481   3.259   2.569  0.3367  0.5528  0.6102
   67MOL   H12113453   7.457   3.333   2.292  0.1938 -0.3964 -0.4843
   67MOL   C12213454   7.588   3.190   2.346 -0.5763 -0.8188 -0.2852
   67MOL   O12313455   7.658   3.130   2.432 -0.3456 -0.1985  0.7762
   67MOL   C12413456   7.604   3.150   2.198 -0.2679  0.6974  0.3962
   67MOL   C12513457   7.741   3.106   2.157  0.8119  0.1118  0.2064
   67MOL   N12613458   7.757   3.082   2.010  0.2633 -0.2950  0.3384
   67MOL   H12713459   7.560   3.214   2.122  2.8042 -0.4959 -2.4943
   67MOL   H12813460   7.538   3.063   2.190  0.0058  0.5175  0.0518
   67MOL   H12913461   0.049   3.161   2.189  0.6693  0.7466 -0.4847
   67MOL   H13013462   7.753   3.010   2.207  0.4456  0.2542  0.5692
   67MOL   H13113463   0.064   3.110   1.969 -0.5015  0.2740 -0.9401
   67MOL   C13213464   7.693   2.997   1.932  0.3850  0.0497  0.2513
   67MOL   O13313465   7.591   2.938   1.970  0.0250 -0.0521  0.3082
   67MOL   C13413466   7.746   2.977   1.795 -0.1167  0.0509 -0.3397
   67MOL   C13513467   7.648   2.907   1.702  0.4501  0.1439 -0.0053
   67MOL   N13613468   7.682   2.915   1.562  0.5625 -0.3403 -0.4452
   67MOL   H13713469   0.068   2.937   1.796 -0.3193 -0.5472 -1.8088
   67MOL   H13813470   7.767   3.075   1.751 -0.5927  1.1224  1.7961
   67MOL   H13913471   7.646   2.802   1.733 -1.5886  0.3535  0.6688
   67MOL   H14013472   7.549   2.948   1.718  0.9276  1.4710 -0.4172
   67MOL   H14113473   7.714   2.830   1.519  0.9470 -1.2208  1.5243
   67MOL   C14213474   7.647   3.007   1.472  0.2409 -0.6510 -0.4841
   67MOL   O14313475   7.576   3.104   1.503  0.0822 -0.5398 -0.5877
   67MOL   C14413476   7.649   2.972   1.321  0.4905 -0.1865 -0.9169
   67MOL   C14513477   7.725   3.071   1.231  0.2803  0.0694 -0.2485
   67MOL   N14613478   7.653   3.189   1.199  0.2283  0.0925  0.0360
   67MOL   H14713479   7.545   2.965   1.291  0.0709 -0.7285  0.6533
   67MOL   H14813480   7.684   2.871   1.297 -2.4836 -1.4302 -0.2634
   67MOL   H14913481   0.029   3.111   1.287  2.2176 -1.0490 -2.2850
   67MOL   H15013482   7.766   3.017   1.146 -0.0274 -1.0060  0.2834
   67MOL   H15113483   7.674   3.262   1.265 -1.6456 -0.9551  1.8487
   67MOL   C15213484   7.600   3.221   1.080 -0.4197 -0.2963  0.6100
   67MOL   O15313485   7.623   3.155   0.981 -0.1361  0.0429  0.0499
   67MOL   C15413486   7.524   3.355   1.079 -0.6589 -0.0380 -0.6381
   67MOL   C15513487   7.374   3.353   1.023  0.1095  0.3643 -0.0889
   67MOL   N15613488   7.367   3.311   0.884  0.2682  0.0520  0.3317
   67MOL   H15713489   7.590   3.419   1.020 -0.0132 -0.7772 -0.7256
   67MOL   H15813490   7.513   3.398   1.179  0.3592  1.4717 -1.1560
   67MOL   H15913491   7.293   3.297   1.069 -0.9621  1.4762 -0.5960
   67MOL   H16013492   7.350   3.459   1.031 -1.7958 -0.0322 -0.3656
   67MOL   H16113493   7.437   3.243   0.858 -0.0294  0.1181 -0.6766
   67MOL   C16213494   7.265   3.348   0.805  0.0672  0.2675 -0.4507
   67MOL   O16313495   7.174   3.422   0.833  0.5214 -0.1079  0.0697
   67MOL   C16413496   7.263   3.295   0.663  0.1596  0.4421  0.1084
   67MOL   C16513497   7.125   3.273   0.606  0.1809  0.2445 -0.2873
   67MOL   N16613498   7.108   3.326   0.476  0.8657 -0.2083 -0.1673
   67MOL   H16713499   7.315   3.200   0.664 -1.8358 -0.6963 -0.7920
   67MOL   H16813500   7.325   3.364   0.606  0.8783 -0.3283 -0.0460
   67MOL   H16913501   7.087   3.171   0.610  0.5765  0.0954 -0.3301
   67MOL   H17013502   7.046   3.318   0.666  1.2994  0.1681  1.2469
   67MOL   H17113503   7.128   3.271   0.393  1.6119  3.1759 -2.3286
   67MOL   C17213504   7.058   3.444   0.446 -0.0983 -0.5411  0.0924
   67MOL   O17313505   7.026   3.526   0.529 -0.1557 -0.0584  0.3355
   67MOL   C17413506   7.031   3.479   0.296 -0.2911  0.3368 -0.1306
   67MOL   C17513507   7.023   3.628   0.255 -0.0813 -0.8414 -0.6911
   67MOL   N17613508   7.153   3.692   0.242 -0.6848  0.2130 -0.0733
   67MOL   H17713509   6.943   3.420   0.270  0.1247 -1.1484  1.7206
   67MOL   H17813510   7.117   3.434   0.245 -0.3272 -0.1827  0.2532
   67MOL   H17913511   6.980   3.644   0.157  0.7308  0.5353 -0.8409
   67MOL   H18013512   6.955   3.686   0.318  2.9375  2.6948 -0.5110
   67MOL   H18113513   7.193   3.746   0.317  0.6656 -0.2732 -0.4189
   67MOL   C18213514   7.244   3.666   0.145 -0.1270  0.2632 -0.0114
   67MOL   O18313515   7.225   3.584   0.052 -0.0869 -0.4604  0.2910
   67MOL   C18413516   7.383   3.725   0.153 -0.4756  0.4602  0.3766
   67MOL   C18513517   7.392   3.861   0.216  0.0830  0.4919 -0.1849
   67MOL   N18613518   7.442   3.857   0.356  0.6164  0.3521  0.2827
   67MOL   H18713519   7.423   3.718   0.052 -1.2133 -2.4318  0.2140
   67MOL   H18813520   7.438   3.658   0.219  0.2139  1.2648  0.6253
   67MOL   H18913521   7.474   3.923   0.178  1.8451 -1.0559  1.0340
   67MOL   H19013522   7.297   3.914   0.203 -1.0043 -1.1804  0.8240
   67MOL   H19113523   7.539   3.833   0.375 -0.0739 -1.4985  1.6079
   67MOL   C19213524   7.364   3.847   0.466  0.2161  0.0857 -0.1921
   67MOL   O19313525   7.250   3.885   0.455  0.4133  0.5302  0.3697
   67MOL   C19413526   7.422   3.813   0.614  0.2154 -0.1155 -0.2653
   67MOL   C19513527   7.339   3.703   0.677 -0.5766  0.2234 -0.3345
   67MOL   N19613528   7.401   3.676   0.810 -0.2459 -0.2020  0.3288
   67MOL   H19713529   7.526   3.780   0.606 -0.3686 -2.0390 -0.2215
   67MOL   H19813530   7.433   3.898   0.681  0.1068 -1.4666  1.5248
   67MOL   H19913531   7.232   3.722   0.673 -0.4262  1.1584 -0.0924
   67MOL   H20013532   7.358   3.615   0.616 -0.3747  0.4635 -0.6225
   67MOL   H20113533   7.500   3.668   0.796 -0.0876  0.0024  1.2777
   67MOL   H20213534   7.371   3.586   0.844  0.5368 -0.4971  0.2378
   68MOL     C113535   3.483   4.260   3.397 -0.0886  0.1755 -0.1210
   68MOL     O213536   3.532   4.356   3.463  0.5072  0.4177 -0.6960
   68MOL     C313537   3.488   4.114   3.452 -0.5331 -0.2445 -0.4523
   68MOL     C413538   3.506   4.109   3.599 -0.2653 -0.2374  0.5329
   68MOL     N513539   3.466   3.986   3.663 -0.2431  0.1208  0.1817
   68MOL     H613540   3.566   4.066   3.392  1.1340  0.9192  0.7387
   68MOL     H713541   3.394   4.067   3.423 -1.4543  1.4793 -0.3014
   68MOL     H813542   3.449   4.182   3.657  1.3258  1.0149  0.5827
   68MOL     H913543   3.610   4.135   3.623 -0.3996 -1.4946  2.6744
   68MOL    H1013544   3.380   3.990   3.717  0.3132 -2.5963  1.3626
   68MOL    H1113545   3.434   4.260   3.299 -0.8234  2.1462  0.2189
   68MOL    C1213546   3.539   3.879   3.682  0.2967  0.2124  0.8905
   68MOL    O1313547   3.651   3.874   3.634  0.2246 -0.0436 -0.3905
   68MOL    C1413548   3.483   3.765   3.762 -0.0138 -0.0258 -0.5824
   68MOL    C1513549   3.549   3.627   3.746  0.2641  0.1095 -0.6244
   68MOL    N1613550   3.478   3.517   3.808  0.4990 -0.0114 -0.1147
   68MOL    H1713551   3.375   3.767   3.745  0.1383  1.3886 -1.4533
   68MOL    H1813552   3.499   3.803   3.862  0.5347  0.1876 -0.7492
   68MOL    H1913553   3.552   3.606   3.639 -1.1469 -1.9278 -0.2930
   68MOL    H2013554   3.655   3.612   3.767 -0.0327  2.4786  2.9087
   68MOL    H2113555   3.377   3.507   3.812  0.8152 -3.0734  2.2968
   68MOL    C2213556   3.521   3.398   3.863 -0.0447 -0.4214  0.5867
   68MOL    O2313557   3.639   3.373   3.886  0.0981 -0.1705 -0.7179
   68MOL    C2413558   3.407   3.304   3.902 -0.9963 -0.3212 -0.5864
   68MOL    C2513559   3.451   3.158   3.933  0.1406 -0.5385 -0.0381
   68MOL    N2613560   3.342   3.066   3.969  0.3766  0.0646  0.8795
   68MOL    H2713561   3.331   3.296   3.825 -1.9421  3.7931 -0.1805
   68MOL    H2813562   3.370   3.352   3.992 -0.9608 -0.1342 -0.6711
   68MOL    H2913563   3.507   3.114   3.851 -0.9390 -0.9117 -0.5819
   68MOL    H3013564   3.525   3.161   4.013  1.4117 -2.4791 -1.1067
   68MOL    H3113565   3.301   3.012   3.895 -1.1374  2.1492  0.1386
   68MOL    C3213566   3.258   3.093   4.071 -0.0756  0.2940 -0.4947
   68MOL    O3313567   3.297   3.161   4.169 -0.0134 -0.2503  0.2432
   68MOL    C3413568   3.110   3.045   4.058 -0.2639  0.1509 -0.1302
   68MOL    C3513569   3.062   2.926   4.150  0.1510  0.7895 -0.6066
   68MOL    N3613570   3.114   2.787   4.110  0.1397 -1.0652 -0.1114
   68MOL    H3713571   3.108   3.027   3.951  2.5225 -3.5832  0.3507
   68MOL    H3813572   3.049   3.134   4.070 -1.6648 -0.7244 -0.7095
   68MOL    H3913573   3.082   2.950   4.254  2.6358  1.5270 -1.2298
   68MOL    H4013574   2.953   2.926   4.141 -0.1249 -1.8612  1.7924
   68MOL    H4113575   3.121   2.766   4.012  1.2037  0.4299 -0.3728
   68MOL    C4213576   3.131   2.684   4.196 -0.7311  0.7133  0.3930
   68MOL    O4313577   3.113   2.704   4.322  1.0355  0.3069  0.3703
   68MOL    C4413578   3.184   2.551   4.141 -0.0848 -0.4050  0.1675
   68MOL    C4513579   3.138   2.433   4.227 -0.1086 -0.5003  0.5914
   68MOL    N4613580   2.995   2.403   4.210 -0.6880  0.2927 -0.0315
   68MOL    H4713581   3.168   2.542   4.033 -1.7451  0.3180  0.3398
   68MOL    H4813582   3.292   2.559   4.151 -0.0494  1.7286 -1.5654
   68MOL    H4913583   3.188   2.342   4.195 -0.0219  0.9190 -3.6924
   68MOL    H5013584   3.166   2.439   4.332  2.3845  1.2561 -0.1069
   68MOL    H5113585   2.934   2.443   4.280 -3.2710 -1.2857 -1.3153
   68MOL    C5213586   2.935   2.354   4.099  0.5171 -0.6541 -0.9470
   68MOL    O5313587   2.996   2.312   4.003  0.1053  0.0719  0.1362
   68MOL    C5413588   2.781   2.354   4.103 -0.0805  0.7903 -0.6352
   68MOL    C5513589   2.710   2.215   4.084 -0.2890 -0.3744 -0.0227
   68MOL    N5613590   2.723   2.166   3.947  0.5814  0.2826  0.8449
   68MOL    H5713591   2.763   2.373   4.209 -2.7124 -1.8216 -0.5137
   68MOL    H5813592   2.740   2.435   4.043  1.5318  0.8656 -1.6276
   68MOL    H5913593   2.603   2.220   4.102 -0.1459  0.8790  0.5385
   68MOL    H6013594   2.751   2.140   4.151 -1.1642 -0.9563 -0.1388
   68MOL    H6113595   2.814   2.125   3.931 -0.0214 -1.2023  1.0491
   68MOL    C6213596   2.635   2.164   3.844  0.0450  0.3470  0.6477
   68MOL    O6313597   2.522   2.208   3.850  0.4722 -0.3121 -0.2902
   68MOL    C6413598   2.690   2.102   3.709 -0.4550 -0.4551 -0.3450
   68MOL    C6513599   2.587   2.014   3.636 -0.7186 -1.0012 -0.4852
   68MOL    N6613600   2.658   1.890   3.600 -0.1734 -0.3554 -0.6305
   68MOL    H6713601   2.754   2.172   3.654  3.5391 -3.6357 -0.0055
   68MOL    H6813602   2.765   2.039   3.758 -0.0205 -0.6472 -1.2329
   68MOL    H6913603   2.507   1.978   3.701 -2.0498 -2.7645 -3.0296
   68MOL    H7013604   2.540   2.053   3.546  1.7085  1.5420 -0.7199
   68MOL    H7113605   2.613   1.802   3.624  3.7287 -2.3005  0.0166
   68MOL    C7213606   2.764   1.868   3.524 -0.1223  0.2716  0.3037
   68MOL    O7313607   2.820   1.959   3.453  0.1931  0.2375  0.2231
   68MOL    C7413608   2.815   1.724   3.533  0.2094  0.5339  0.1063
   68MOL    C7513609   2.833   1.659   3.399  0.2706 -0.8032 -0.4695
   68MOL    N7613610   2.887   1.526   3.405 -0.7251  0.1141  0.8855
   68MOL    H7713611   2.895   1.737   3.606 -0.1486  0.9091  0.4333
   68MOL    H7813612   2.743   1.665   3.589  0.3803  1.4574  1.3238
   68MOL    H7913613   2.739   1.651   3.343  1.7397  1.2606 -3.3797
   68MOL    H8013614   2.890   1.726   3.335 -0.3105  0.3090  0.1491
   68MOL    H8113615   2.878   1.469   3.488 -0.3847 -1.3872 -0.0955
   68MOL    C8213616   2.960   1.477   3.306 -0.0768  0.2202  0.4619
   68MOL    O8313617   2.970   1.525   3.195  0.0918 -0.7325  0.4483
   68MOL    C8413618   3.034   1.350   3.329  0.4355 -0.4503  0.1555
   68MOL    C8513619   3.182   1.364   3.302  0.3258 -0.2576  0.2347
   68MOL    N8613620   3.264   1.297   3.394  0.0335 -0.4555 -0.4205
   68MOL    H8713621   3.010   1.308   3.427  0.6064  1.5987  1.1014
   68MOL    H8813622   2.997   1.289   3.246 -0.0750  2.6413 -1.9739
   68MOL    H8913623   3.208   1.327   3.203  3.0915  2.2141 -0.0424
   68MOL    H9013624   3.221   1.466   3.301  0.6363 -0.3189  2.5245
   68MOL    H9113625   3.318   1.356   3.456  0.6835 -0.2851 -1.1302
   68MOL    C9213626   3.279   1.162   3.382  0.4378 -0.2813 -0.4986
   68MOL    O9313627   3.219   1.106   3.294  0.2403  0.1274 -0.7208
   68MOL    C9413628   3.369   1.090   3.491  0.4367 -0.7099 -0.0309
   68MOL    C9513629   3.480   0.999   3.432 -0.1182  1.0344 -0.0526
   68MOL    N9613630   3.597   1.076   3.431  0.5544 -0.5046 -0.2848
   68MOL    H9713631   3.412   1.159   3.564  0.3499  0.5055 -1.1189
   68MOL    H9813632   3.308   1.014   3.541 -0.2736 -0.9461 -1.2521
   68MOL    H9913633   3.500   0.908   3.489  0.8449  1.3672  0.1596
   68MOL   H10013634   3.446   0.968   3.334  0.5750  2.0976 -0.6335
   68MOL   H10113635   3.582   1.174   3.452  0.5735 -0.0571 -2.2267
   68MOL   C10213636   3.710   1.049   3.365 -0.4612 -0.3155  0.4896
   68MOL   O10313637   3.717   0.940   3.307  0.0142 -0.2721  0.2468
   68MOL   C10413638   3.819   1.159   3.359 -0.1609 -0.5298 -0.6550
   68MOL   C10513639   3.897   1.133   3.230  0.0502  0.7912 -0.1034
   68MOL   N10613640   3.811   1.133   3.108  0.1551  0.2787 -0.0907
   68MOL   H10713641   3.905   1.147   3.425  1.3938 -1.3661 -2.7667
   68MOL   H10813642   3.792   1.264   3.374  2.6376  0.0731  0.4700
   68MOL   H10913643   3.985   1.194   3.215 -0.3212  0.9776 -1.6137
   68MOL   H11013644   3.939   1.033   3.245 -0.9430  0.3252 -0.3843
   68MOL   H11113645   3.779   1.043   3.075 -0.4385  0.2987  0.4225
   68MOL   C11213646   3.766   1.251   3.055 -0.7606  0.6440 -0.0336
   68MOL   O11313647   3.777   1.358   3.116 -0.6314  0.0315 -0.1755
   68MOL   C11413648   3.708   1.261   2.913  0.2795  0.5905  0.2556
   68MOL   C11513649   3.550   1.239   2.891  0.3502  0.2820 -0.8598
   68MOL   N11613650   3.503   1.117   2.958 -0.2980 -0.2665  0.4733
   68MOL   H11713651   3.771   1.185   2.866 -0.8129  0.5810 -1.2518
   68MOL   H11813652   3.748   1.354   2.874 -1.5718  0.7518 -1.3428
   68MOL   H11913653   3.503   1.318   2.950 -0.0927 -0.9498  0.4678
   68MOL   H12013654   3.512   1.247   2.789  0.0835  0.3919 -0.7543
   68MOL   H12113655   3.570   1.055   3.004  0.2315  0.2773  0.4403
   68MOL   C12213656   3.375   1.064   2.951 -0.5031  1.1053 -0.1385
   68MOL   O12313657   3.282   1.109   2.887  0.4531 -0.1710  0.2561
   68MOL   C12413658   3.363   0.935   3.036  0.0686 -0.1356 -0.1206
   68MOL   C12513659   3.354   0.810   2.940  0.2564  0.5751  0.1855
   68MOL   N12613660   3.219   0.799   2.887  0.4065  0.6686  0.3923
   68MOL   H12713661   3.284   0.945   3.111 -1.1745 -0.1120 -1.4231
   68MOL   H12813662   3.458   0.925   3.089  0.7071  1.3509 -0.9532
   68MOL   H12913663   3.433   0.818   2.866 -0.0471  0.3966 -0.1619
   68MOL   H13013664   3.374   0.719   2.998 -1.1966  0.1538  0.0652
   68MOL   H13113665   3.159   0.880   2.885 -2.0013 -1.0865 -1.2114
   68MOL   C13213666   3.151   0.692   2.849 -0.0568 -0.1998 -0.3645
   68MOL   O13313667   3.208   0.586   2.840 -0.4803 -0.3031 -0.4047
   68MOL   C13413668   2.998   0.698   2.809 -0.2653  0.8448  0.2689
   68MOL   C13513669   2.976   0.677   2.656  0.4641  0.8563 -0.3828
   68MOL   N13613670   2.928   0.544   2.620 -0.3262 -0.6925  0.4777
   68MOL   H13713671   2.954   0.792   2.843  2.4064  1.6219  1.7098
   68MOL   H13813672   2.937   0.621   2.857 -1.5506  0.0853 -2.4926
   68MOL   H13913673   2.913   0.757   2.616  0.5345  1.5565  0.8949
   68MOL   H14013674   3.066   0.704   2.600  0.4955 -1.8576 -1.7082
   68MOL   H14113675   2.953   0.472   2.685 -0.1903 -2.3547 -1.3734
   68MOL   C14213676   2.837   0.528   2.516 -0.6534 -0.2778 -0.4742
   68MOL   O14313677   2.814   0.623   2.433 -0.0446  0.4298 -0.5545
   68MOL   C14413678   2.774   0.388   2.495  0.2245 -0.5169  0.1332
   68MOL   C14513679   2.816   0.321   2.367  0.0324  0.3906 -0.0149
   68MOL   N14613680   2.772   0.183   2.366  0.1314 -0.5988 -0.3078
   68MOL   H14713681   2.667   0.405   2.496  0.0305 -1.6197 -0.8487
   68MOL   H14813682   2.799   0.328   2.582  2.7177 -2.0633 -1.5535
   68MOL   H14913683   2.784   0.379   2.281  0.5823 -0.9161 -1.1155
   68MOL   H15013684   2.925   0.315   2.365 -0.0927 -1.8850 -2.6209
   68MOL   H15113685   2.690   0.168   2.309  0.9367 -1.6368 -1.2244
   68MOL   C15213686   2.809   0.085   2.451 -0.2862  0.1982  0.0216
   68MOL   O15313687   2.891   0.094   2.550 -0.0483  0.6594 -0.2589
   68MOL   C15413688   2.754   7.725   2.419  0.4704 -0.5838 -0.0795
   68MOL   C15513689   2.711   7.636   2.537 -0.0245 -0.1390 -0.3122
   68MOL   N15613690   2.608   7.685   2.628 -0.0020 -0.0006  0.2563
   68MOL   H15713691   2.831   7.668   2.366 -0.5369 -2.3804  0.3710
   68MOL   H15813692   2.671   7.719   2.349  0.6967 -1.2879 -0.2952
   68MOL   H15913693   2.693   7.535   2.500  1.5968 -0.3015 -0.7108
   68MOL   H16013694   2.805   7.620   2.590  0.2206 -3.6491 -1.6685
   68MOL   H16113695   2.524   7.732   2.595 -0.0998 -1.3219 -1.4640
   68MOL   C16213696   2.619   7.658   2.761  0.0180 -0.4588 -0.3496
   68MOL   O16313697   2.723   7.632   2.819 -0.0751  0.8624 -0.1337
   68MOL   C16413698   2.479   7.650   2.826  0.0836 -0.0074 -0.4064
   68MOL   C16513699   2.454   7.541   2.933  0.3399 -0.6311  0.2291
   68MOL   N16613700   2.315   7.504   2.940  0.2208  0.7425  0.1035
   68MOL   H16713701   2.403   7.632   2.750  1.2711 -0.3186 -1.5474
   68MOL   H16813702   2.461   7.744   2.878 -1.7528 -0.6382  0.1599
   68MOL   H16913703   2.525   7.458   2.925 -0.1289 -1.3031  2.7272
   68MOL   H17013704   2.480   7.580   3.031 -3.0500 -0.3046  1.0573
   68MOL   H17113705   2.243   7.572   2.960 -0.8150 -0.6291  1.1804
   68MOL   C17213706   2.267   7.379   2.908  0.3589  0.6226  0.2546
   68MOL   O17313707   2.344   7.279   2.908 -0.1452  0.5461 -0.3526
   68MOL   C17413708   2.120   7.370   2.873 -0.5286  0.4405 -0.2342
   68MOL   C17513709   2.069   7.237   2.816  0.3740 -0.6223  0.5509
   68MOL   N17613710   1.960   7.181   2.897 -0.3140 -0.3416 -0.5148
   68MOL   H17713711   2.103   7.451   2.801 -1.1746  1.3683  0.9374
   68MOL   H17813712   2.063   7.399   2.961  0.9491  2.8406 -0.0260
   68MOL   H17913713   2.002   7.252   2.731 -0.6928 -0.8268  1.3402
   68MOL   H18013714   2.148   7.169   2.783  0.7669  0.5218 -0.9098
   68MOL   H18113715   1.907   7.245   2.954 -0.6276 -1.5198  0.5461
   68MOL   C18213716   1.906   7.060   2.868  0.9759  0.5831 -0.2028
   68MOL   O18313717   1.949   6.999   2.767  0.7136 -0.0703 -0.2091
   68MOL   C18413718   1.791   7.005   2.946  0.5691  0.1394  0.6748
   68MOL   C18513719   1.697   6.926   2.858  0.1825 -0.2108 -0.4732
   68MOL   N18613720   1.746   6.791   2.864  0.0320 -0.4618 -1.0470
   68MOL   H18713721   1.734   7.089   2.984 -0.3358  0.3101 -0.9777
   68MOL   H18813722   1.833   6.959   3.036  2.1331 -0.9349 -0.5645
   68MOL   H18913723   1.598   6.937   2.903  1.2104  1.1794  1.5327
   68MOL   H19013724   1.703   6.973   2.760 -0.9061  1.0120  0.0341
   68MOL   H19113725   1.841   6.766   2.841 -1.0895 -1.7930 -4.6721
   68MOL   C19213726   1.654   6.694   2.875  0.2491 -0.1784 -0.6207
   68MOL   O19313727   1.537   6.715   2.917  0.2095  0.6270  0.5839
   68MOL   C19413728   1.694   6.554   2.830 -0.5218 -0.2526  0.9178
   68MOL   C19513729   1.571   6.467   2.795 -0.2309 -0.0641 -0.1614
   68MOL   N19613730   1.500   6.425   2.915 -0.5908 -0.4473  0.3234
   68MOL   H19713731   1.766   6.550   2.748  0.0126 -0.6347  1.4053
   68MOL   H19813732   1.744   6.500   2.910 -1.8383 -1.5904  0.8649
   68MOL   H19913733   1.495   6.522   2.740 -0.4242 -0.8301 -0.6587
   68MOL   H20013734   1.605   6.386   2.731  0.9481 -1.7020  2.4438
   68MOL   H20113735   1.465   6.511   2.955 -2.9825  0.3058 -3.1764
   68MOL   H20213736   1.426   6.358   2.899 -1.2435  0.7076 -1.6941
   69MOL     C113737   2.063   5.041   1.623 -0.1372 -0.2878 -0.2153
   69MOL     O213738   2.001   4.935   1.599 -0.4723  0.1869  0.6717
   69MOL     C313739   2.155   5.106   1.520  0.1761 -0.0515  0.4931
   69MOL     C413740   2.203   5.007   1.416  0.6618  0.2063 -0.2150
   69MOL     N513741   2.151   5.029   1.281  0.7050  0.2505 -0.2647
   69MOL     H613742   2.247   5.146   1.562 -0.0677  2.0534 -0.8890
   69MOL     H713743   2.097   5.191   1.484  0.2684 -0.2433 -0.1039
   69MOL     H813744   2.173   4.907   1.445  1.1126  0.4526  1.1191
   69MOL     H913745   2.312   5.002   1.415  0.6265 -0.4018 -0.9288
   69MOL    H1013746   2.104   5.116   1.258 -0.3811  0.6729  3.1475
   69MOL    H1113747   2.050   5.090   1.720  1.9530  0.8460 -0.4811
   69MOL    C1213748   2.171   4.953   1.176  0.4512  0.2838  0.3812
   69MOL    O1313749   2.251   4.861   1.169  0.4185 -0.7783 -0.2187
   69MOL    C1413750   2.098   5.002   1.056  0.6611 -0.4010 -0.0524
   69MOL    C1513751   2.115   4.916   0.931  0.0818  0.5194  0.2464
   69MOL    N1613752   2.072   4.998   0.819 -0.5964  0.4076  0.8323
   69MOL    H1713753   2.121   5.106   1.030  0.9060 -0.4114  0.1256
   69MOL    H1813754   1.991   5.008   1.074 -0.0203 -2.3802 -3.0992
   69MOL    H1913755   2.221   4.894   0.913 -0.2696 -0.9001 -0.0972
   69MOL    H2013756   2.052   4.828   0.938 -0.0259  0.2491 -3.3043
   69MOL    H2113757   2.143   5.055   0.775  0.2956  1.1363  3.1063
   69MOL    C2213758   1.944   5.014   0.777  0.2023 -0.0247  0.1061
   69MOL    O2313759   1.845   4.940   0.808 -0.1916 -0.0146 -0.0138
   69MOL    C2413760   1.925   5.134   0.680  0.3821  0.2098 -0.1473
   69MOL    C2513761   1.777   5.187   0.681 -0.4598  0.0308 -0.0037
   69MOL    N2613762   1.743   5.284   0.786  0.3692 -0.6071  0.1207
   69MOL    H2713763   1.955   5.116   0.577  1.7214 -0.8990  0.4245
   69MOL    H2813764   1.993   5.214   0.708 -1.7607  2.2498 -0.6437
   69MOL    H2913765   1.765   5.245   0.590  1.8055  0.0089 -0.3487
   69MOL    H3013766   1.709   5.102   0.681  0.7518 -0.9649  0.7584
   69MOL    H3113767   1.821   5.321   0.839  0.8838 -2.6544  0.8145
   69MOL    C3213768   1.626   5.329   0.812 -0.6406 -0.5942 -0.3044
   69MOL    O3313769   1.521   5.292   0.755 -0.6902 -0.3007  0.2228
   69MOL    C3413770   1.623   5.437   0.923  0.2421 -0.4372  0.5719
   69MOL    C3513771   1.500   5.532   0.919  0.2349 -0.1506 -0.3927
   69MOL    N3613772   1.387   5.481   0.999  0.0286  0.3192  0.0041
   69MOL    H3713773   1.718   5.490   0.934  0.0486 -0.1504  0.8709
   69MOL    H3813774   1.622   5.374   1.012 -0.4989  0.0340  0.8952
   69MOL    H3913775   1.547   5.621   0.959  0.7777  0.1337 -1.6303
   69MOL    H4013776   1.470   5.565   0.819  0.2299 -1.3431 -0.7934
   69MOL    H4113777   1.367   5.382   0.996  1.3772  0.0086  0.9128
   69MOL    C4213778   1.302   5.560   1.056  0.5448 -0.2602  0.1160
   69MOL    O4313779   1.322   5.684   1.061 -0.0945  0.0199 -0.1637
   69MOL    C4413780   1.193   5.485   1.132  0.2560 -0.5084 -0.1320
   69MOL    C4513781   1.074   5.473   1.039 -0.3931  0.6308 -0.1593
   69MOL    N4613782   1.095   5.358   0.937  0.0467  0.1830  0.2401
   69MOL    H4713783   1.216   5.386   1.173 -1.5007 -1.1792 -0.6773
   69MOL    H4813784   1.162   5.537   1.222  2.0996 -1.5276  1.1285
   69MOL    H4913785   0.990   5.438   1.099  0.3493  0.1408  0.6224
   69MOL    H5013786   1.039   5.565   0.994  1.4439  2.2513  1.6302
   69MOL    H5113787   1.076   5.263   0.967 -0.4335  0.3232  0.3881
   69MOL    C5213788   1.117   5.364   0.808  0.1391  0.9438 -0.2853
   69MOL    O5313789   1.131   5.471   0.754  0.1384 -0.7972  0.3369
   69MOL    C5413790   1.132   5.234   0.730  0.5406 -0.0402  0.5298
   69MOL    C5513791   1.156   5.260   0.578  0.0696 -0.0753 -0.4738
   69MOL    N5613792   1.293   5.304   0.558 -0.5037  0.0387 -0.4090
   69MOL    H5713793   1.204   5.168   0.780  1.5498 -0.0181 -0.8603
   69MOL    H5813794   1.037   5.182   0.734  1.2847 -1.3592  2.1255
   69MOL    H5913795   1.091   5.338   0.538 -1.1928 -1.7118 -1.6821
   69MOL    H6013796   1.133   5.171   0.520  1.4462  0.1355 -1.3724
   69MOL    H6113797   1.359   5.278   0.630  0.6308 -0.4261 -1.6082
   69MOL    C6213798   1.330   5.394   0.463  0.3147 -0.0973 -0.0876
   69MOL    O6313799   1.246   5.432   0.382 -0.6088 -0.3985  0.0536
   69MOL    C6413800   1.471   5.451   0.460 -0.2363 -0.4243 -0.6397
   69MOL    C6513801   1.470   5.599   0.495  0.3630 -0.0055  0.1988
   69MOL    N6613802   1.606   5.661   0.495  0.3493 -0.7392  0.0098
   69MOL    H6713803   1.543   5.395   0.519  2.1498  4.5476  1.4929
   69MOL    H6813804   1.502   5.432   0.357 -0.7643  1.5805 -1.2042
   69MOL    H6913805   1.398   5.658   0.438 -0.1405  0.3888  1.2325
   69MOL    H7013806   1.425   5.611   0.593  0.2754 -2.7679  0.5506
   69MOL    H7113807   1.658   5.669   0.581 -0.4871 -0.1805  0.4672
   69MOL    C7213808   1.667   5.686   0.374  0.4709  0.5594  0.2892
   69MOL    O7313809   1.619   5.662   0.262 -0.1327 -0.2981 -0.2006
   69MOL    C7413810   1.813   5.728   0.374 -0.3091  0.4289  1.2173
   69MOL    C7513811   1.840   5.863   0.311  0.6572 -0.8215 -0.2934
   69MOL    N7613812   1.985   5.900   0.294  0.5765  0.2644  1.0306
   69MOL    H7713813   1.857   5.730   0.474 -0.1814 -0.3547  1.1853
   69MOL    H7813814   1.875   5.651   0.328  0.2562  0.7748  1.3940
   69MOL    H7913815   1.789   5.879   0.216 -1.2597 -2.4435  0.4229
   69MOL    H8013816   1.787   5.933   0.376  1.2669 -1.3414  0.7850
   69MOL    H8113817   2.016   5.887   0.199 -1.0303  2.5466  0.1393
   69MOL    C8213818   2.070   5.937   0.390 -0.0409 -0.3166 -0.2825
   69MOL    O8313819   2.030   5.927   0.504 -0.2161 -0.6206  0.1651
   69MOL    C8413820   2.215   5.970   0.351 -0.0972  0.7206  0.0660
   69MOL    C8513821   2.288   5.845   0.308 -0.2259  0.0382 -0.5129
   69MOL    N8613822   2.432   5.864   0.303 -0.1844 -0.5064  0.4514
   69MOL    H8713823   2.226   6.051   0.278  0.2491  0.2468 -0.4054
   69MOL    H8813824   2.269   6.010   0.437  0.9081 -1.6973  0.5884
   69MOL    H8913825   2.268   5.775   0.390 -2.3204  1.2306  0.0260
   69MOL    H9013826   2.250   5.791   0.222  0.3828  1.0726 -1.4405
   69MOL    H9113827   2.468   5.954   0.275 -2.0856 -0.1011 -0.7898
   69MOL    C9213828   2.526   5.772   0.335 -0.1890  0.3704 -0.2958
   69MOL    O9313829   2.504   5.660   0.380  0.2710  0.4883 -0.2747
   69MOL    C9413830   2.677   5.809   0.311  0.4929  0.2074 -0.3072
   69MOL    C9513831   2.794   5.727   0.380  0.5538 -0.0057  0.3293
   69MOL    N9613832   2.813   5.601   0.315 -0.1152  0.4191  0.4898
   69MOL    H9713833   2.692   5.840   0.208 -2.2079  0.0949 -0.7642
   69MOL    H9813834   2.686   5.908   0.356  0.9850  0.3194 -0.6586
   69MOL    H9913835   2.885   5.787   0.380 -0.5516  1.7761 -2.2847
   69MOL   H10013836   2.774   5.707   0.485  0.2176  1.1814  0.4949
   69MOL   H10113837   2.755   5.533   0.363  0.3059  0.0172  0.4188
   69MOL   C10213838   2.911   5.570   0.226 -0.2451 -0.1344 -0.4448
   69MOL   O10313839   2.977   5.660   0.172  0.0431 -0.0046 -0.1851
   69MOL   C10413840   2.941   5.424   0.198 -0.0434  0.0766 -0.5195
   69MOL   C10513841   3.093   5.400   0.168 -0.1662 -0.0957  0.8582
   69MOL   N10613842   3.140   5.262   0.142  0.0368  0.2162  0.0527
   69MOL   H10713843   2.876   5.402   0.114 -0.2431 -0.7098 -0.1668
   69MOL   H10813844   2.920   5.368   0.290 -1.5791 -0.2450 -1.0616
   69MOL   H10913845   3.125   5.468   0.089  0.4477 -0.7319  0.5479
   69MOL   H11013846   3.145   5.435   0.257 -2.6875  1.5176  1.7373
   69MOL   H11113847   3.180   5.246   0.050 -0.9400 -1.8205 -0.0473
   69MOL   C11213848   3.155   5.165   0.237  0.2592  0.2431 -0.2721
   69MOL   O11313849   3.117   5.173   0.350 -0.2132  0.4428 -0.5169
   69MOL   C11413850   3.233   5.042   0.196  0.2025 -0.2364  0.7871
   69MOL   C11513851   3.167   4.904   0.181  0.3500  0.5620 -0.3748
   69MOL   N11613852   3.256   4.796   0.151  0.3238  0.1250  0.0471
   69MOL   H11713853   3.322   5.037   0.259  0.8504  0.8567 -0.0140
   69MOL   H11813854   3.268   5.071   0.097 -1.1042  1.3088  0.7383
   69MOL   H11913855   3.108   4.872   0.267  1.3265  0.0867  0.1251
   69MOL   H12013856   3.105   4.911   0.091 -0.9890 -0.4675  0.4408
   69MOL   H12113857   3.257   4.771   0.053  0.7533 -0.8924  0.2990
   69MOL   C12213858   3.320   4.732   0.248  0.0525  0.5302 -0.3532
   69MOL   O12313859   3.304   4.755   0.367  0.2153 -0.0453  0.1931
   69MOL   C12413860   3.421   4.624   0.214 -0.2750 -0.3833  0.4094
   69MOL   C12513861   3.456   4.535   0.337 -0.8131  0.7419  0.4405
   69MOL   N12613862   3.535   4.417   0.316  0.4285  0.1782 -0.1732
   69MOL   H12713863   3.510   4.675   0.178  0.3244 -1.9456 -0.3684
   69MOL   H12813864   3.386   4.564   0.130 -2.2795  2.6977 -1.0726
   69MOL   H12913865   3.506   4.599   0.410 -0.2522 -0.9756  1.5737
   69MOL   H13013866   3.364   4.505   0.386 -1.7609  2.4520 -0.2232
   69MOL   H13113867   3.525   4.368   0.228  2.1784  1.8387 -1.3557
   69MOL   C13213868   3.642   4.391   0.387 -0.1729 -0.2423 -0.2646
   69MOL   O13313869   3.661   4.445   0.494  0.5284  0.0762 -0.0018
   69MOL   C13413870   3.731   4.279   0.333 -0.1532 -0.1732  0.0078
   69MOL   C13513871   3.862   4.337   0.289 -0.0316  0.0487  0.5257
   69MOL   N13613872   3.856   4.460   0.205 -0.7044 -0.0454 -0.1751
   69MOL   H13713873   3.687   4.222   0.251  0.3468 -1.0886  0.3710
   69MOL   H13813874   3.741   4.198   0.405  1.0624  0.8969  1.0344
   69MOL   H13913875   3.926   4.358   0.375  0.6239  1.2749 -0.2422
   69MOL   H14013876   3.917   4.255   0.243 -0.4050 -1.7596  3.1997
   69MOL   H14113877   3.830   4.547   0.249  1.6972  0.9072 -0.5620
   69MOL   C14213878   3.881   4.457   0.074  0.6436  0.0982  0.5544
   69MOL   O14313879   3.919   4.357   0.016  0.3267  0.2604 -0.1480
   69MOL   C14413880   3.875   4.593   7.780  0.1361 -0.0229 -0.1169
   69MOL   C14513881   3.974   4.602   7.667  0.5479 -0.7342  0.3805
   69MOL   N14613882   3.936   4.706   7.577 -0.0233  0.2087 -0.4834
   69MOL   H14713883   3.881   4.678   0.068 -0.8948  0.3718 -0.5114
   69MOL   H14813884   3.781   4.591   7.725  0.1202 -0.6979 -0.0663
   69MOL   H14913885   4.075   4.623   7.705  0.3285 -0.4459  0.8116
   69MOL   H15013886   3.988   4.512   7.607 -0.8939 -0.3101 -0.5956
   69MOL   H15113887   3.849   4.753   7.595 -1.0368 -1.6062 -0.4612
   69MOL   C15213888   4.014   4.764   7.486 -0.4502  0.3109  0.3019
   69MOL   O15313889   4.126   4.723   7.457 -0.3693  0.0425 -0.2970
   69MOL   C15413890   3.958   4.875   7.395  0.1237  0.0417  0.0697
   69MOL   C15513891   3.818   4.848   7.322 -0.5396 -0.3830 -0.2825
   69MOL   N15613892   3.706   4.923   7.378 -0.0547  0.0055 -0.1742
   69MOL   H15713893   4.040   4.901   7.328  1.0678 -0.4758  1.0124
   69MOL   H15813894   3.943   4.963   7.458 -0.7346 -0.5324  0.6808
   69MOL   H15913895   3.837   4.862   7.216  0.3185  1.3385  0.0829
   69MOL   H16013896   3.801   4.740   7.320  2.1805 -0.8459 -0.0340
   69MOL   H16113897   3.690   5.017   7.344 -1.4376  0.3275  1.3244
   69MOL   C16213898   3.633   4.879   7.487 -0.3041  0.0625 -0.6363
   69MOL   O16313899   3.636   4.759   7.531  0.2642 -0.3500  0.0300
   69MOL   C16413900   3.539   4.985   7.551  0.1831  0.3031  0.4208
   69MOL   C16513901   3.472   4.948   7.682  0.2897  0.2312 -0.5978
   69MOL   N16613902   3.564   4.950   0.018 -0.1951  0.0362 -0.1849
   69MOL   H16713903   3.461   5.004   7.476  1.1135  0.3548 -0.5504
   69MOL   H16813904   3.594   5.078   7.566  0.0754  0.3156  0.7422
   69MOL   H16913905   3.388   5.016   7.694 -0.6125 -0.4317 -2.7642
   69MOL   H17013906   3.422   4.852   7.666 -1.4386  1.1195 -0.6321
   69MOL   H17113907   3.601   4.860   0.044  0.2202  0.4084  0.5020
   69MOL   C17213908   3.589   5.051   0.102 -0.4251 -0.0185 -0.1556
   69MOL   O17313909   3.529   5.157   0.101 -0.2710  0.1000  0.4002
   69MOL   C17413910   3.709   5.028   0.200  0.2320 -0.0694  0.1792
   69MOL   C17513911   3.653   4.974   0.333 -0.3070 -0.7737 -0.1553
   69MOL   N17613912   3.745   4.913   0.421  0.8325 -0.0879 -0.0699
   69MOL   H17713913   3.758   5.123   0.224 -2.0492  1.2072 -0.0372
   69MOL   H17813914   3.789   4.962   0.170  0.3315 -0.5887  1.5573
   69MOL   H17913915   3.595   5.039   0.399  0.4045 -0.0844 -0.2093
   69MOL   H18013916   3.577   4.899   0.312  0.9577 -1.7767 -1.2333
   69MOL   H18113917   3.770   4.982   0.491  0.3835 -1.1248  1.1380
   69MOL   C18213918   3.802   4.794   0.406 -0.0764 -0.3232 -0.0771
   69MOL   O18313919   3.783   4.718   0.312 -0.5893 -0.1732 -0.3540
   69MOL   C18413920   3.887   4.744   0.521  0.2606  0.7909 -0.2393
   69MOL   C18513921   4.029   4.689   0.491 -0.2710 -0.6561 -0.2594
   69MOL   N18613922   4.103   4.651   0.607 -0.8726  0.4478  0.4834
   69MOL   H18713923   3.820   4.662   0.547 -0.4019  0.4459 -2.9110
   69MOL   H18813924   3.890   4.819   0.601  1.8403 -0.9010  1.3553
   69MOL   H18913925   4.023   4.605   0.421  0.0475 -1.2422  0.4162
   69MOL   H19013926   4.089   4.766   0.441  0.2007  0.6905  2.2930
   69MOL   H19113927   4.066   4.670   0.700  0.3764  0.5037  0.9761
   69MOL   C19213928   4.234   4.621   0.612 -0.3910  0.0861 -0.2033
   69MOL   O19313929   4.300   4.604   0.509  0.2567 -0.0377 -0.3458
   69MOL   C19413930   4.300   4.596   0.753 -0.6483 -0.8023  0.1591
   69MOL   C19513931   4.432   4.656   0.790 -0.0661  0.0727  0.2729
   69MOL   N19613932   4.438   4.798   0.825  0.4025 -0.2693  0.4283
   69MOL   H19713933   4.230   4.623   0.832  0.0928 -0.5449  0.7322
   69MOL   H19813934   4.314   4.488   0.752 -0.4484 -0.8053  1.7710
   69MOL   H19913935   4.470   4.599   0.875 -1.3868 -1.8859 -0.4271
   69MOL   H20013936   4.493   4.637   0.702  2.3269 -2.4785  2.3824
   69MOL   H20113937   4.530   4.827   0.855 -1.1481  1.3170  3.8829
   69MOL   H20213938   4.395   4.814   0.915 -0.0906  0.8828 -0.0098
   70MOL     C113939   5.160   4.348   1.036 -0.4639 -0.4100 -0.1122
   70MOL     O213940   5.249   4.269   1.013  0.3278  0.1195  0.0037
   70MOL     C313941   5.037   4.305   1.123 -0.0650 -1.2962 -0.2154
   70MOL     C413942   5.007   4.397   1.244  0.0410  0.0636 -0.4734
   70MOL     N513943   4.884   4.360   1.314 -0.0991  0.3322  0.2766
   70MOL     H613944   5.060   4.211   1.173 -0.4583 -0.6999  1.0978
   70MOL     H713945   4.950   4.285   1.060  0.0630 -0.2826 -0.7194
   70MOL     H813946   4.992   4.498   1.205 -0.6070 -0.7705 -2.4570
   70MOL     H913947   5.096   4.402   1.306  0.7668 -2.1060 -1.2970
   70MOL    H1013948   4.824   4.302   1.257 -1.5852  1.6983  0.4033
   70MOL    H1113949   5.164   4.450   0.999  0.6668 -0.2836  0.3428
   70MOL    C1213950   4.835   4.389   1.432  0.1313 -0.0269 -0.3496
   70MOL    O1313951   4.899   4.464   1.504  0.1406  0.1547  0.5101
   70MOL    C1413952   4.693   4.339   1.472  0.0012  0.1743  1.0112
   70MOL    C1513953   4.667   4.368   1.615 -0.2169  0.5788 -0.2503
   70MOL    N1613954   4.648   4.515   1.638 -0.1033 -0.1007  0.2855
   70MOL    H1713955   4.681   4.232   1.455 -1.2530  0.4155  0.3322
   70MOL    H1813956   4.615   4.386   1.412  0.8082  0.1123 -0.0983
   70MOL    H1913957   4.589   4.303   1.654  2.0365 -2.6051 -0.8219
   70MOL    H2013958   4.756   4.344   1.673 -1.4327 -1.6286  0.7281
   70MOL    H2113959   4.686   4.580   1.570  0.0550 -1.1978 -0.6774
   70MOL    C2213960   4.580   4.575   1.738 -0.0689 -0.6059 -0.2510
   70MOL    O2313961   4.528   4.505   1.828  0.0959  0.0554  0.1425
   70MOL    C2413962   4.558   4.721   1.736  0.2892 -0.1557 -0.6857
   70MOL    C2513963   4.626   4.801   1.847 -0.0810 -0.6197  0.1606
   70MOL    N2613964   4.772   4.785   1.855  0.0356  0.2381  0.1399
   70MOL    H2713965   4.456   4.753   1.718  0.4727  1.3560  0.8826
   70MOL    H2813966   4.617   4.760   1.653 -0.2503  0.7583 -0.6442
   70MOL    H2913967   4.594   4.906   1.851 -0.7937 -0.8093 -0.3388
   70MOL    H3013968   4.590   4.771   1.945  0.4363  0.8886  0.8291
   70MOL    H3113969   4.807   4.692   1.837 -3.7768 -1.2509 -0.1471
   70MOL    C3213970   4.857   4.875   1.900 -0.4280 -0.2959 -0.1836
   70MOL    O3313971   4.829   4.983   1.949  0.3583 -0.0944 -0.4280
   70MOL    C3413972   5.001   4.819   1.906  0.2342  0.6674  0.0948
   70MOL    C3513973   5.093   4.897   2.006  0.0454  0.4073 -0.3529
   70MOL    N3613974   5.231   4.854   2.004 -0.5804  0.1614  0.3895
   70MOL    H3713975   5.044   4.839   1.807  1.2001  1.7899  0.7301
   70MOL    H3813976   4.997   4.713   1.930 -1.3012  0.0222 -2.7481
   70MOL    H3913977   5.095   5.001   1.975  0.2944  0.7145  0.6837
   70MOL    H4013978   5.041   4.894   2.101  0.3149  2.3197 -0.1264
   70MOL    H4113979   5.297   4.921   1.966  0.5355 -0.7629  0.6682
   70MOL    C4213980   5.276   4.736   2.053  0.0859 -0.5863  0.4682
   70MOL    O4313981   5.193   4.655   2.105 -0.0770  0.1218  0.0866
   70MOL    C4413982   5.425   4.711   2.034 -0.2425  0.4249  0.5688
   70MOL    C4513983   5.462   4.568   2.018 -0.0710 -0.1062 -0.0600
   70MOL    N4613984   5.601   4.547   1.963  0.0232  0.4511 -0.1003
   70MOL    H4713985   5.446   4.753   1.936  2.8041  0.1705  1.0460
   70MOL    H4813986   5.493   4.760   2.104  0.5495  3.1673 -2.0025
   70MOL    H4913987   5.468   4.519   2.115 -1.7299 -0.7068 -0.2520
   70MOL    H5013988   5.384   4.516   1.963  0.3266  0.0298 -0.7607
   70MOL    H5113989   5.682   4.565   2.020  1.2285 -0.0054 -1.6484
   70MOL    C5213990   5.626   4.482   1.848 -0.4832  0.9832 -0.5072
   70MOL    O5313991   5.537   4.465   1.764  0.4790  0.5804  0.2621
   70MOL    C5413992   5.767   4.447   1.814  0.1295 -0.4781 -0.5760
   70MOL    C5513993   5.769   4.331   1.706 -0.1560 -0.3432  0.6500
   70MOL    N5613994   5.898   4.267   1.692 -0.2223  0.4959  0.6242
   70MOL    H5713995   5.825   4.532   1.778  1.8947 -0.4745  2.0807
   70MOL    H5813996   5.813   4.422   1.910  0.7050  3.0573  0.1537
   70MOL    H5913997   5.743   4.379   1.611 -1.1538  0.2971  1.2397
   70MOL    H6013998   5.688   4.259   1.722 -1.6259  0.6781 -1.8667
   70MOL    H6113999   5.953   4.287   1.609  1.0651 -0.2003  1.3002
   70MOL    C6214000   5.948   4.166   1.764 -0.0334 -0.1981 -1.0154
   70MOL    O6314001   5.906   4.133   1.868 -0.2640  0.7826  0.1581
   70MOL    C6414002   6.066   4.090   1.699 -0.6850 -0.7386  0.6077
   70MOL    C6514003   6.020   3.991   1.596  0.6258 -0.1997  0.5618
   70MOL    N6614004   5.936   3.877   1.634 -0.6673 -0.1143  0.8226
   70MOL    H6714005   6.140   4.161   1.663 -1.5640  0.4785  1.1334
   70MOL    H6814006   6.115   4.037   1.781  0.6632 -0.8761 -0.2809
   70MOL    H6914007   5.970   4.046   1.517  0.4795  1.0755  1.5337
   70MOL    H7014008   6.108   3.952   1.544 -0.9217  0.6046 -2.7675
   70MOL    H7114009   5.977   3.790   1.665  0.9325  0.3759  0.1358
   70MOL    C7214010   5.811   3.859   1.599  0.1092 -0.4608  0.5116
   70MOL    O7314011   5.744   3.949   1.545 -0.5724 -0.0267  0.0324
   70MOL    C7414012   5.745   3.726   1.626  0.3197  0.9839 -0.5033
   70MOL    C7514013   5.593   3.717   1.638 -0.1278  0.4639 -0.0129
   70MOL    N7614014   5.554   3.579   1.629  0.0041 -0.2183  0.4554
   70MOL    H7714015   5.773   3.677   1.533  2.4108  2.3363 -0.6218
   70MOL    H7814016   5.804   3.684   1.707 -1.0486  0.0810  0.0375
   70MOL    H7914017   5.542   3.747   1.730  0.0104 -0.6233  0.4228
   70MOL    H8014018   5.559   3.784   1.560  1.9169  0.7808 -0.6653
   70MOL    H8114019   5.555   3.518   1.710  1.5314 -0.0836  0.5534
   70MOL    C8214020   5.507   3.525   1.513  0.1942  0.6034 -0.1073
   70MOL    O8314021   5.509   3.590   1.408  0.1489  0.4287  0.5069
   70MOL    C8414022   5.443   3.383   1.518 -0.4115 -0.2447 -0.3678
   70MOL    C8514023   5.520   3.287   1.428  0.2374 -0.3147 -0.0998
   70MOL    N8614024   5.450   3.169   1.383 -0.7508  0.2332 -0.7534
   70MOL    H8714025   5.439   3.341   1.619 -2.1538 -1.0816 -0.7744
   70MOL    H8814026   5.342   3.382   1.477 -0.3000 -0.6861 -0.6338
   70MOL    H8914027   5.544   3.339   1.335  1.2050 -2.1524 -0.8938
   70MOL    H9014028   5.617   3.256   1.466  0.8598 -0.1282 -1.5033
   70MOL    H9114029   5.383   3.126   1.445  0.1338 -1.5053 -0.9887
   70MOL    C9214030   5.489   3.096   1.277  0.3811 -0.3914 -0.4418
   70MOL    O9314031   5.577   3.139   1.204  0.0366 -0.4280 -0.0160
   70MOL    C9414032   5.421   2.964   1.242 -0.3912  0.2967 -0.2724
   70MOL    C9514033   5.391   2.960   1.092  0.0305  0.2061  0.1851
   70MOL    N9614034   5.272   2.887   1.060 -0.4112 -0.0353  0.0597
   70MOL    H9714035   5.491   2.884   1.264  0.5131  0.4230 -2.5572
   70MOL    H9814036   5.331   2.956   1.302  0.2377  1.3119  0.8191
   70MOL    H9914037   5.378   3.059   1.049  0.5850  1.0065  1.8416
   70MOL   H10014038   5.480   2.911   1.051 -0.3137 -0.0083 -0.3142
   70MOL   H10114039   5.274   2.789   1.034 -0.9187 -1.2241  4.0828
   70MOL   C10214040   5.150   2.945   1.060 -0.0192  0.2688  0.4554
   70MOL   O10314041   5.137   3.059   1.096 -0.7801 -0.4424  0.6511
   70MOL   C10414042   5.036   2.863   0.997 -0.1459 -0.6337 -0.0892
   70MOL   C10514043   4.913   2.837   1.089  0.0114 -0.0752 -0.0167
   70MOL   N10614044   4.911   2.700   1.136 -0.7810 -0.3981  0.1089
   70MOL   H10714045   5.082   2.778   0.946 -0.6112  0.1077 -1.7885
   70MOL   H10814046   4.997   2.920   0.912 -0.3820 -0.7111 -0.0351
   70MOL   H10914047   4.912   2.906   1.172  2.3566 -1.8129  1.5295
   70MOL   H11014048   4.826   2.853   1.025 -1.2799  0.5851  1.8681
   70MOL   H11114049   4.898   2.625   1.069  1.6030 -0.8934  0.1897
   70MOL   C11214050   4.923   2.671   1.263 -0.5122  0.2716 -0.4754
   70MOL   O11314051   4.918   2.761   1.347 -0.4026 -0.4712  0.3353
   70MOL   C11414052   4.936   2.535   1.307 -0.2576  0.0059 -0.2625
   70MOL   C11514053   4.906   2.509   1.456  0.1469 -0.5656  0.3181
   70MOL   N11614054   4.878   2.366   1.483  1.2759  0.2208  0.2343
   70MOL   H11714055   5.025   2.481   1.277 -1.1357 -0.5779 -1.8556
   70MOL   H11814056   4.855   2.482   1.257 -1.1303  0.3669  0.7272
   70MOL   H11914057   4.987   2.550   1.517  1.7136  1.1196 -2.7781
   70MOL   H12014058   4.821   2.571   1.485  1.3176  0.2360  2.0785
   70MOL   H12114059   4.955   2.300   1.491 -0.7709 -2.0329  2.2983
   70MOL   C12214060   4.756   2.315   1.513  0.3733  0.3522  0.1950
   70MOL   O12314061   4.657   2.383   1.540 -0.2997 -0.0816 -0.0445
   70MOL   C12414062   4.740   2.165   1.520  0.2041 -0.4565  0.7318
   70MOL   C12514063   4.668   2.119   1.393  0.7533 -0.2470 -0.2548
   70MOL   N12614064   4.523   2.103   1.408  0.2114 -0.8823  0.8482
   70MOL   H12714065   4.682   2.124   1.602  0.3909 -0.4776  0.8515
   70MOL   H12814066   4.842   2.126   1.519  0.5871  0.5095 -0.8488
   70MOL   H12914067   4.685   2.180   1.304 -1.2052 -0.9245 -1.1063
   70MOL   H13014068   4.719   2.026   1.369 -0.4305 -0.8268 -0.5441
   70MOL   H13114069   4.484   2.084   1.499 -1.1549 -0.4245  0.3604
   70MOL   C13214070   4.431   2.127   1.317  0.7337 -0.2057 -0.6049
   70MOL   O13314071   4.459   2.153   1.199  0.2429  0.2291 -0.2199
   70MOL   C13414072   4.285   2.102   1.362 -0.0943  0.0159  0.8431
   70MOL   C13514073   4.180   2.163   1.264 -0.5293  0.1077 -0.3701
   70MOL   N13614074   4.061   2.207   1.339 -0.5241  0.4713  0.7914
   70MOL   H13714075   4.269   2.166   1.448 -1.5096  0.8597 -0.0338
   70MOL   H13814076   4.258   2.000   1.390 -3.8452  0.3311 -1.2834
   70MOL   H13914077   4.228   2.242   1.207 -2.0603  0.8163 -0.7123
   70MOL   H14014078   4.141   2.084   1.200  0.1297  0.1251 -0.7927
   70MOL   H14114079   4.080   2.217   1.438 -2.1195  0.6598  1.1029
   70MOL   C14214080   3.939   2.233   1.288  0.0340  0.5984 -0.0449
   70MOL   O14314081   3.912   2.219   1.167  0.0854  0.3255 -0.3797
   70MOL   C14414082   3.829   2.282   1.387  0.1443  0.3556  0.1415
   70MOL   C14514083   3.692   2.301   1.326  0.0212  0.6512  0.0319
   70MOL   N14614084   3.687   2.433   1.262 -0.1354 -0.5494  0.1943
   70MOL   H14714085   3.870   2.373   1.431  1.3100  0.5879 -1.3857
   70MOL   H14814086   3.831   2.214   1.472  1.5276 -1.1010 -1.0204
   70MOL   H14914087   3.676   2.227   1.247 -2.0943  2.0215 -0.8512
   70MOL   H15014088   3.619   2.303   1.406  0.4468  1.9378  0.4016
   70MOL   H15114089   3.773   2.486   1.268  0.1427 -0.7908 -1.3876
   70MOL   C15214090   3.597   2.496   1.191  1.3172  0.3202  0.4065
   70MOL   O15314091   3.476   2.454   1.190  0.7683 -0.2953 -0.6926
   70MOL   C15414092   3.640   2.615   1.116 -0.3045 -0.3330  0.3450
   70MOL   C15514093   3.622   2.611   0.958  0.0682  0.8688 -0.7083
   70MOL   N15614094   3.675   2.491   0.897 -0.8174 -0.7348 -0.1887
   70MOL   H15714095   3.742   2.640   1.146 -1.1766  2.7843  0.8464
   70MOL   H15814096   3.584   2.702   1.150 -0.4710  0.6536 -2.3065
   70MOL   H15914097   3.515   2.613   0.939 -0.3941 -0.3332  1.5543
   70MOL   H16014098   3.661   2.701   0.912 -1.6849  2.6102  1.0731
   70MOL   H16114099   3.608   2.426   0.857  0.4855 -1.9875 -0.3809
   70MOL   C16214100   3.803   2.479   0.864 -0.5779  0.5518 -0.2604
   70MOL   O16314101   3.879   2.566   0.898 -1.0039  0.0062  0.1517
   70MOL   C16414102   3.841   2.360   0.770 -0.0528 -0.2503 -0.1279
   70MOL   C16514103   3.938   2.256   0.830  0.8444 -0.3619 -0.2375
   70MOL   N16614104   3.886   2.151   0.910  0.0229 -0.6811  0.2758
   70MOL   H16714105   3.898   2.401   0.686 -2.0606 -1.5311 -2.1801
   70MOL   H16814106   3.753   2.314   0.726 -1.6364  0.6642  2.0345
   70MOL   H16914107   3.980   2.217   0.737  0.7224  2.5394 -1.5722
   70MOL   H17014108   4.018   2.305   0.887  0.3672  0.2669 -0.1036
   70MOL   H17114109   3.893   2.167   1.009 -0.6658  0.4887  0.1405
   70MOL   C17214110   3.853   2.028   0.873  0.2632 -0.8361  0.1688
   70MOL   O17314111   3.840   1.987   0.755 -0.2450 -0.1500 -0.0752
   70MOL   C17414112   3.821   1.931   0.987 -0.3096 -0.7599 -0.3754
   70MOL   C17514113   3.702   1.845   0.964 -0.7200  0.0937 -0.9664
   70MOL   N17614114   3.583   1.934   0.939 -0.5824  0.5631  0.1788
   70MOL   H17714115   3.801   1.989   1.077  2.8275  3.1135 -1.9820
   70MOL   H17814116   3.910   1.875   1.016 -0.0697 -0.7386 -1.0642
   70MOL   H17914117   3.730   1.776   0.885  1.5404  0.2933 -0.3888
   70MOL   H18014118   3.676   1.780   1.048 -0.4500  1.0799 -0.1025
   70MOL   H18114119   3.590   1.967   0.844  2.1180 -2.0075 -0.5955
   70MOL   C18214120   3.516   2.015   1.024 -0.0253  1.1359  1.1278
   70MOL   O18314121   3.516   1.980   1.140 -0.5325  0.2358 -0.1133
   70MOL   C18414122   3.473   2.150   0.961  0.7130  0.0231  0.3968
   70MOL   C18514123   3.329   2.195   1.005 -0.4014 -0.1574 -0.2060
   70MOL   N18614124   3.218   2.098   1.009  0.4805  0.0922 -0.2024
   70MOL   H18714125   3.474   2.142   0.852  1.0543 -0.1693  0.4116
   70MOL   H18814126   3.545   2.224   0.997  1.2097  0.2112 -0.9328
   70MOL   H18914127   3.322   2.241   1.104  1.2518  1.1716 -0.6797
   70MOL   H19014128   3.306   2.276   0.935  1.9503  0.9463  0.2288
   70MOL   H19114129   3.230   1.997   1.005  0.3737  0.1164 -1.7120
   70MOL   C19214130   3.092   2.133   1.013 -0.5517 -0.0898 -0.0096
   70MOL   O19314131   3.058   2.238   0.973 -0.4820  0.1932  0.3162
   70MOL   C19414132   2.989   2.024   1.065 -0.1749 -0.8617 -0.3012
   70MOL   C19514133   2.884   2.081   1.157 -0.3467 -1.0692 -0.3227
   70MOL   N19614134   2.794   2.169   1.087  1.0090 -0.3270 -0.1701
   70MOL   H19714135   2.934   1.983   0.980 -1.2355 -1.9811  0.8967
   70MOL   H19814136   3.042   1.939   1.108  0.2315 -0.2554  0.3874
   70MOL   H19914137   2.832   2.008   1.220 -1.0422 -1.1510 -0.9859
   70MOL   H20014138   2.927   2.140   1.238 -0.0668  0.5314 -1.6231
   70MOL   H20114139   2.772   2.245   1.150  4.9365  0.3931  0.4625
   70MOL   H20214140   2.858   2.213   1.022  1.6161  1.8652  1.8553
   71MOL     C114141   5.280   1.598   0.755 -0.1319 -0.6658 -0.5736
   71MOL     O214142   5.188   1.563   0.821  0.1771 -0.4640  0.7603
   71MOL     C314143   5.345   1.736   0.767 -0.1401  0.5282 -0.1344
   71MOL     C414144   5.295   1.821   0.890 -0.0790 -0.2528 -0.1753
   71MOL     N514145   5.384   1.939   0.904  0.3108 -0.2009  0.0681
   71MOL     H614146   5.317   1.788   0.676 -1.5417  0.0948  0.0383
   71MOL     H714147   5.452   1.713   0.775 -0.3276  0.1552  1.4442
   71MOL     H814148   5.285   1.767   0.985  2.2286  0.2922  0.4176
   71MOL     H914149   5.191   1.834   0.859 -0.9829 -3.2295  1.3253
   71MOL    H1014150   5.456   1.946   0.974  0.7804 -0.4768 -0.3799
   71MOL    H1114151   5.324   1.529   0.682 -2.0238 -0.1938 -2.2060
   71MOL    C1214152   5.382   2.044   0.823  0.0242  0.0821 -0.6876
   71MOL    O1314153   5.298   2.055   0.730 -0.6708 -0.3151  0.0820
   71MOL    C1414154   5.469   2.165   0.869 -0.9151 -0.8143 -0.0686
   71MOL    C1514155   5.520   2.249   0.752  0.2934 -0.1969  0.2188
   71MOL    N1614156   5.663   2.216   0.716 -0.0766 -0.5628  0.2508
   71MOL    H1714157   5.552   2.123   0.926  0.9567  2.3169 -0.3667
   71MOL    H1814158   5.408   2.231   0.931  2.4914  2.2527  0.2232
   71MOL    H1914159   5.456   2.225   0.667 -0.6179  1.1776  0.5084
   71MOL    H2014160   5.521   2.357   0.764  1.9981 -0.1100 -0.5296
   71MOL    H2114161   5.689   2.163   0.634  1.2242  1.0490 -0.4052
   71MOL    C2214162   5.767   2.271   0.783  0.5690  0.3212 -0.4546
   71MOL    O2314163   5.742   2.351   0.877 -0.6522 -0.1224  0.1286
   71MOL    C2414164   5.912   2.250   0.727 -0.4039  0.0500 -0.4803
   71MOL    C2514165   6.029   2.255   0.826 -0.0063  1.0091  0.7108
   71MOL    N2614166   6.065   2.399   0.830  0.4980 -0.4674  0.6260
   71MOL    H2714167   5.925   2.306   0.635  1.5526  1.0380  0.3717
   71MOL    H2814168   5.920   2.147   0.690 -2.0515 -1.3254  2.7293
   71MOL    H2914169   6.003   2.221   0.926  0.6053  1.4600  1.0175
   71MOL    H3014170   6.114   2.195   0.793  1.3182  3.1430  0.1471
   71MOL    H3114171   5.992   2.464   0.853  1.2801  0.0143  1.8400
   71MOL    C3214172   6.193   2.444   0.817  0.1663 -0.2364  0.3401
   71MOL    O3314173   6.288   2.377   0.788  0.3311 -0.0049  0.2434
   71MOL    C3414174   6.202   2.596   0.839 -0.8866 -1.0104  0.0608
   71MOL    C3514175   6.259   2.681   0.714 -0.0004  0.4100 -0.4760
   71MOL    N3614176   6.401   2.663   0.702  0.4964  0.0554 -0.3054
   71MOL    H3714177   6.266   2.619   0.924 -0.1239 -0.5827 -0.6286
   71MOL    H3814178   6.102   2.635   0.859 -0.6245  0.4503 -1.3754
   71MOL    H3914179   6.213   2.645   0.622  0.4549  0.8694 -0.8834
   71MOL    H4014180   6.222   2.783   0.718  0.7601  0.7676 -2.1124
   71MOL    H4114181   6.454   2.598   0.760  0.7798 -0.3318 -0.9967
   71MOL    C4214182   6.478   2.758   0.654  0.0168 -0.6234 -0.1858
   71MOL    O4314183   6.443   2.847   0.580 -0.4328  0.0281 -0.2847
   71MOL    C4414184   6.629   2.761   0.693  0.1596 -0.7781 -0.0640
   71MOL    C4514185   6.676   2.901   0.740  0.4679  0.0366  0.5691
   71MOL    N4614186   6.819   2.908   0.730  0.4910  0.0088 -0.3518
   71MOL    H4714187   6.657   2.674   0.753  0.4689 -0.7779 -0.2079
   71MOL    H4814188   6.674   2.732   0.598 -0.6554  1.2227 -1.0731
   71MOL    H4914189   6.633   2.985   0.687  1.2860  0.5408  0.6861
   71MOL    H5014190   6.649   2.913   0.845 -0.3461 -0.7167  0.4467
   71MOL    H5114191   6.865   2.835   0.678 -1.2504 -1.2179 -0.2150
   71MOL    C5214192   6.907   2.984   0.800  0.7178 -0.6903 -0.2232
   71MOL    O5314193   6.872   3.078   0.866  0.1684 -0.2937 -0.0396
   71MOL    C5414194   7.058   2.933   0.808 -0.3824  0.0771  0.7639
   71MOL    C5514195   7.119   2.975   0.945 -0.0785  0.0702  0.3499
   71MOL    N5614196   7.236   2.897   0.975  0.4381  0.2344 -0.2428
   71MOL    H5714197   7.057   2.824   0.807  2.7635 -0.0016  0.6235
   71MOL    H5814198   7.102   2.974   0.717 -0.0327  0.5343  1.1319
   71MOL    H5914199   7.055   2.947   1.028  2.6679 -2.8199  1.5704
   71MOL    H6014200   7.136   3.081   0.962  0.1714 -0.0222  0.6768
   71MOL    H6114201   7.229   2.805   1.017 -1.0906  1.1954  1.6497
   71MOL    C6214202   7.359   2.929   0.937  0.1154 -0.4908  0.1445
   71MOL    O6314203   7.378   3.022   0.860  0.2218 -0.3485 -0.3442
   71MOL    C6414204   7.480   2.839   0.975  0.0539 -0.1793 -0.9632
   71MOL    C6514205   7.525   2.752   0.863  0.0444  0.0309  0.8067
   71MOL    N6614206   7.620   2.648   0.904 -0.1268 -0.6876  0.3336
   71MOL    H6714207   7.562   2.907   0.999 -0.5386  0.8410 -1.8187
   71MOL    H6814208   7.455   2.777   1.062  2.4877  0.4818  0.2471
   71MOL    H6914209   7.449   2.692   0.812 -0.3603 -0.6521  2.1878
   71MOL    H7014210   7.577   2.800   0.780  0.6965  0.4249  1.4376
   71MOL    H7114211   7.620   2.611   0.998  0.3246  0.8251  0.9396
   71MOL    C7214212   7.695   2.586   0.813 -0.0232  0.0735 -0.2141
   71MOL    O7314213   7.691   2.612   0.693 -0.3189 -0.1101 -0.0407
   71MOL    C7414214   0.005   2.485   0.877  0.3189 -0.2048 -0.4207
   71MOL    C7514215   0.091   2.411   0.779 -0.5766 -0.0410 -0.0375
   71MOL    N7614216   0.021   2.309   0.700  0.0386 -0.0806 -0.2159
   71MOL    H7714217   0.062   2.539   0.953 -2.0769 -0.8929  1.9672
   71MOL    H7814218   7.715   2.425   0.935  0.0353  0.9417  0.4536
   71MOL    H7914219   0.143   2.486   0.719 -0.6370 -1.3855 -1.7874
   71MOL    H8014220   0.165   2.369   0.847  1.6355  0.8227 -1.8281
   71MOL    H8114221   7.700   2.314   0.699 -0.0004 -0.7859  0.3495
   71MOL    C8214222   0.088   2.212   0.636  1.0209  0.3463  0.0754
   71MOL    O8314223   0.208   2.180   0.651  0.5252  0.3163 -0.5318
   71MOL    C8414224   7.767   2.129   0.547  0.0135 -0.2040  0.4390
   71MOL    C8514225   7.747   1.995   0.614 -0.5016  0.2662 -0.0313
   71MOL    N8614226   0.097   1.926   0.621  0.0075  0.5743  0.1012
   71MOL    H8714227   7.669   2.176   0.545 -0.6979 -1.6797 -1.7355
   71MOL    H8814228   0.023   2.108   0.447  0.2842 -2.8566  1.0549
   71MOL    H8914229   7.697   1.997   0.710  1.0068  0.4519  0.7619
   71MOL    H9014230   7.690   1.931   0.547 -1.0479 -0.7663  1.3940
   71MOL    H9114231   0.177   1.986   0.626 -0.4314  1.0123  2.0997
   71MOL    C9214232   0.112   1.796   0.626 -0.7167 -0.3745 -0.0033
   71MOL    O9314233   0.016   1.723   0.655  0.2588  0.1432 -0.1311
   71MOL    C9414234   0.256   1.744   0.631  0.5193  0.1933 -0.6632
   71MOL    C9514235   0.305   1.733   0.779 -0.7573 -0.3366 -0.3916
   71MOL    N9614236   0.296   1.864   0.846  0.3040  0.7003 -0.1291
   71MOL    H9714237   0.257   1.649   0.579  1.3288 -0.4379  0.4918
   71MOL    H9814238   0.309   1.810   0.563  0.8062  0.0483 -0.5808
   71MOL    H9914239   0.251   1.658   0.837 -0.8930  1.8148  2.3578
   71MOL   H10014240   0.406   1.694   0.777 -0.5049  0.3336 -2.7247
   71MOL   H10114241   0.214   1.887   0.901 -0.7441 -1.0463 -0.9293
   71MOL   C10214242   0.383   1.965   0.841  1.1954 -0.3632 -0.0778
   71MOL   O10314243   0.483   1.977   0.776  0.6061 -0.0434  0.0978
   71MOL   C10414244   0.334   2.073   0.937  0.0621  0.5414  0.0026
   71MOL   C10514245   0.425   2.203   0.955  0.3233  0.5324  0.3062
   71MOL   N10614246   0.426   2.295   0.840  0.7987  0.2500  0.0910
   71MOL   H10714247   0.311   2.041   1.038  0.4111  1.2717  0.3144
   71MOL   H10814248   0.235   2.104   0.902 -0.4520 -1.5062 -0.4050
   71MOL   H10914249   0.390   2.250   1.047 -0.3347 -0.8406  0.7703
   71MOL   H11014250   0.529   2.175   0.970  0.3839  1.2584  1.2545
   71MOL   H11114251   0.451   2.252   0.753 -0.1584 -0.7372  0.2894
   71MOL   C11214252   0.424   2.432   0.853 -0.2336 -0.4840  0.2528
   71MOL   O11314253   0.402   2.498   0.958  0.2915 -0.2120  0.9713
   71MOL   C11414254   0.464   2.508   0.729  0.2675 -0.0118  0.1819
   71MOL   C11514255   0.536   2.645   0.735  1.0442  0.1656  0.4728
   71MOL   N11614256   0.659   2.644   0.823  0.5112  0.1542  0.7410
   71MOL   H11714257   0.376   2.520   0.665  0.0657  2.2895  0.8656
   71MOL   H11814258   0.543   2.454   0.678  0.4619 -0.0020  0.4737
   71MOL   H11914259   0.569   2.665   0.633 -2.3149 -0.4294 -0.7904
   71MOL   H12014260   0.468   2.720   0.775  0.3966  0.1055 -0.5264
   71MOL   H12114261   0.641   2.634   0.922 -2.0013 -0.2598  0.2582
   71MOL   C12214262   0.781   2.658   0.779 -0.0195 -0.3542  0.5273
   71MOL   O12314263   0.812   2.667   0.661  0.4345 -0.0601 -0.1067
   71MOL   C12414264   0.885   2.658   0.890 -0.1296 -0.7454 -0.5349
   71MOL   C12514265   0.986   2.774   0.888  0.4322 -0.2192  0.6337
   71MOL   N12614266   1.092   2.760   0.989 -0.3323 -1.1256 -0.5812
   71MOL   H12714267   0.946   2.569   0.876  1.7576  0.8300 -2.6833
   71MOL   H12814268   0.843   2.654   0.991 -0.4884  1.2380 -0.5779
   71MOL   H12914269   1.024   2.759   0.787  0.2301  0.7796  0.4069
   71MOL   H13014270   0.942   2.874   0.887 -0.2472 -0.5173 -0.2293
   71MOL   H13114271   1.184   2.742   0.951 -0.8137  0.1787 -2.4384
   71MOL   C13214272   1.081   2.789   1.115 -0.8667  0.0218  0.1048
   71MOL   O13314273   0.988   2.853   1.165 -0.1375 -0.0424 -0.4463
   71MOL   C13414274   1.201   2.748   1.201 -0.2763  0.4901  0.1344
   71MOL   C13514275   1.288   2.856   1.238  0.1499  0.6730 -0.0803
   71MOL   N13614276   1.374   2.899   1.129  0.0120  0.8925 -0.2177
   71MOL   H13714277   1.247   2.659   1.159 -2.9800 -1.5934  1.3614
   71MOL   H13814278   1.164   2.714   1.298  1.1175  0.4155  0.6507
   71MOL   H13914279   1.226   2.943   1.256  1.6018  2.1549 -1.9721
   71MOL   H14014280   1.347   2.826   1.324 -0.7463 -1.2038 -0.1084
   71MOL   H14114281   1.359   2.983   1.076  1.9566  2.6384  1.8911
   71MOL   C14214282   1.492   2.839   1.104 -0.4696  0.1093  0.1962
   71MOL   O14314283   1.538   2.748   1.166 -0.1291  0.3060  0.9336
   71MOL   C14414284   1.580   2.902   0.994 -0.7866 -0.2481  1.2516
   71MOL   C14514285   1.711   2.830   0.965  1.1203 -0.8734  0.6620
   71MOL   N14614286   1.816   2.920   0.939 -1.0725 -0.0296 -0.3641
   71MOL   H14714287   1.604   3.005   1.022  1.1525 -0.5607  0.8562
   71MOL   H14814288   1.516   2.909   0.907  0.9341  2.4687  0.1164
   71MOL   H14914289   1.749   2.766   1.044  2.9624  1.4308  1.6963
   71MOL   H15014290   1.698   2.768   0.876  0.6871 -0.3551  0.3603
   71MOL   H15114291   1.882   2.942   1.013  0.0379 -1.7588 -0.7970
   71MOL   C15214292   1.840   2.973   0.824  0.1401 -0.9774 -1.0334
   71MOL   O15314293   1.765   2.965   0.725 -0.4679 -0.6090  0.3136
   71MOL   C15414294   1.969   3.051   0.815 -0.5608  0.1751 -0.3499
   71MOL   C15514295   1.945   3.193   0.755  0.1084 -0.4951  0.7258
   71MOL   N15614296   1.846   3.272   0.841 -0.5678 -0.1654  0.4365
   71MOL   H15714297   2.035   2.982   0.764 -0.8226 -0.8948  0.7311
   71MOL   H15814298   2.003   3.067   0.918 -0.1326 -2.1191 -0.1079
   71MOL   H15914299   2.039   3.248   0.762 -0.0930  0.1472 -1.3557
   71MOL   H16014300   1.910   3.195   0.652 -0.1834  1.8698  0.8299
   71MOL   H16114301   1.747   3.252   0.832 -0.6903  1.4485 -2.5830
   71MOL   C16214302   1.882   3.350   0.942 -0.1376  0.4750  0.9148
   71MOL   O16314303   1.997   3.377   0.964 -0.2340  0.4207 -0.0901
   71MOL   C16414304   1.767   3.388   1.032  0.6454 -0.1696  0.5875
   71MOL   C16514305   1.809   3.429   1.172 -0.5658 -0.4282  0.4370
   71MOL   N16614306   1.870   3.314   1.235 -0.4573 -0.7131 -0.3688
   71MOL   H16714307   1.695   3.307   1.043 -1.3289  1.3818 -0.6591
   71MOL   H16814308   1.710   3.474   0.997 -0.7268 -0.7878  1.2820
   71MOL   H16914309   1.880   3.508   1.146 -0.0767 -1.4599 -1.4219
   71MOL   H17014310   1.734   3.482   1.231 -0.2764  0.6795 -0.1823
   71MOL   H17114311   1.827   3.226   1.211 -0.7564 -0.6959  0.1110
   71MOL   C17214312   1.966   3.322   1.326 -0.3779 -0.1497 -0.3632
   71MOL   O17314313   2.005   3.432   1.366  0.5203  0.5756  0.1904
   71MOL   C17414314   2.009   3.185   1.384  0.1729 -0.0939 -0.3273
   71MOL   C17514315   2.110   3.120   1.294  0.4731 -0.0097  0.1236
   71MOL   N17614316   2.119   2.974   1.304  0.7247  0.8729 -0.2657
   71MOL   H17714317   1.919   3.125   1.398  0.9970 -1.0481  0.9646
   71MOL   H17814318   2.051   3.181   1.485  4.2352 -0.8667 -1.9406
   71MOL   H17914319   2.084   3.158   1.195 -0.7118  1.4537  0.9639
   71MOL   H18014320   2.205   3.165   1.322  0.8279  0.0779 -1.1775
   71MOL   H18114321   2.207   2.938   1.339  0.6565 -0.0778 -1.0506
   71MOL   C18214322   2.039   2.891   1.242  0.0402  0.4876 -1.0140
   71MOL   O18314323   1.936   2.934   1.196 -0.0709  0.4788  0.3998
   71MOL   C18414324   2.081   2.740   1.241  0.9696  0.1598  0.0219
   71MOL   C18514325   1.975   2.638   1.178 -0.6968  0.4295 -0.1471
   71MOL   N18614326   1.861   2.616   1.269 -0.6517  0.4264  0.1779
   71MOL   H18714327   2.114   2.699   1.337  0.2119 -2.2070 -0.6952
   71MOL   H18814328   2.170   2.739   1.177  0.8765 -0.3434 -0.0957
   71MOL   H18914329   1.944   2.674   1.080  1.7125 -2.5362 -2.0960
   71MOL   H19014330   2.033   2.549   1.150 -3.3680 -1.1645 -0.7957
   71MOL   H19114331   1.818   2.699   1.306 -0.6481  1.0154 -1.1404
   71MOL   C19214332   1.823   2.500   1.326 -0.1081 -0.0210  0.0928
   71MOL   O19314333   1.853   2.389   1.287  0.7130 -0.7290  0.0957
   71MOL   C19414334   1.731   2.506   1.452  0.4209  0.1217  0.5402
   71MOL   C19514335   1.579   2.465   1.433 -0.0719  0.4724  0.1252
   71MOL   N19614336   1.495   2.573   1.384  0.4926 -0.4132  0.3560
   71MOL   H19714337   1.776   2.446   1.532 -0.8644 -0.2310  1.0005
   71MOL   H19814338   1.730   2.607   1.495 -1.2378 -0.4463  1.8605
   71MOL   H19914339   1.560   2.372   1.379 -1.0696  1.4424 -1.2555
   71MOL   H20014340   1.543   2.450   1.534 -1.0940  1.0579 -0.1460
   71MOL   H20114341   1.521   2.606   1.292 -0.0932 -0.7557  0.0659
   71MOL   H20214342   1.531   2.650   1.439  0.8228 -1.2982  1.3891
   72MOL     C114343   7.036   5.685   0.291  0.1091 -0.0273  0.8543
   72MOL     O214344   6.937   5.744   0.328  0.1784  0.3017 -0.0058
   72MOL     C314345   7.154   5.676   0.383 -0.4212  0.1536 -0.6370
   72MOL     C414346   7.267   5.595   0.340 -1.0957  0.3736 -0.0886
   72MOL     N514347   7.241   5.454   0.292  0.2265  0.1344 -0.0420
   72MOL     H614348   7.118   5.644   0.481 -0.0739 -0.1495 -0.6067
   72MOL     H714349   7.186   5.777   0.410 -2.1720  0.3804  0.6112
   72MOL     H814350   7.337   5.587   0.423 -1.0359  2.6412  0.1284
   72MOL     H914351   7.318   5.651   0.262 -0.3466  0.7975  0.7044
   72MOL    H1014352   7.144   5.427   0.291 -0.2360  1.7763 -1.4874
   72MOL    H1114353   7.041   5.631   0.197  0.1530  0.7034  0.4315
   72MOL    C1214354   7.332   5.377   0.236  0.2618 -0.0435  0.8382
   72MOL    O1314355   7.452   5.416   0.239 -0.0428  0.4082 -0.4798
   72MOL    C1414356   7.299   5.244   0.162 -0.6802 -0.7173 -0.1833
   72MOL    C1514357   7.314   5.123   0.257  0.2144  0.5792  0.5175
   72MOL    N1614358   7.300   4.993   0.187 -0.1839 -0.2025  0.4229
   72MOL    H1714359   7.359   5.245   0.071  1.3364  0.9572  1.1296
   72MOL    H1814360   7.197   5.251   0.123  0.5105  1.6724 -3.0606
   72MOL    H1914361   7.403   5.118   0.320  1.8299  0.8158 -1.6948
   72MOL    H2014362   7.236   5.128   0.333 -0.1906 -2.4629  0.3746
   72MOL    H2114363   7.388   4.960   0.148 -1.1004 -1.3642 -0.7460
   72MOL    C2214364   7.189   4.935   0.153  0.3806 -0.3393  0.5035
   72MOL    O2314365   7.084   4.972   0.209  0.4142  0.2933  0.0164
   72MOL    C2414366   7.189   4.808   0.067  0.1405  0.4958  1.6197
   72MOL    C2514367   7.137   4.850   7.704  0.7548  0.0815  0.0636
   72MOL    N2614368   7.243   4.891   7.614  1.1055  0.3420  0.0942
   72MOL    H2714369   7.108   4.749   0.112  0.3376 -1.4331 -0.4839
   72MOL    H2814370   7.284   4.756   0.065 -0.0458  0.1752 -1.8117
   72MOL    H2914371   7.094   4.757   7.668 -0.0630 -0.6501  2.7762
   72MOL    H3014372   7.049   4.914   7.716  0.2925 -0.5438  0.0400
   72MOL    H3114373   7.258   4.987   7.584  1.4369  0.6576  1.2425
   72MOL    C3214374   7.320   4.798   7.551 -0.0197  0.2949  0.2014
   72MOL    O3314375   7.316   4.677   7.576  0.5292 -0.6635  0.3568
   72MOL    C3414376   7.420   4.847   7.440  0.4060  0.7922  0.0509
   72MOL    C3514377   7.524   4.741   7.397 -0.8917 -0.6160  0.8038
   72MOL    N3614378   7.590   4.781   7.274  0.3764 -0.4103 -0.5193
   72MOL    H3714379   7.479   4.930   7.478 -0.2187  0.7234  1.1847
   72MOL    H3814380   7.358   4.872   7.354 -0.4099 -0.0703  0.3710
   72MOL    H3914381   7.590   4.728   7.483  0.1033  0.1503  0.1719
   72MOL    H4014382   7.478   4.645   7.375  1.9356 -1.6613 -0.8056
   72MOL    H4114383   7.587   4.722   7.192  0.9141  0.9452 -1.5416
   72MOL    C4214384   7.674   4.890   7.265  0.0781 -0.0165 -0.1948
   72MOL    O4314385   7.693   4.963   7.360  0.0049 -0.3172 -0.4323
   72MOL    C4414386   7.745   4.913   7.131 -0.0999  0.0965  0.0951
   72MOL    C4514387   7.668   5.014   7.038 -0.3425  0.3203 -0.3899
   72MOL    N4614388   7.562   4.936   6.979 -0.0607 -0.4032  0.7057
   72MOL    H4714389   0.065   4.953   7.143 -0.4794  1.6631 -1.7683
   72MOL    H4814390   7.755   4.825   7.067 -1.7736  0.0991 -0.2023
   72MOL    H4914391   7.626   5.102   7.086 -4.8911 -0.6536 -2.2599
   72MOL    H5014392   7.748   5.049   6.973 -1.7412  2.1416 -1.1565
   72MOL    H5114393   7.502   4.875   7.033 -0.0506  0.0664  1.2484
   72MOL    C5214394   7.538   4.940   6.852  1.2922 -0.0231 -0.1508
   72MOL    O5314395   7.606   5.010   6.774 -0.6004  0.2861  0.1696
   72MOL    C5414396   7.415   4.871   6.795 -0.2919  0.8757  0.1466
   72MOL    C5514397   7.449   4.777   6.674 -0.0499  0.0400 -0.8847
   72MOL    N5614398   7.336   4.697   6.647 -0.2932  0.2190  0.9505
   72MOL    H5714399   7.368   4.814   6.876 -0.3008  0.1599 -0.3549
   72MOL    H5814400   7.353   4.955   6.763 -0.0952  0.7402 -0.6118
   72MOL    H5914401   7.533   4.713   6.701 -0.0761 -0.2202 -1.4158
   72MOL    H6014402   7.482   4.838   6.590  0.4731 -0.4924 -1.0718
   72MOL    H6114403   7.294   4.653   6.727 -1.4714 -2.2878 -0.9676
   72MOL    C6214404   7.280   4.678   6.523  0.1824 -0.3777 -0.1726
   72MOL    O6314405   7.298   4.761   6.431 -0.3662 -0.2486 -0.4142
   72MOL    C6414406   7.197   4.556   6.496 -0.0549  0.4501  0.5708
   72MOL    C6514407   7.047   4.573   6.477  0.3373 -0.5927  0.3722
   72MOL    N6614408   7.001   4.677   6.385  0.4783 -0.3300 -0.4305
   72MOL    H6714409   7.229   4.496   6.411  0.2804  3.1173 -1.2535
   72MOL    H6814410   7.215   4.485   6.577  1.5673 -2.1117 -1.9627
   72MOL    H6914411   7.003   4.474   6.466 -2.2012  0.4397  0.9289
   72MOL    H7014412   7.008   4.605   6.574  0.7040 -1.1687  0.7075
   72MOL    H7114413   7.003   4.771   6.422  0.1519 -1.0827  1.5304
   72MOL    C7214414   6.980   4.664   6.254 -0.5382 -0.1958 -0.2647
   72MOL    O7314415   6.988   4.557   6.196 -0.2705 -0.1398 -0.2914
   72MOL    C7414416   6.957   4.797   6.176 -0.7031 -0.1432 -0.3948
   72MOL    C7514417   7.080   4.840   6.092  0.3369  0.1538 -0.9493
   72MOL    N7614418   7.060   4.975   6.040  0.8784 -0.2052 -0.3506
   72MOL    H7714419   6.868   4.791   6.113  0.1688  0.6481 -1.7260
   72MOL    H7814420   6.933   4.870   6.253  1.0088 -1.1105  1.1006
   72MOL    H7914421   7.163   4.843   6.162  0.9617 -0.9601 -1.6283
   72MOL    H8014422   7.107   4.764   6.019 -2.3276 -0.6959 -1.1120
   72MOL    H8114423   7.125   5.043   6.076 -0.9807  2.1369 -1.2742
   72MOL    C8214424   6.973   5.020   5.945 -0.8277  0.1560  0.6668
   72MOL    O8314425   6.889   4.949   5.898  0.1676 -0.0935 -0.1003
   72MOL    C8414426   7.004   5.157   5.883  0.6574 -0.5533 -0.3106
   72MOL    C8514427   7.088   5.148   5.747 -1.4315 -0.5157 -0.2789
   72MOL    N8614428   7.203   5.056   5.763 -0.4390  0.0876 -0.4693
   72MOL    H8714429   6.913   5.217   5.884  1.2346  0.3216  0.9228
   72MOL    H8814430   7.058   5.209   5.963  0.5503  1.6573 -1.6307
   72MOL    H8914431   7.021   5.100   5.676 -2.9094  0.2868  0.5490
   72MOL    H9014432   7.121   5.242   5.703  0.5753 -1.1214 -0.1251
   72MOL    H9114433   7.190   4.956   5.762  1.5961 -0.2071  0.4175
   72MOL    C9214434   7.323   5.104   5.774  0.2144  0.2822  0.1293
   72MOL    O9314435   7.361   5.218   5.788 -0.1627 -0.2416  0.1557
   72MOL    C9414436   7.427   4.988   5.755 -0.2926 -0.2690 -0.3971
   72MOL    C9514437   7.570   5.042   5.786  0.2869 -0.3256 -0.3073
   72MOL    N9614438   7.671   4.928   5.806 -0.1576 -0.0397 -0.0559
   72MOL    H9714439   7.402   4.904   5.820  2.0099 -2.4131 -2.1553
   72MOL    H9814440   7.433   4.951   5.653  2.3208  0.2796 -0.4849
   72MOL    H9914441   7.601   5.115   5.712 -2.2717 -0.7716 -1.8639
   72MOL   H10014442   7.563   5.087   5.885 -0.6390 -2.2912  0.5674
   72MOL   H10114443   7.706   4.904   5.898  2.0093  0.8207 -0.6142
   72MOL   C10214444   7.709   4.836   5.713  0.3107 -0.1969 -0.0450
   72MOL   O10314445   7.683   4.852   5.593 -0.0910  0.2907 -0.0864
   72MOL   C10414446   7.771   4.704   5.766 -0.1842 -0.2993 -0.3122
   72MOL   C10514447   7.659   4.604   5.790  0.6722  0.1170  0.7690
   72MOL   N10614448   7.660   4.479   5.701 -0.9979  0.1790 -0.4407
   72MOL   H10714449   0.054   4.731   5.851 -0.4296 -1.1452  0.1453
   72MOL   H10814450   0.054   4.667   5.686 -0.5891 -1.2893 -0.1819
   72MOL   H10914451   7.687   4.573   5.891  0.5788  1.8679  1.3526
   72MOL   H11014452   7.559   4.644   5.807 -0.3305 -0.8032 -2.5638
   72MOL   H11114453   7.711   4.480   5.614 -0.2111 -0.7161  0.0055
   72MOL   C11214454   7.607   4.361   5.729  0.5388 -0.2837 -0.7940
   72MOL   O11314455   7.544   4.343   5.830 -0.5821 -0.2768  0.1422
   72MOL   C11414456   7.617   4.244   5.618 -0.0986 -0.3086  0.6804
   72MOL   C11514457   7.743   4.148   5.637 -0.2220  0.1171 -0.9211
   72MOL   N11614458   0.086   4.218   5.629 -0.1523  0.4539 -0.0172
   72MOL   H11714459   7.614   4.289   5.518  0.3622  0.4620  1.0083
   72MOL   H11814460   7.528   4.181   5.627 -1.4017  1.5665  1.4512
   72MOL   H11914461   7.724   4.103   5.735  1.6854  2.9823  0.8343
   72MOL   H12014462   7.734   4.063   5.569  0.4071 -1.4865  0.9617
   72MOL   H12114463   0.103   4.298   5.570  0.1784  0.0522 -0.4678
   72MOL   C12214464   0.196   4.177   5.700 -0.0715 -0.0898  0.8092
   72MOL   O12314465   0.203   4.072   5.762  0.2454 -0.1142 -0.6051
   72MOL   C12414466   0.320   4.269   5.680  0.5356 -0.0719  0.0100
   72MOL   C12514467   0.365   4.333   5.817  0.1549  0.4818 -0.1104
   72MOL   N12614468   0.481   4.423   5.809 -0.3998  0.4818  0.5187
   72MOL   H12714469   0.293   4.350   5.611 -3.0491  1.0313  2.5537
   72MOL   H12814470   0.400   4.214   5.630  0.8459  0.2700  0.1236
   72MOL   H12914471   0.282   4.400   5.839 -0.3347 -0.0551 -0.3031
   72MOL   H13014472   0.379   4.257   5.895 -0.2734  0.7974  0.2799
   72MOL   H13114473   0.476   4.508   5.754  0.0993  0.3404  0.2577
   72MOL   C13214474   0.597   4.407   5.873 -0.0280  0.2080  0.0874
   72MOL   O13314475   0.631   4.315   5.946 -0.8742  0.4731  0.0728
   72MOL   C13414476   0.702   4.516   5.836  0.2594  0.0538 -0.2147
   72MOL   C13514477   0.809   4.481   5.722  0.5527  0.6006  0.0826
   72MOL   N13614478   0.739   4.433   5.600  0.3196  0.2659  0.3995
   72MOL   H13714479   0.744   4.542   5.933  1.9382  1.0756 -1.2043
   72MOL   H13814480   0.641   4.604   5.815 -1.4888 -1.0596  0.1351
   72MOL   H13914481   0.870   4.564   5.685  2.2459  0.6152  2.8229
   72MOL   H14014482   0.866   4.394   5.755  3.1925  0.9364 -3.2475
   72MOL   H14114483   0.642   4.454   5.581  0.5754  1.1570  0.0436
   72MOL   C14214484   0.785   4.327   5.527  0.0978  0.2318  0.2482
   72MOL   O14314485   0.898   4.284   5.540  0.9297 -0.6360  0.3571
   72MOL   C14414486   0.696   4.263   5.421  0.8756  0.2183 -0.8944
   72MOL   C14514487   0.700   4.108   5.428  0.2498  0.1612 -0.0953
   72MOL   N14614488   0.837   4.055   5.400 -0.5991 -0.8144  0.4246
   72MOL   H14714489   0.742   4.293   5.327 -0.8448  0.0797 -1.8000
   72MOL   H14814490   0.596   4.300   5.443  0.0349 -1.1716 -2.3190
   72MOL   H14914491   0.659   4.060   5.517 -0.5814 -1.2542 -1.2362
   72MOL   H15014492   0.642   4.075   5.342  1.8558  0.2976 -1.2575
   72MOL   H15114493   0.903   4.131   5.389 -1.1299 -0.0966  2.1234
   72MOL   C15214494   0.877   3.929   5.389 -0.4475  0.0207  0.0913
   72MOL   O15314495   0.998   3.901   5.366  0.3184  0.5618  0.2676
   72MOL   C15414496   0.785   3.815   5.409  0.1105  0.0934  0.0388
   72MOL   C15514497   0.841   3.683   5.351  0.0246  0.5341  0.4249
   72MOL   N15614498   0.763   3.568   5.361  0.5507  0.2025  0.0086
   72MOL   H15714499   0.690   3.850   5.369 -0.4312 -0.5071  0.7874
   72MOL   H15814500   0.764   3.821   5.515  0.4986  0.7923  0.0768
   72MOL   H15914501   0.865   3.698   5.245  2.2918 -1.4341  0.6077
   72MOL   H16014502   0.935   3.661   5.401  0.1788  2.7211  1.1266
   72MOL   H16114503   0.809   3.503   5.424 -0.0437 -1.4261 -1.1924
   72MOL   C16214504   0.665   3.525   5.289  0.2824 -0.2466  0.7454
   72MOL   O16314505   0.622   3.584   5.190  0.4283  0.0868 -0.6140
   72MOL   C16414506   0.599   3.394   5.322 -0.1699  0.2026  0.1521
   72MOL   C16514507   0.681   3.269   5.274 -0.4111 -0.0194 -0.0303
   72MOL   N16614508   0.640   3.142   5.340 -0.0146 -0.3046  0.2367
   72MOL   H16714509   0.507   3.394   5.265 -0.5221  1.5872  0.7110
   72MOL   H16814510   0.579   3.394   5.429 -0.8002 -0.4972  0.0369
   72MOL   H16914511   0.656   3.259   5.169 -2.7338  1.5069  0.3182
   72MOL   H17014512   0.789   3.275   5.268 -0.3933  1.1676  1.1625
   72MOL   H17114513   0.705   3.104   5.408 -0.3194 -1.4721 -0.1018
   72MOL   C17214514   0.520   3.081   5.325 -0.4806  0.6026 -0.1063
   72MOL   O17314515   0.428   3.131   5.260 -0.0110  0.2124 -0.1849
   72MOL   C17414516   0.514   2.954   5.402 -0.0069  0.7786 -1.1566
   72MOL   C17514517   0.397   2.941   5.494 -0.0052  0.5850  0.4071
   72MOL   N17614518   0.270   2.922   5.419 -0.8344 -0.2232  0.0473
   72MOL   H17714519   0.608   2.933   5.453 -0.5484  0.7707 -0.1477
   72MOL   H17814520   0.512   2.878   5.325 -0.7576 -1.4640  1.0128
   72MOL   H17914521   0.416   2.852   5.555 -0.7184  1.3529  1.7538
   72MOL   H18014522   0.386   3.026   5.561  1.5223  0.8040  0.4000
   72MOL   H18114523   0.279   2.919   5.319 -0.3906  1.0239  0.0378
   72MOL   C18214524   0.149   2.921   5.481  0.0161 -0.2600 -0.4048
   72MOL   O18314525   0.132   2.942   5.598  0.2909 -0.1063 -0.1700
   72MOL   C18414526   0.030   2.897   5.398  0.1706  0.0294 -0.0182
   72MOL   C18514527   0.032   2.783   5.296 -0.1250 -0.0578  0.0040
   72MOL   N18614528   0.105   2.817   5.174  0.4018  0.1496 -0.2041
   72MOL   H18714529   0.025   2.986   5.335  1.7931 -0.9626 -1.6052
   72MOL   H18814530   7.724   2.889   5.464 -0.2991  1.9047 -0.3788
   72MOL   H18914531   0.095   2.703   5.335  1.1610  1.0318  0.2049
   72MOL   H19014532   7.715   2.744   5.267  0.3783  0.2400 -2.2042
   72MOL   H19114533   0.181   2.755   5.148  0.4532 -1.2111  2.9733
   72MOL   C19214534   0.065   2.903   5.078  0.7190 -0.7363  1.1622
   72MOL   O19314535   7.747   2.976   5.096 -0.1081  1.0588 -0.1032
   72MOL   C19414536   0.147   2.914   4.951 -0.1674 -0.1012 -0.5957
   72MOL   C19514537   0.085   2.929   4.804 -0.1115  0.6329 -0.8198
   72MOL   N19614538   7.761   2.840   4.772 -1.0117  0.2681 -0.1958
   72MOL   H19714539   0.186   3.013   4.974 -3.2503  0.8594  0.8471
   72MOL   H19814540   0.229   2.843   4.950  0.5048  0.6652  0.0456
   72MOL   H19914541   0.045   3.030   4.800 -1.4089  0.3113  2.0522
   72MOL   H20014542   0.164   2.920   4.730  0.7024 -0.2362  0.1376
   72MOL   H20114543   0.016   2.751   4.740 -0.8956 -0.3351  1.5676
   72MOL   H20214544   7.713   2.803   4.853 -1.7850  1.2776 -0.1955
   73MOL     C114545   0.416   7.307   5.514  0.0340  0.4779  0.4018
   73MOL     O214546   0.448   7.381   5.602 -0.4806  0.0341  0.3931
   73MOL     C314547   0.456   7.162   5.510  0.2899  0.3615 -0.3238
   73MOL     C414548   0.365   7.061   5.586  0.1075 -0.0240 -0.0227
   73MOL     N514549   0.225   7.057   5.554 -0.1298 -0.2364 -0.4750
   73MOL     H614550   0.555   7.167   5.554 -0.3562 -0.7980  1.3044
   73MOL     H714551   0.461   7.123   5.408  0.9894 -1.6603  0.4683
   73MOL     H814552   0.368   7.086   5.692 -1.5609 -1.1801  0.3186
   73MOL     H914553   0.410   6.961   5.580  0.5136  0.2530 -2.1261
   73MOL    H1014554   0.192   6.998   5.479 -0.1320 -2.1039  0.9416
   73MOL    H1114555   0.357   7.344   5.430  0.2603  1.3692  0.6353
   73MOL    C1214556   0.129   7.131   5.604  0.0999  0.6262 -1.0360
   73MOL    O1314557   0.141   7.216   5.693 -0.0310 -0.2166  0.2846
   73MOL    C1414558   0.001   7.115   5.526  0.1023  0.4744  0.0352
   73MOL    C1514559   7.650   7.090   5.607 -0.1515  0.4310 -0.1388
   73MOL    N1614560   7.649   6.967   5.693 -0.1619 -0.2625  0.3332
   73MOL    H1714561   0.010   7.048   5.441 -0.0649  1.6531 -0.9185
   73MOL    H1814562   7.754   7.210   5.479  0.3974  1.5995  2.0573
   73MOL    H1914563   7.624   7.179   5.664  1.6750  1.2011 -0.4701
   73MOL    H2014564   7.568   7.090   5.535  0.1519  1.5216 -0.4896
   73MOL    H2114565   7.665   6.984   5.791  4.8240 -0.3806 -0.3379
   73MOL    C2214566   7.651   6.842   5.642  0.0085  1.3897  0.0458
   73MOL    O2314567   7.631   6.822   5.523  0.7062  0.3815  0.4290
   73MOL    C2414568   7.680   6.721   5.734 -0.5250 -0.3818  1.2149
   73MOL    C2514569   0.047   6.704   5.782 -0.2288 -0.1837 -0.5312
   73MOL    N2614570   0.062   6.587   5.865  0.3498  0.1820 -0.6162
   73MOL    H2714571   7.661   6.638   5.667 -1.0882 -0.8351  1.9362
   73MOL    H2814572   7.606   6.714   5.813  0.3439  0.9482  2.1807
   73MOL    H2914573   0.102   6.690   5.689 -1.5434 -0.3725 -1.3031
   73MOL    H3014574   0.073   6.797   5.833  0.0787  0.1560 -1.3005
   73MOL    H3114575   7.756   6.547   5.900  0.8000 -0.4267 -0.2004
   73MOL    C3214576   0.188   6.547   5.898  0.4676  0.7137  0.9113
   73MOL    O3314577   0.286   6.602   5.860  0.3756  0.3203  0.9649
   73MOL    C3414578   0.201   6.447   6.004  0.3059 -0.3535  0.3333
   73MOL    C3514579   0.269   6.313   5.967 -0.0310  0.3149 -0.0728
   73MOL    N3614580   0.177   6.214   5.905  0.2505 -0.5293 -0.9459
   73MOL    H3714581   0.103   6.437   6.050 -0.0245  0.6350 -0.1484
   73MOL    H3814582   0.252   6.505   6.081  1.0241 -0.3459 -0.1373
   73MOL    H3914583   0.353   6.330   5.899  1.0256  2.1319  1.6308
   73MOL    H4014584   0.311   6.267   6.056  1.2716  1.0846 -0.2771
   73MOL    H4114585   0.154   6.136   5.965  2.6110  0.3751  1.2736
   73MOL    C4214586   0.136   6.202   5.776  0.5844  0.2849 -0.8093
   73MOL    O4314587   0.174   6.271   5.683  0.0900 -0.2533 -0.2888
   73MOL    C4414588   0.023   6.104   5.755 -0.2606 -0.8885  0.4793
   73MOL    C4514589   7.725   6.120   5.616 -0.3186 -0.7673 -0.5172
   73MOL    N4614590   7.632   6.014   5.592  0.0789 -0.5474  0.4615
   73MOL    H4714591   0.077   6.009   5.759  0.5523 -0.4155  0.8183
   73MOL    H4814592   7.740   6.109   5.844  0.2847  0.0193  0.8169
   73MOL    H4914593   7.687   6.222   5.610 -0.1635 -0.4605  2.5865
   73MOL    H5014594   0.012   6.122   5.531  1.4079 -0.9810  0.8035
   73MOL    H5114595   7.644   5.927   5.642 -0.0607 -1.9805 -1.8900
   73MOL    C5214596   7.545   6.022   5.493  0.1392 -0.4360  0.0433
   73MOL    O5314597   7.536   6.127   5.422 -0.2100  0.0096  0.1399
   73MOL    C5414598   7.448   5.902   5.473  0.0286 -0.5915  0.5620
   73MOL    C5514599   7.429   5.858   5.328 -0.1907  0.0591  0.5533
   73MOL    N5614600   7.313   5.775   5.296  0.4998 -0.0804  0.1240
   73MOL    H5714601   7.506   5.827   5.528 -0.8890 -1.1834  0.7227
   73MOL    H5814602   7.356   5.911   5.530 -0.4453 -0.0647 -0.2898
   73MOL    H5914603   7.514   5.794   5.302 -0.0690  0.8443 -1.0442
   73MOL    H6014604   7.447   5.941   5.259 -1.7984 -0.2557 -0.2575
   73MOL    H6114605   7.286   5.705   5.363  0.9488 -3.4385 -3.0336
   73MOL    C6214606   7.251   5.768   5.177  0.5157  0.4571  0.1529
   73MOL    O6314607   7.297   5.828   5.077  0.4556  0.2506 -0.3675
   73MOL    C6414608   7.124   5.682   5.162  0.5075 -0.4723 -0.4534
   73MOL    C6514609   7.076   5.679   5.013 -0.1895 -1.2398 -0.6896
   73MOL    N6614610   6.933   5.650   5.005 -0.0775  0.0881  0.5617
   73MOL    H6714611   7.158   5.586   5.201  0.9292 -0.1476 -0.0105
   73MOL    H6814612   7.045   5.723   5.225  0.2972  0.1067 -1.0938
   73MOL    H6914613   7.084   5.775   4.963 -1.1019 -1.5427 -1.4297
   73MOL    H7014614   7.138   5.607   4.958 -0.9475 -0.8269 -2.1211
   73MOL    H7114615   6.872   5.728   4.987  2.8546  1.9583 -1.6485
   73MOL    C7214616   6.871   5.526   5.029  0.4407 -0.5627  0.8179
   73MOL    O7314617   6.944   5.427   5.054  0.6184  0.1625 -0.0512
   73MOL    C7414618   6.720   5.519   5.052  0.1587 -0.1089 -0.7475
   73MOL    C7514619   6.676   5.419   5.161 -0.0409 -0.3288  0.3128
   73MOL    N7614620   6.534   5.421   5.192  0.2537 -0.6285  0.3923
   73MOL    H7714621   6.675   5.617   5.065 -0.8856 -0.8425  1.5933
   73MOL    H7814622   6.680   5.479   4.959 -0.5097 -0.6169 -0.2497
   73MOL    H7914623   6.712   5.319   5.137 -1.3316 -0.6749 -0.2473
   73MOL    H8014624   6.722   5.451   5.254  2.4196 -1.4950 -0.4518
   73MOL    H8114625   6.480   5.446   5.110  1.1086  1.2082  0.3611
   73MOL    C8214626   6.478   5.408   5.310  0.1730 -0.1163  0.2959
   73MOL    O8314627   6.546   5.404   5.410  0.4996  0.2656  0.1936
   73MOL    C8414628   6.327   5.416   5.325  0.0208 -0.0557  0.4149
   73MOL    C8514629   6.262   5.314   5.417  0.4249  0.1441 -0.1068
   73MOL    N8614630   6.126   5.359   5.448  0.0613 -0.2734 -0.5316
   73MOL    H8714631   6.311   5.512   5.374  1.3361 -0.2785  1.2997
   73MOL    H8814632   6.276   5.398   5.231  1.7053  1.9415 -0.9233
   73MOL    H8914633   6.258   5.215   5.371  1.7114 -0.2546  0.5908
   73MOL    H9014634   6.318   5.308   5.511 -0.2102 -0.2383  0.2508
   73MOL    H9114635   6.057   5.335   5.378 -2.8236  0.7037  1.8737
   73MOL    C9214636   6.086   5.428   5.552 -0.0288 -0.6705 -1.0872
   73MOL    O9314637   6.168   5.465   5.634  0.1635 -0.1767  0.1287
   73MOL    C9414638   5.932   5.432   5.566 -0.2109 -0.1458 -0.7027
   73MOL    C9514639   5.878   5.581   5.598  0.3590 -0.3157  0.6285
   73MOL    N9614640   5.825   5.652   5.474  0.0839  0.0724  0.1106
   73MOL    H9714641   5.878   5.381   5.486  0.4916 -3.5380  0.8803
   73MOL    H9814642   5.915   5.380   5.661 -2.5347  2.3777  0.3284
   73MOL    H9914643   5.792   5.576   5.664  0.6260 -2.5459  0.8627
   73MOL   H10014644   5.949   5.639   5.656  0.1001  1.4472 -0.7877
   73MOL   H10114645   5.728   5.633   5.452  0.1438  2.4139 -2.3741
   73MOL   C10214646   5.893   5.733   5.394 -0.3377 -0.7761  0.5827
   73MOL   O10314647   6.005   5.768   5.423  0.0852 -0.3546  0.1050
   73MOL   C10414648   5.840   5.774   5.255 -0.0199 -0.6489  0.3229
   73MOL   C10514649   5.759   5.913   5.230 -1.3496  0.5735 -0.6108
   73MOL   N10614650   5.644   5.927   5.327  0.0769 -0.0538 -0.4948
   73MOL   H10714651   5.768   5.699   5.221  1.1678 -0.9801 -1.5663
   73MOL   H10814652   5.929   5.765   5.193 -0.9854  0.4927 -1.2846
   73MOL   H10914653   5.825   5.994   5.258 -0.5001 -0.3224 -0.0079
   73MOL   H11014654   5.720   5.934   5.130 -3.1609 -0.3898 -0.1270
   73MOL   H11114655   5.651   5.992   5.404 -0.3435 -0.0390 -0.4693
   73MOL   C11214656   5.517   5.874   5.323  0.0427 -0.1772  0.4132
   73MOL   O11314657   5.478   5.814   5.221  0.0716 -0.4677 -0.0216
   73MOL   C11414658   5.423   5.918   5.433 -0.2273  0.3117 -0.3194
   73MOL   C11514659   5.309   5.816   5.461 -0.0719 -0.0819  0.8045
   73MOL   N11614660   5.188   5.857   5.393  0.1319  0.3232  0.1697
   73MOL   H11714661   5.400   6.024   5.428  1.0964  0.5815 -0.7028
   73MOL   H11814662   5.491   5.915   5.518  1.1006  1.4820 -1.3169
   73MOL   H11914663   5.336   5.716   5.425 -1.4377 -0.2802  0.3219
   73MOL   H12014664   5.290   5.807   5.568 -2.8271 -1.4985  0.2440
   73MOL   H12114665   5.171   5.827   5.298 -1.7674 -2.2090  1.2401
   73MOL   C12214666   5.081   5.906   5.449  0.0299 -0.5153  0.4139
   73MOL   O12314667   5.069   5.914   5.568  0.3364  0.4279  0.3882
   73MOL   C12414668   4.964   5.951   5.359  0.0956 -0.4021 -0.5125
   73MOL   C12514669   4.829   5.875   5.374  0.0068 -0.0878 -0.5905
   73MOL   N12614670   4.725   5.917   5.283  0.0491  0.6611 -0.4722
   73MOL   H12714671   4.994   5.947   5.255  0.5924  1.5916 -0.4654
   73MOL   H12814672   4.947   6.056   5.382 -1.1885 -0.9014  0.9602
   73MOL   H12914673   4.855   5.770   5.376  2.9981  0.6356  2.1511
   73MOL   H13014674   4.796   5.900   5.475  2.4125  0.2025  0.1498
   73MOL   H13114675   4.697   5.858   5.206  0.7684 -1.4918  0.8696
   73MOL   C13214676   4.663   6.033   5.284  0.3684  0.2630 -0.1679
   73MOL   O13314677   4.698   6.114   5.366 -0.0359 -0.1170 -0.3630
   73MOL   C13414678   4.557   6.064   5.179  0.8926  0.4226  0.1736
   73MOL   C13514679   4.606   6.131   5.052 -0.2960 -0.3204 -0.0335
   73MOL   N13614680   4.693   6.058   4.964 -0.7244 -0.1811 -0.6494
   73MOL   H13714681   4.475   6.122   5.219 -0.4290 -1.0014 -0.4415
   73MOL   H13814682   4.494   5.977   5.163  0.2978  0.2839  2.9980
   73MOL   H13914683   4.515   6.159   5.000 -0.8035 -0.1788  0.9090
   73MOL   H14014684   4.671   6.213   5.082  1.2618 -1.2900 -0.7111
   73MOL   H14114685   4.702   5.959   4.978  2.1507 -0.3829 -3.5673
   73MOL   C14214686   4.758   6.104   4.861  0.0141 -0.0457  0.4445
   73MOL   O14314687   4.761   6.224   4.833 -0.2102 -0.6069  0.3018
   73MOL   C14414688   4.821   6.001   4.765 -0.2564  0.6679  0.8587
   73MOL   C14514689   4.926   6.041   4.674  0.5054 -0.2940 -0.5108
   73MOL   N14614690   4.991   5.933   4.605  0.4275 -0.4212 -0.3268
   73MOL   H14714691   4.732   5.975   4.708  0.2991  0.4988  0.0601
   73MOL   H14814692   4.856   5.909   4.813  1.9374 -0.2733 -2.3385
   73MOL   H14914693   4.900   6.118   4.602  2.1066  2.2296  1.5544
   73MOL   H15014694   5.009   6.082   4.730 -0.4130  1.0991 -0.1530
   73MOL   H15114695   4.951   5.840   4.603  0.1561 -0.3050 -0.2747
   73MOL   C15214696   5.108   5.947   4.543  0.1249  0.5296 -0.1868
   73MOL   O15314697   5.180   6.045   4.558 -0.3692 -0.0847  0.2026
   73MOL   C15414698   5.155   5.821   4.473  0.2055 -0.0697 -0.5229
   73MOL   C15514699   5.232   5.849   4.338  0.5925 -0.5317 -0.0494
   73MOL   N15614700   5.241   5.735   4.248  0.5076 -0.6044  0.0885
   73MOL   H15714701   5.074   5.749   4.464  0.2149 -0.0005 -1.1813
   73MOL   H15814702   5.218   5.765   4.543  0.6620  0.9311 -0.1222
   73MOL   H15914703   5.172   5.923   4.285  1.1238 -0.2930 -0.3085
   73MOL   H16014704   5.323   5.897   4.372  0.4604 -0.7869  0.6887
   73MOL   H16114705   5.227   5.643   4.287 -3.5331  0.2562  0.8605
   73MOL   C16214706   5.302   5.742   4.128 -0.7610 -0.3344 -0.1504
   73MOL   O16314707   5.355   5.843   4.084 -0.3915 -0.4299 -0.3188
   73MOL   C16414708   5.309   5.611   4.044 -0.6742 -0.4611  0.0389
   73MOL   C16514709   5.422   5.599   3.944  0.5557  0.5676  0.3228
   73MOL   N16614710   5.388   5.644   3.804  0.0303  0.0923 -0.1299
   73MOL   H16714711   5.216   5.600   3.988 -0.3925  0.2531 -0.5744
   73MOL   H16814712   5.303   5.524   4.110  0.3547  0.2037  1.0287
   73MOL   H16914713   5.509   5.661   3.964  0.5240 -0.3748  3.6471
   73MOL   H17014714   5.451   5.495   3.930  2.9179  1.2541 -0.0243
   73MOL   H17114715   5.291   5.628   3.779  0.1901 -0.4389 -0.4031
   73MOL   C17214716   5.476   5.678   3.710 -0.2603  0.1139 -0.2930
   73MOL   O17314717   5.597   5.689   3.735 -0.4730 -0.2890 -0.0091
   73MOL   C17414718   5.424   5.719   3.571 -0.3602  0.0666 -0.5056
   73MOL   C17514719   5.527   5.796   3.478  0.1897  0.8245  0.1261
   73MOL   N17614720   5.574   5.922   3.528 -0.8238 -0.6730  0.1108
   73MOL   H17714721   5.338   5.784   3.589  0.1616  0.2598  1.4354
   73MOL   H17814722   5.394   5.625   3.526  0.5973 -0.3263 -0.3267
   73MOL   H17914723   5.607   5.726   3.456 -0.0668  0.0198  1.6809
   73MOL   H18014724   5.482   5.817   3.381  0.7088  1.8556  0.1029
   73MOL   H18114725   5.530   5.954   3.613 -2.0238 -2.9926  0.3970
   73MOL   C18214726   5.675   5.990   3.480  0.3471  0.6443  0.5911
   73MOL   O18314727   5.746   5.956   3.385  0.0020 -0.3581 -0.2257
   73MOL   C18414728   5.702   6.111   3.562 -0.2232  0.4094 -0.7045
   73MOL   C18514729   5.782   6.218   3.489 -0.2059 -0.5953 -0.9882
   73MOL   N18614730   5.927   6.210   3.522  0.5123  0.0117 -0.0005
   73MOL   H18714731   5.764   6.078   3.646 -2.1038  2.7272  1.7088
   73MOL   H18814732   5.611   6.151   3.608 -0.7641 -1.2103 -0.3190
   73MOL   H18914733   5.763   6.205   3.382 -0.4413  0.4565 -1.0797
   73MOL   H19014734   5.746   6.313   3.531  1.9724  1.1337 -2.9201
   73MOL   H19114735   5.949   6.184   3.617 -0.4044  0.8092  0.4458
   73MOL   C19214736   6.023   6.251   3.438  0.0944  0.6624 -0.2199
   73MOL   O19314737   6.002   6.291   3.321  0.6449 -0.4502  0.5981
   73MOL   C19414738   6.164   6.267   3.498  0.3469 -0.4649 -0.0716
   73MOL   C19514739   6.284   6.280   3.407 -0.0965 -0.6680 -0.2312
   73MOL   N19614740   6.281   6.399   3.326 -0.5039 -0.1686  0.0700
   73MOL   H19714741   6.163   6.349   3.570  0.1016 -2.3288  2.0951
   73MOL   H19814742   6.194   6.187   3.565  0.6416 -0.3337 -0.0432
   73MOL   H19914743   6.380   6.279   3.458  0.0891 -0.6481 -0.5782
   73MOL   H20014744   6.277   6.193   3.341 -3.5040 -0.4580 -0.2547
   73MOL   H20114745   6.311   6.479   3.380  1.1361 -0.7560  0.0438
   73MOL   H20214746   6.194   6.427   3.283  1.0000  1.2069 -2.2013
   74MOL     C114747   2.497   1.346   0.806 -0.3155  0.0661  0.3287
   74MOL     O214748   2.479   1.452   0.749 -0.0850 -0.7579 -0.4403
   74MOL     C314749   2.605   1.328   0.913  0.3910 -0.0531 -0.6586
   74MOL     C414750   2.571   1.391   1.058  0.3273 -0.3023 -1.0567
   74MOL     N514751   2.515   1.301   1.160  0.1032  0.2446  0.7508
   74MOL     H614752   2.693   1.378   0.874  1.7546  0.0657  2.4369
   74MOL     H714753   2.632   1.223   0.927  0.7337  0.4382  2.8573
   74MOL     H814754   2.499   1.473   1.051  2.0222  1.4516  1.5219
   74MOL     H914755   2.661   1.432   1.103 -0.4241 -0.9100  1.0705
   74MOL    H1014756   2.425   1.256   1.149 -0.1484  1.2981 -2.1395
   74MOL    H1114757   2.449   1.260   0.760  0.1828  0.6047 -1.2414
   74MOL    C1214758   2.589   1.263   1.267 -0.1908 -0.6840 -0.3428
   74MOL    O1314759   2.706   1.289   1.290 -0.5931 -0.2156  0.6845
   74MOL    C1414760   2.508   1.189   1.370 -0.6040  0.0361  0.3852
   74MOL    C1514761   2.506   1.259   1.499  0.3349  0.7570 -0.0501
   74MOL    N1614762   2.412   1.366   1.504  0.3958  0.0868  0.2375
   74MOL    H1714763   2.558   1.092   1.379 -2.6746 -1.3358 -2.1454
   74MOL    H1814764   2.412   1.162   1.325  0.7674 -0.3276 -2.4326
   74MOL    H1914765   2.477   1.182   1.571  0.5004 -0.0405 -0.8331
   74MOL    H2014766   2.603   1.293   1.535  1.7493 -2.6716 -0.4404
   74MOL    H2114767   2.423   1.436   1.433  0.6527 -0.7919 -0.5900
   74MOL    C2214768   2.331   1.396   1.604 -0.4316 -0.1938  0.2906
   74MOL    O2314769   2.301   1.322   1.688 -0.4591  0.1743 -0.4662
   74MOL    C2414770   2.265   1.534   1.610  0.1209  0.1262 -0.4274
   74MOL    C2514771   2.312   1.610   1.734  0.3670 -0.2721  0.3453
   74MOL    N2614772   2.295   1.753   1.719  0.0323  0.2603 -0.4842
   74MOL    H2714773   2.159   1.514   1.628  0.5326 -0.6179  1.3038
   74MOL    H2814774   2.273   1.594   1.520 -1.7233  2.9195  1.1812
   74MOL    H2914775   2.257   1.562   1.815 -0.7090 -0.7180 -0.6363
   74MOL    H3014776   2.419   1.599   1.750  0.4880 -1.8198 -1.4133
   74MOL    H3114777   2.373   1.810   1.749  1.0827 -2.0206  1.2089
   74MOL    C3214778   2.178   1.819   1.686 -0.4217 -0.3678 -0.4488
   74MOL    O3314779   2.068   1.769   1.654 -0.9628 -0.0235 -0.0907
   74MOL    C3414780   2.178   1.971   1.703  0.3029  0.8944  0.6207
   74MOL    C3514781   2.069   2.023   1.799 -0.6108  0.4411  0.6290
   74MOL    N3614782   1.936   1.995   1.735  0.2270  0.7944  0.1383
   74MOL    H3714783   2.166   2.010   1.602 -0.9932  1.7727  1.1035
   74MOL    H3814784   2.270   1.997   1.754  0.4337  2.0102 -0.1548
   74MOL    H3914785   2.073   1.970   1.894 -0.0117  0.5755  0.6803
   74MOL    H4014786   2.083   2.130   1.815 -0.3667  0.7272 -1.3782
   74MOL    H4114787   1.929   1.903   1.693  2.5223  1.0235 -0.8136
   74MOL    C4214788   1.841   2.082   1.722 -0.6270  0.4752 -0.8944
   74MOL    O4314789   1.843   2.193   1.776  0.5038 -0.3147 -0.1285
   74MOL    C4414790   1.731   2.031   1.627  0.1407 -0.2003  0.2880
   74MOL    C4514791   1.726   2.128   1.500 -1.1750 -0.3715 -0.0810
   74MOL    N4614792   1.636   2.092   1.392  0.0106  0.0250  0.4938
   74MOL    H4714793   1.723   1.927   1.597  2.2931 -0.3178  0.0287
   74MOL    H4814794   1.639   2.061   1.676  1.8823 -0.1269  3.6732
   74MOL    H4914795   1.693   2.224   1.542  0.6990 -0.4604  1.6987
   74MOL    H5014796   1.830   2.138   1.469 -2.1634  0.9601 -3.1409
   74MOL    H5114797   1.572   2.165   1.363 -0.1567 -0.2496  0.1665
   74MOL    C5214798   1.638   1.993   1.304  0.6141  0.3040 -0.3074
   74MOL    O5314799   1.732   1.911   1.301 -0.1591 -0.0855 -1.0661
   74MOL    C5414800   1.529   1.993   1.192 -0.5362  0.3633 -0.6793
   74MOL    C5514801   1.597   2.038   1.061 -0.1131 -0.4365  0.3748
   74MOL    N5614802   1.635   2.176   1.052 -0.4557 -0.6843  0.0796
   74MOL    H5714803   1.490   1.892   1.178 -2.6164  1.1980 -1.1392
   74MOL    H5814804   1.442   2.046   1.230  0.6065 -0.5016  3.3075
   74MOL    H5914805   1.526   2.021   0.980 -0.7354  0.0852  0.8060
   74MOL    H6014806   1.685   1.977   1.044 -0.7278 -0.6574 -2.1120
   74MOL    H6114807   1.725   2.191   1.008  0.9002 -0.3554  2.8798
   74MOL    C6214808   1.568   2.282   1.090  0.1762 -0.0112  0.1392
   74MOL    O6314809   1.462   2.272   1.154 -0.1053  0.4565  0.5104
   74MOL    C6414810   1.624   2.425   1.055  0.7893  0.4704 -0.3262
   74MOL    C6514811   1.572   2.487   0.925 -0.7271  0.8887 -0.1466
   74MOL    N6614812   1.437   2.476   0.889  0.6851  0.3288  0.1418
   74MOL    H6714813   1.590   2.490   1.137 -2.0221  0.3382 -1.3209
   74MOL    H6814814   1.732   2.422   1.065  0.5338 -0.2726  2.8945
   74MOL    H6914815   1.609   2.590   0.928  1.1705  0.2880 -1.7022
   74MOL    H7014816   1.614   2.438   0.838  1.4774  0.7793  0.9259
   74MOL    H7114817   1.376   2.396   0.900  1.2229 -0.1894 -0.5567
   74MOL    C7214818   1.374   2.575   0.831 -0.5773  0.0155 -1.4745
   74MOL    O7314819   1.415   2.690   0.820  0.3528  0.0055 -0.3175
   74MOL    C7414820   1.236   2.542   0.768  0.8275 -0.5632 -0.0793
   74MOL    C7514821   1.202   2.627   0.641  0.6980  0.6786 -0.4023
   74MOL    N7614822   1.267   2.577   0.520 -0.5237  0.8539  0.2352
   74MOL    H7714823   1.234   2.436   0.741  0.8649 -0.9949  1.5448
   74MOL    H7814824   1.161   2.548   0.847  0.3232 -0.8640 -0.5312
   74MOL    H7914825   1.100   2.645   0.609  0.5413  0.5821  0.0309
   74MOL    H8014826   1.247   2.725   0.663 -0.2674  1.4160 -1.6757
   74MOL    H8114827   1.305   2.483   0.517 -2.1299  0.2025 -0.5760
   74MOL    C8214828   1.266   2.630   0.394 -0.1348 -0.1673  0.1455
   74MOL    O8314829   1.212   2.739   0.373  0.4842 -0.1479  0.0609
   74MOL    C8414830   1.331   2.554   0.277  0.1484 -0.3220  0.8666
   74MOL    C8514831   1.360   2.645   0.159 -0.3899  0.5346 -0.5712
   74MOL    N8614832   1.476   2.728   0.175 -0.0868 -0.3222  0.5516
   74MOL    H8714833   1.417   2.490   0.299 -0.3208 -1.1625  0.2662
   74MOL    H8814834   1.249   2.489   0.248  0.2774 -0.2785  0.4037
   74MOL    H8914835   1.371   2.586   0.068 -0.3643  0.6117 -0.6175
   74MOL    H9014836   1.278   2.709   0.129  0.7880  2.2249 -0.2671
   74MOL    H9114837   1.465   2.803   0.243 -1.2463 -0.9435  1.0799
   74MOL    C9214838   1.604   2.694   0.138  0.1246 -0.2476 -0.0394
   74MOL    O9314839   1.632   2.591   0.079 -0.0077 -0.3467  0.4031
   74MOL    C9414840   1.704   2.809   0.164  0.4267 -0.0125  0.6447
   74MOL    C9514841   1.848   2.788   0.111 -0.0793 -0.2639  0.2476
   74MOL    N9614842   1.856   2.825   7.752 -0.2290  0.1805  0.2379
   74MOL    H9714843   1.662   2.909   0.152  0.6198 -0.1210 -1.1164
   74MOL    H9814844   1.714   2.825   0.271 -0.0715  0.8408  0.5668
   74MOL    H9914845   1.920   2.836   0.176 -1.5441 -0.1181  1.7981
   74MOL   H10014846   1.882   2.685   0.124  1.8096  0.2302 -0.6945
   74MOL   H10114847   1.807   2.769   7.683 -1.3843 -0.0554  1.2287
   74MOL   C10214848   1.929   2.928   7.706  0.7532 -0.4849 -0.3277
   74MOL   O10314849   1.976   3.016   0.003 -0.4812  0.5442  0.1423
   74MOL   C10414850   1.954   2.946   7.558 -0.3841  0.4051  0.3776
   74MOL   C10514851   1.924   3.095   7.519  0.6392 -0.2302 -0.5648
   74MOL   N10614852   1.847   3.104   7.393  0.5975 -0.6073  0.0048
   74MOL   H10714853   1.890   2.874   7.508 -3.9210  2.0480  2.3619
   74MOL   H10814854   2.052   2.909   7.528  0.6242  2.3223  1.2088
   74MOL   H10914855   1.879   3.152   7.600 -1.0471 -0.9235 -0.9983
   74MOL   H11014856   2.020   3.146   7.509  0.1368  0.7105 -0.6636
   74MOL   H11114857   1.775   3.036   7.374 -0.4430  0.3478  0.4153
   74MOL   C11214858   1.846   3.222   7.328  0.0232  0.5120  0.4247
   74MOL   O11314859   1.915   3.317   7.366  0.3317 -0.3640 -0.0697
   74MOL   C11414860   1.760   3.241   7.196  0.3308  0.6348  0.1138
   74MOL   C11514861   1.655   3.350   7.190 -0.2782  0.0196 -0.2634
   74MOL   N11614862   1.549   3.331   7.287 -0.4561 -0.0678  0.4075
   74MOL   H11714863   1.724   3.150   7.149 -0.5406  1.4699 -0.8502
   74MOL   H11814864   1.847   3.269   7.136  0.0807 -1.3111 -1.1764
   74MOL   H11914865   1.706   3.441   7.222  0.7615  0.1492 -2.2032
   74MOL   H12014866   1.613   3.368   7.091  0.9442  0.9367 -0.6220
   74MOL   H12114867   1.470   3.274   7.259  1.0934 -2.8703  1.4777
   74MOL   C12214868   1.540   3.375   7.414  0.8268  0.0131  0.0390
   74MOL   O12314869   1.624   3.443   7.472  0.5152 -0.7608 -0.6072
   74MOL   C12414870   1.415   3.347   7.487 -0.1523  0.1113  0.4386
   74MOL   C12514871   1.357   3.478   7.553  0.0475  0.4735 -0.6782
   74MOL   N12614872   1.213   3.455   7.554 -0.1845  0.0693  0.2816
   74MOL   H12714873   1.427   3.266   7.559 -0.3124 -0.7977 -0.5396
   74MOL   H12814874   1.346   3.317   7.408 -0.6262 -0.4232  1.0523
   74MOL   H12914875   1.402   3.489   7.651 -2.8303 -1.1449  0.8981
   74MOL   H13014876   1.381   3.562   7.488  3.1371  0.1215 -0.0578
   74MOL   H13114877   1.164   3.394   7.490  1.4371  0.2344 -1.1592
   74MOL   C13214878   1.136   3.546   7.614 -1.1144 -0.5973  0.4125
   74MOL   O13314879   1.178   3.630   7.692  0.3136  0.6735 -0.3659
   74MOL   C13414880   0.984   3.535   7.585 -0.0679  0.6502 -0.5455
   74MOL   C13514881   0.898   3.510   7.709 -0.2766 -0.2153 -0.3375
   74MOL   N13614882   0.876   3.375   7.741  0.4870 -0.1502 -0.0550
   74MOL   H13714883   0.963   3.469   7.501  1.9430  1.0375 -1.3804
   74MOL   H13814884   0.962   3.629   7.535 -1.8221  0.6417  0.1834
   74MOL   H13914885   0.930   3.556   0.022 -0.9728 -1.4408  0.5290
   74MOL   H14014886   0.800   3.546   7.677 -0.4634 -1.9030 -1.7840
   74MOL   H14114887   0.841   3.326   7.660 -1.9637 -1.9608  2.0052
   74MOL   C14214888   0.885   3.300   0.067 -0.1322  0.2823 -0.6795
   74MOL   O14314889   0.926   3.348   0.174  0.2852 -0.0740  0.2166
   74MOL   C14414890   0.843   3.156   0.047  0.5895  0.0244 -0.1754
   74MOL   C14514891   0.891   3.068   0.167 -0.5761 -0.0567  0.0011
   74MOL   N14614892   1.038   3.059   0.191 -0.0358  0.1483  0.2274
   74MOL   H14714893   0.870   3.121   7.727 -1.7932 -1.6157 -0.2909
   74MOL   H14814894   0.735   3.151   0.037  0.6169  1.2003 -1.2492
   74MOL   H14914895   0.851   3.111   0.259 -1.0893  0.9467 -0.6752
   74MOL   H15014896   0.852   2.968   0.149  1.8911 -1.1260  0.3780
   74MOL   H15114897   1.077   3.103   0.274 -1.6042 -1.1605  1.7040
   74MOL   C15214898   1.126   3.002   0.107 -0.4882  0.0737  0.7260
   74MOL   O15314899   1.092   2.941   0.004  0.2427  0.0472 -0.9008
   74MOL   C15414900   1.270   3.028   0.139 -0.2194  0.2382 -0.8859
   74MOL   C15514901   1.348   3.052   0.011 -0.6674 -0.1470 -0.0672
   74MOL   N15614902   1.494   3.075   0.035  0.5801 -0.0135 -0.1614
   74MOL   H15714903   1.302   2.937   0.190 -1.5484  0.4418  0.3461
   74MOL   H15814904   1.294   3.106   0.210 -0.9591 -1.0782  0.8481
   74MOL   H15914905   1.339   2.954   7.743 -0.8115  0.1682 -0.6914
   74MOL   H16014906   1.298   3.134   7.740  0.6036  1.6850  1.6038
   74MOL   H16114907   1.554   2.993   0.029  0.9961  0.3342 -0.7410
   74MOL   C16214908   1.555   3.191   0.059 -0.8662 -0.5356 -0.4182
   74MOL   O16314909   1.500   3.298   0.045 -0.4008 -1.4008 -0.2027
   74MOL   C16414910   1.698   3.185   0.112 -1.0616 -0.4028 -0.0459
   74MOL   C16514911   1.755   3.325   0.148 -0.4624  0.8133 -0.5317
   74MOL   N16614912   1.676   3.391   0.255  0.4055 -0.0318  0.1254
   74MOL   H16714913   1.763   3.138   0.038  1.5649  3.7773 -0.5266
   74MOL   H16814914   1.696   3.122   0.201  1.4816  0.3554  0.5789
   74MOL   H16914915   1.861   3.326   0.171 -0.9263  3.9264  1.6953
   74MOL   H17014916   1.747   3.388   0.059  1.4540  1.2469 -0.4111
   74MOL   H17114917   1.576   3.386   0.246  0.5461 -0.0483 -1.4884
   74MOL   C17214918   1.727   3.426   0.373  0.3158  0.1423 -0.7660
   74MOL   O17314919   1.845   3.417   0.401  0.3947  0.0480 -0.8534
   74MOL   C17414920   1.627   3.475   0.476 -0.3614 -0.0625  0.2305
   74MOL   C17514921   1.649   3.415   0.608 -0.7490 -0.0905 -0.6355
   74MOL   N17614922   1.523   3.424   0.672 -0.3013  0.0487  0.6608
   74MOL   H17714923   1.525   3.464   0.439 -0.0751  1.1804 -0.9916
   74MOL   H17814924   1.661   3.578   0.469 -1.6846  0.3558 -0.2765
   74MOL   H17914925   1.690   3.314   0.606 -1.4009 -0.3456 -1.2230
   74MOL   H18014926   1.724   3.466   0.669  0.4137 -1.6787 -0.7217
   74MOL   H18114927   1.453   3.470   0.616  0.5265  1.5753  0.8469
   74MOL   C18214928   1.483   3.351   0.776  0.2119  0.0218 -0.7087
   74MOL   O18314929   1.559   3.275   0.837  0.7151  0.1514  0.4166
   74MOL   C18414930   1.341   3.376   0.829 -0.9951 -0.2626 -0.1755
   74MOL   C18514931   1.305   3.306   0.959  0.0557  0.3966 -0.0790
   74MOL   N18614932   1.166   3.325   0.987  0.1217 -0.2324 -0.3588
   74MOL   H18714933   1.275   3.338   0.752  0.5299 -1.3002 -0.9965
   74MOL   H18814934   1.296   3.475   0.834 -1.0964 -0.3302  0.2763
   74MOL   H18914935   1.331   3.201   0.963  0.3469  0.4803  0.4016
   74MOL   H19014936   1.366   3.345   1.041  0.6920 -0.5641 -0.0974
   74MOL   H19114937   1.108   3.386   0.931 -0.8779  0.2951  1.2422
   74MOL   C19214938   1.106   3.273   1.093  0.2187 -0.2824  0.5948
   74MOL   O19314939   1.167   3.198   1.175  0.2936 -0.5376 -0.0586
   74MOL   C19414940   0.962   3.321   1.116 -0.5365 -0.7995 -0.8766
   74MOL   C19514941   0.864   3.211   1.072 -0.2195 -0.0737 -0.3060
   74MOL   N19614942   0.857   3.172   0.932 -0.1131  0.4034 -0.3413
   74MOL   H19714943   0.965   3.323   1.225  0.0104  2.7334 -0.8931
   74MOL   H19814944   0.950   3.422   1.076 -1.7852 -1.0911 -1.2859
   74MOL   H19914945   0.888   3.123   1.133 -0.8809 -0.2871 -0.3457
   74MOL   H20014946   0.763   3.237   1.105 -0.4445 -0.9003 -0.3330
   74MOL   H20114947   0.857   3.255   0.874  1.3460  1.5172  1.1962
   74MOL   H20214948   0.943   3.124   0.909  1.4650  2.0316  1.8748
   75MOL     C114949   4.446   5.540   4.612 -0.4446 -0.6080  0.0384
   75MOL     O214950   4.424   5.455   4.699 -0.1062  0.1048 -0.1109
   75MOL     C314951   4.535   5.660   4.646  0.0658 -0.4896 -0.2196
   75MOL     C414952   4.594   5.676   4.785  0.2267  0.3836 -0.2902
   75MOL     N514953   4.484   5.689   4.877 -0.1731  1.1523 -0.0414
   75MOL     H614954   4.482   5.753   4.627  1.4258  0.4710  0.5949
   75MOL     H714955   4.607   5.660   4.564 -1.0659  1.5215 -1.2333
   75MOL     H814956   4.661   5.761   4.774  0.4238  0.6374  2.4298
   75MOL     H914957   4.651   5.591   4.823  0.5588  0.5433 -0.4267
   75MOL    H1014958   4.392   5.664   4.843  0.1846 -2.5103  1.4216
   75MOL    H1114959   4.398   5.536   4.514 -0.4636 -1.0523  0.0664
   75MOL    C1214960   4.492   5.737   5.000 -0.0178 -0.6561  0.3834
   75MOL    O1314961   4.600   5.779   5.049  0.2165  0.5703  0.6148
   75MOL    C1414962   4.374   5.723   5.097 -0.3290  0.4756 -0.3658
   75MOL    C1514963   4.405   5.709   5.250 -0.2554 -0.4284  0.2556
   75MOL    N1614964   4.447   5.574   5.287 -0.1017  0.2283  0.8155
   75MOL    H1714965   4.326   5.631   5.063  0.6909 -0.4260  0.5701
   75MOL    H1814966   4.301   5.802   5.080  0.8379  1.1957 -2.1572
   75MOL    H1914967   4.479   5.780   5.287 -0.2719  0.2142 -0.9210
   75MOL    H2014968   4.311   5.718   5.305 -0.0605 -0.3520  0.5794
   75MOL    H2114969   4.399   5.496   5.246  3.7843 -1.7450 -0.2820
   75MOL    C2214970   4.540   5.541   5.372  0.1799  0.9156  0.4917
   75MOL    O2314971   4.623   5.623   5.416 -0.2654  0.4332 -0.5483
   75MOL    C2414972   4.557   5.391   5.399  0.5978 -0.2889  0.9062
   75MOL    C2514973   4.469   5.327   5.506 -0.2227  0.4673  0.5741
   75MOL    N2614974   4.337   5.310   5.449 -0.1155  0.4864 -0.0307
   75MOL    H2714975   4.663   5.375   5.421  1.2205  1.7312 -0.4622
   75MOL    H2814976   4.531   5.344   5.304 -2.0505  0.8496  1.0289
   75MOL    H2914977   4.514   5.239   5.551 -1.0753  0.7357  1.9660
   75MOL    H3014978   4.469   5.403   5.584  0.8009  0.8857  0.1854
   75MOL    H3114979   4.329   5.237   5.380  0.3329 -0.9900  1.4445
   75MOL    C3214980   4.229   5.386   5.475 -0.0089  0.4767 -0.5733
   75MOL    O3314981   4.221   5.465   5.576 -0.1714 -0.3965 -0.1757
   75MOL    C3414982   4.108   5.381   5.388  0.4513 -0.1327 -0.7304
   75MOL    C3514983   4.050   5.517   5.335  0.0514 -0.7712 -0.0797
   75MOL    N3614984   3.915   5.512   5.276  0.0666  0.0137 -0.2829
   75MOL    H3714985   4.027   5.341   5.449  0.1837  1.3935 -0.0595
   75MOL    H3814986   4.119   5.314   5.303 -2.9113  0.0076 -1.3603
   75MOL    H3914987   4.038   5.590   5.414  0.4385 -2.8575  1.9685
   75MOL    H4014988   4.117   5.554   5.257 -1.1836  1.3920 -0.1406
   75MOL    H4114989   3.900   5.529   5.178 -0.5359  3.3374  0.3098
   75MOL    C4214990   3.804   5.503   5.353 -0.2683  0.2178 -0.5047
   75MOL    O4314991   3.811   5.506   5.474 -0.0052 -0.2301  0.3987
   75MOL    C4414992   3.668   5.500   5.288 -0.7642 -0.1939 -0.1525
   75MOL    C4514993   3.629   5.361   5.220  0.0728 -0.2453 -0.1099
   75MOL    N4614994   3.587   5.263   5.314 -0.1612 -0.1872 -0.4303
   75MOL    H4714995   3.593   5.530   5.362 -0.2898 -0.0452  0.2720
   75MOL    H4814996   3.655   5.589   5.226 -0.0617  0.5859  0.7992
   75MOL    H4914997   3.552   5.375   5.144  1.2380  1.5918 -1.0113
   75MOL    H5014998   3.712   5.326   5.157 -0.6975 -0.4494 -1.0185
   75MOL    H5114999   3.559   5.305   5.402 -0.0417 -0.9686 -0.0152
   75MOL    C5215000   3.571   5.127   5.305  0.1966 -0.2342  0.7731
   75MOL    O5315001   3.594   5.064   5.200  0.1745 -0.0380  0.4101
   75MOL    C5415002   3.534   5.047   5.433  0.1468  0.1372 -0.1169
   75MOL    C5515003   3.513   4.898   5.410 -0.0539  0.0575 -0.2789
   75MOL    N5615004   3.638   4.823   5.427  0.4539  0.5741  0.2346
   75MOL    H5715005   3.613   5.065   5.506  0.7188 -0.4453 -0.5877
   75MOL    H5815006   3.439   5.088   5.468  0.0901 -0.4938  0.4911
   75MOL    H5915007   3.465   4.867   5.316 -0.6297  0.4879 -0.1288
   75MOL    H6015008   3.442   4.875   5.490 -1.2403  0.0903 -1.2951
   75MOL    H6115009   3.726   4.861   5.395  0.9857  0.8220  1.9638
   75MOL    C6215010   3.656   4.700   5.488 -0.5428  0.0649  0.5071
   75MOL    O6315011   3.566   4.638   5.536  0.2400 -0.5503 -0.4320
   75MOL    C6415012   3.797   4.643   5.480 -0.5000 -0.3059  0.1321
   75MOL    C6515013   3.812   4.502   5.546  0.4441  0.1872  0.3305
   75MOL    N6615014   3.951   4.453   5.560 -0.2331  0.7518 -0.2745
   75MOL    H6715015   3.821   4.635   5.374  0.9825  1.9369  0.2805
   75MOL    H6815016   3.860   4.720   5.522 -0.8843  1.5636 -2.6006
   75MOL    H6915017   3.763   4.498   5.643  0.0635 -1.1191  0.0898
   75MOL    H7015018   3.766   4.424   5.485  0.8893  0.6693 -0.6292
   75MOL    H7115019   3.974   4.363   5.521 -1.6465  0.4104 -0.3114
   75MOL    C7215020   4.048   4.508   5.635  0.2055  0.6101  0.5807
   75MOL    O7315021   4.036   4.606   5.702 -0.2750 -0.3103  0.2228
   75MOL    C7415022   4.175   4.418   5.640  0.2570 -0.0716  0.2328
   75MOL    C7515023   4.222   4.375   5.779  0.4333 -0.7168  0.6916
   75MOL    N7615024   4.259   4.487   5.869 -0.0346  0.1070 -0.4236
   75MOL    H7715025   4.161   4.327   5.582  2.4015  0.2585 -0.8714
   75MOL    H7815026   4.252   4.474   5.587 -1.6213  0.6748 -1.7712
   75MOL    H7915027   4.137   4.326   5.827 -1.2838  0.1225 -1.4212
   75MOL    H8015028   4.308   4.308   5.775 -0.0489 -1.2544 -1.5987
   75MOL    H8115029   4.188   4.526   5.930 -0.8624 -1.4197 -0.3878
   75MOL    C8215030   4.354   4.577   5.845  0.0254 -0.2431  0.4857
   75MOL    O8315031   4.447   4.563   5.761 -0.1320  0.2022 -0.3416
   75MOL    C8415032   4.373   4.691   5.946  0.1705  1.2294  0.1048
   75MOL    C8515033   4.332   4.828   5.907  0.8259  0.7560 -0.8849
   75MOL    N8615034   4.336   4.922   6.016 -0.0864 -0.9488  0.0959
   75MOL    H8715035   4.321   4.657   6.035 -1.8678  1.4951 -0.9590
   75MOL    H8815036   4.481   4.692   5.964  0.1826 -1.2790  0.4133
   75MOL    H8915037   4.402   4.853   5.827  0.1822  0.5468 -1.5173
   75MOL    H9015038   4.234   4.835   5.860 -0.3495  0.3144  1.4478
   75MOL    H9115039   4.425   4.970   6.020  0.2105 -1.5053  0.2475
   75MOL    C9215040   4.244   4.948   6.105 -0.1404 -0.0009  0.0387
   75MOL    O9315041   4.132   4.897   6.087 -0.1193 -0.5456 -0.5807
   75MOL    C9415042   4.272   5.056   6.216 -0.1082  0.1709  0.5946
   75MOL    C9515043   4.318   5.017   6.355  0.4538  0.1949  0.0676
   75MOL    N9615044   4.270   5.106   6.462  0.3316  0.0923 -0.3477
   75MOL    H9715045   4.330   5.139   6.175 -0.0983 -0.3249 -0.4080
   75MOL    H9815046   4.174   5.104   6.224  0.4607  1.8273 -1.8452
   75MOL    H9915047   4.257   4.927   6.365 -1.8338  1.6053 -0.8774
   75MOL   H10015048   4.424   4.992   6.355  0.3139 -0.4337  2.3341
   75MOL   H10115049   4.193   5.068   6.514 -1.0622  2.2447 -0.7673
   75MOL   C10215050   4.329   5.224   6.489 -0.2162 -0.1481 -0.2863
   75MOL   O10315051   4.413   5.271   6.411  0.0898  0.2939 -0.1047
   75MOL   C10415052   4.284   5.291   6.620 -0.6326 -0.4106 -0.0159
   75MOL   C10515053   4.235   5.433   6.593 -0.0613 -0.2350  0.3684
   75MOL   N10615054   4.258   5.529   6.704 -0.0972  0.5969  0.0319
   75MOL   H10715055   4.365   5.293   6.694 -1.3610 -0.7652  0.8010
   75MOL   H10815056   4.208   5.238   6.677 -2.3600  1.0690 -0.8967
   75MOL   H10915057   4.278   5.476   6.502  0.1907  0.5047  0.8342
   75MOL   H11015058   4.126   5.436   6.587 -0.0786 -0.3694  0.6123
   75MOL   H11115059   4.208   5.517   6.791 -1.2925 -3.1934 -1.1165
   75MOL   C11215060   4.317   5.646   6.699 -0.0900  0.5498 -0.1142
   75MOL   O11315061   4.390   5.676   6.606  0.8039 -0.6135  0.3069
   75MOL   C11415062   4.290   5.750   6.814  0.2964  0.1787  0.4813
   75MOL   C11515063   4.307   5.897   6.764  0.3336 -0.4171  0.4509
   75MOL   N11615064   4.352   5.985   6.866  0.3287 -0.3652  0.4285
   75MOL   H11715065   4.365   5.730   6.890 -0.0022  0.6519  0.9009
   75MOL   H11815066   4.195   5.729   6.864 -0.1410  0.4070 -0.2417
   75MOL   H11915067   4.373   5.912   6.678 -3.0747 -0.8740 -2.3652
   75MOL   H12015068   4.214   5.935   6.721  1.3848  0.9862 -0.6501
   75MOL   H12115069   4.285   6.018   6.935  0.7183  1.8085 -0.1793
   75MOL   C12215070   4.478   6.030   6.880 -0.2636 -0.4696  0.2646
   75MOL   O12315071   4.574   5.994   6.807 -0.6660  1.0602 -0.1972
   75MOL   C12415072   4.496   6.147   6.978  0.4390 -0.4078  0.5486
   75MOL   C12515073   4.518   6.096   7.117 -0.0209  0.5677 -0.0714
   75MOL   N12615074   4.404   6.036   7.179 -0.6066  0.4518  0.3580
   75MOL   H12715075   4.423   6.227   6.975 -1.8807 -2.3521  3.0303
   75MOL   H12815076   4.586   6.191   6.935 -0.0445 -0.5366 -0.6372
   75MOL   H12915077   4.591   6.016   7.109 -1.7674 -1.1386  0.6108
   75MOL   H13015078   4.559   6.174   7.182  2.1833 -1.5994  1.2607
   75MOL   H13115079   4.416   5.944   7.219 -1.4159  0.7493  1.3181
   75MOL   C13215080   4.284   6.090   7.194  0.1610  1.1127  0.4807
   75MOL   O13315081   4.256   6.205   7.155 -0.7052  0.0745 -0.1814
   75MOL   C13415082   4.182   6.008   7.261 -0.3427 -0.4771  0.4029
   75MOL   C13515083   4.064   5.961   7.171  0.3626  0.5078 -0.3234
   75MOL   N13615084   3.974   6.068   7.136 -0.1270  0.2973  0.2908
   75MOL   H13715085   4.148   6.063   7.349  2.2969  0.0499  1.1342
   75MOL   H13815086   4.234   5.928   7.315  0.2371 -0.2119  0.2352
   75MOL   H13915087   4.107   5.932   7.075 -2.0537 -1.4474 -0.8641
   75MOL   H14015088   4.009   5.874   7.208  1.5362  0.6256  1.7803
   75MOL   H14115089   4.003   6.104   7.047  0.9688 -2.3670 -0.4824
   75MOL   C14215090   3.895   6.133   7.226 -0.7283  0.1921  0.2150
   75MOL   O14315091   3.875   6.083   7.339  0.4559  0.2291 -0.3751
   75MOL   C14415092   3.848   6.271   7.190  0.0950  1.2220 -0.6472
   75MOL   C14515093   3.731   6.324   7.276 -0.1569 -0.0281 -0.5614
   75MOL   N14615094   3.602   6.278   7.230  0.5200 -0.6906 -0.5674
   75MOL   H14715095   3.841   6.290   7.083  0.2641  1.4024 -0.6251
   75MOL   H14815096   3.942   6.318   7.216 -1.1173  3.1511  0.3281
   75MOL   H14915097   3.750   6.287   7.376  0.5315 -0.0750 -0.7056
   75MOL   H15015098   3.742   6.429   7.304  1.1756  0.3021 -2.1747
   75MOL   H15115099   3.551   6.207   7.280 -1.0884  0.0751 -1.0855
   75MOL   C15215100   3.537   6.334   7.129 -0.8968 -0.5446 -0.8804
   75MOL   O15315101   3.588   6.424   7.060 -0.4530  0.1605 -0.0044
   75MOL   C15415102   3.400   6.282   7.081 -0.1063  0.0985  0.5696
   75MOL   C15515103   3.389   6.238   6.934 -0.0874  0.2035 -0.1792
   75MOL   N15615104   3.456   6.112   6.903  0.1042  0.6006 -0.1632
   75MOL   H15715105   3.326   6.360   7.096 -1.2039 -0.9607  0.7716
   75MOL   H15815106   3.382   6.197   7.148 -0.2565 -0.3316 -0.0157
   75MOL   H15915107   3.283   6.243   6.908 -0.5471  1.0578  1.7580
   75MOL   H16015108   3.440   6.315   6.876  0.8585  0.6229  1.1740
   75MOL   H16115109   3.546   6.101   6.859 -0.2309  1.2115 -1.0149
   75MOL   C16215110   3.385   5.996   6.912 -0.1259 -0.0286  0.7700
   75MOL   O16315111   3.263   5.990   6.953 -0.6709 -0.3979 -0.1437
   75MOL   C16415112   3.452   5.873   6.862 -0.4893 -0.1669  0.8618
   75MOL   C16515113   3.373   5.737   6.878 -0.5761 -0.4705 -1.0443
   75MOL   N16615114   3.402   5.636   6.772 -0.1336  0.4163 -0.0107
   75MOL   H16715115   3.549   5.874   6.911 -1.0402 -0.2842  1.9650
   75MOL   H16815116   3.470   5.890   6.756  1.6919 -0.8730  1.1033
   75MOL   H16915117   3.401   5.691   6.973  0.1818  1.0935 -0.4934
   75MOL   H17015118   3.266   5.753   6.889 -0.1413  2.2151 -0.3592
   75MOL   H17115119   3.493   5.643   6.729 -0.3457  1.0125 -0.3678
   75MOL   C17215120   3.336   5.518   6.753  0.7654 -0.0495 -0.0268
   75MOL   O17315121   3.227   5.492   6.813  0.5998 -0.3623 -0.5146
   75MOL   C17415122   3.387   5.420   6.646  1.1952  0.1930  0.2606
   75MOL   C17515123   3.514   5.336   6.672 -0.3085 -0.3439  0.6086
   75MOL   N17615124   3.641   5.391   6.627  0.1885  0.0541  0.1476
   75MOL   H17715125   3.389   5.473   6.551  0.6300  1.1413  0.7633
   75MOL   H17815126   3.308   5.346   6.630  0.3080  1.0047  0.8418
   75MOL   H17915127   3.511   5.320   6.780 -0.2107 -1.4565  0.4483
   75MOL   H18015128   3.488   5.242   6.624  1.9105  0.4427 -2.2918
   75MOL   H18115129   3.666   5.344   6.541 -0.3215  1.8579 -1.0202
   75MOL   C18215130   3.706   5.498   6.659  0.4460 -0.1223  0.4653
   75MOL   O18315131   3.658   5.577   6.738 -0.4831 -0.3933  0.0242
   75MOL   C18415132   3.837   5.533   6.585  0.5020 -0.1488 -1.0155
   75MOL   C18515133   3.904   5.661   6.636 -0.2270 -0.3897  0.0612
   75MOL   N18615134   3.822   5.780   6.617  0.3590 -0.2496  0.2470
   75MOL   H18715135   3.822   5.563   6.481  1.6224  0.3753 -1.0374
   75MOL   H18815136   3.908   5.450   6.583 -0.4514 -0.9671 -0.6203
   75MOL   H18915137   3.947   5.652   6.736 -0.4295 -1.1235  0.0821
   75MOL   H19015138   3.992   5.671   6.573 -0.4084 -0.3892 -0.1918
   75MOL   H19115139   3.750   5.779   6.547  0.3305 -1.2725  0.2832
   75MOL   C19215140   3.856   5.899   6.672 -0.0106 -0.3582  0.0985
   75MOL   O19315141   3.946   5.903   6.753  0.0797  0.2171  0.8813
   75MOL   C19415142   3.762   6.016   6.646  0.0754  1.0343  0.1132
   75MOL   C19515143   3.772   6.130   6.750 -0.6298 -0.1079 -0.2168
   75MOL   N19615144   3.733   6.102   6.885 -0.6928 -0.0429  0.2837
   75MOL   H19715145   3.781   6.062   6.549  0.4040  2.1098  0.6867
   75MOL   H19815146   3.658   5.988   6.634  0.4859  0.4380 -2.3129
   75MOL   H19915147   3.878   6.152   6.765 -0.8748  0.6116  0.4963
   75MOL   H20015148   3.728   6.226   6.726 -0.0763  0.9158  2.6474
   75MOL   H20115149   3.805   6.060   6.940 -0.9141  0.1397  0.7156
   75MOL   H20215150   3.724   6.192   6.930 -4.1510 -1.1004  1.8917
   76MOL     C115151   4.789   4.495   2.067  0.1396 -0.6392  0.2879
   76MOL     O215152   4.894   4.496   2.005 -0.0594  0.4048  0.3858
   76MOL     C315153   4.776   4.413   2.193  0.4637 -0.3615  0.0973
   76MOL     C415154   4.765   4.255   2.161  0.8259  0.3467 -0.7320
   76MOL     N515155   4.667   4.234   2.057 -0.5767  0.7474 -0.1264
   76MOL     H615156   4.689   4.457   2.242  1.7673  2.5034 -0.1215
   76MOL     H715157   4.869   4.431   2.247  0.9557 -1.8373 -0.2358
   76MOL     H815158   4.746   4.199   2.252 -0.6436 -1.2841 -2.0030
   76MOL     H915159   4.868   4.231   2.134  1.4941 -0.2803  2.2065
   76MOL    H1015160   4.705   4.202   1.969 -0.8954  1.1734 -0.4254
   76MOL    H1115161   4.699   4.552   2.045  0.7115 -0.0583 -0.5603
   76MOL    C1215162   4.526   4.251   2.068  0.0523 -0.2317  0.6130
   76MOL    O1315163   4.473   4.294   2.173 -0.5587  0.1927 -0.4624
   76MOL    C1415164   4.436   4.202   1.954 -0.1219 -0.2143  0.5703
   76MOL    C1515165   4.309   4.279   1.947 -0.5035 -0.0671  0.8386
   76MOL    N1615166   4.220   4.249   2.063  0.2765 -0.1309  0.0403
   76MOL    H1715167   4.409   4.101   1.985 -1.4077  0.2381  0.9778
   76MOL    H1815168   4.488   4.195   1.858 -0.0003  1.0475  0.5378
   76MOL    H1915169   4.335   4.385   1.946 -0.3449 -0.0904 -3.0173
   76MOL    H2015170   4.255   4.244   1.859 -1.5496  0.2878  1.3273
   76MOL    H2115171   4.227   4.314   2.140 -1.2038 -0.1716  0.2355
   76MOL    C2215172   4.140   4.141   2.076 -0.1843 -0.0532  1.0413
   76MOL    O2315173   4.128   4.052   1.995 -0.4814 -0.1218  0.3624
   76MOL    C2415174   4.056   4.124   2.201  0.1002  0.9250  0.1411
   76MOL    C2515175   4.103   3.990   2.274  0.2541  0.0292 -0.7073
   76MOL    N2615176   4.239   4.002   2.325 -0.0943  0.2085  0.2817
   76MOL    H2715177   3.952   4.130   2.170 -0.7989  0.8718  2.9980
   76MOL    H2815178   4.082   4.204   2.270 -0.2311 -0.3758  1.8003
   76MOL    H2915179   4.041   3.966   2.360  1.8442 -1.0986  0.1616
   76MOL    H3015180   4.095   3.916   2.194  2.1125  0.6397 -1.4842
   76MOL    H3115181   4.257   4.073   2.395  0.4125 -0.0643  0.4323
   76MOL    C3215182   4.347   3.948   2.269  0.6540 -0.0941 -0.4975
   76MOL    O3315183   4.338   3.855   2.192  0.6710 -0.0447 -0.9034
   76MOL    C3415184   4.485   4.003   2.313 -0.0317 -0.8839 -0.7033
   76MOL    C3515185   4.568   3.902   2.393 -0.2090  0.3036 -0.2540
   76MOL    N3615186   4.559   3.919   2.539 -0.4217 -0.1651  0.1000
   76MOL    H3715187   4.497   4.103   2.354  2.3009 -1.4060  0.0019
   76MOL    H3815188   4.529   4.011   2.214  0.3289  2.5864 -0.3333
   76MOL    H3915189   4.541   3.801   2.361  0.3001  0.0670  0.0422
   76MOL    H4015190   4.674   3.911   2.368  0.0794 -0.2172  0.7652
   76MOL    H4115191   4.505   4.000   2.568 -2.0152 -1.9355  2.1848
   76MOL    C4215192   4.596   3.830   2.628 -0.0902  0.0962 -0.4493
   76MOL    O4315193   4.643   3.724   2.595  0.3097  0.2474 -0.0091
   76MOL    C4415194   4.563   3.866   2.774  0.7324 -0.2966  0.0415
   76MOL    C4515195   4.576   3.753   2.877 -0.1017  0.3514 -0.6112
   76MOL    N4615196   4.492   3.777   2.996 -0.5756 -0.3586  0.1573
   76MOL    H4715197   4.630   3.947   2.803 -0.8552  0.7834  0.7593
   76MOL    H4815198   4.465   3.913   2.781  0.2057 -1.0899 -1.6515
   76MOL    H4915199   4.559   3.664   2.816  1.3233  0.6199 -1.4112
   76MOL    H5015200   4.680   3.736   2.903 -1.0475 -1.3325  2.3285
   76MOL    H5115201   4.516   3.856   3.055 -1.6676 -0.8661  1.3067
   76MOL    C5215202   4.374   3.716   3.002  0.2034 -0.0132 -0.2583
   76MOL    O5315203   4.337   3.621   2.929  0.0860  0.2853 -0.4855
   76MOL    C5415204   4.280   3.779   3.109  0.2901  0.0350  0.2752
   76MOL    C5515205   4.130   3.753   3.087  0.1629 -0.5681  0.5896
   76MOL    N5615206   4.097   3.612   3.078  0.2909 -0.1906  0.1238
   76MOL    H5715207   4.298   3.724   3.202 -1.7819  1.2870  1.4638
   76MOL    H5815208   4.297   3.883   3.135 -0.2020  0.6589 -1.7910
   76MOL    H5915209   4.084   3.800   3.000  0.4766 -0.9510  0.2188
   76MOL    H6015210   4.080   3.803   3.170  0.2207  0.4906 -0.0036
   76MOL    H6115211   4.061   3.578   2.990  1.1474  1.1447 -0.7536
   76MOL    C6215212   4.080   3.527   3.180 -0.1048 -0.3226 -0.8878
   76MOL    O6315213   4.089   3.569   3.296  0.0568  0.2169 -0.7604
   76MOL    C6415214   4.031   3.387   3.155 -0.2109  0.6446 -0.0943
   76MOL    C6515215   3.894   3.353   3.212 -0.1608 -0.2604  1.0682
   76MOL    N6615216   3.784   3.413   3.131 -0.8611  0.5683  0.1528
   76MOL    H6715217   4.031   3.360   3.050 -1.3650  1.7438 -0.3885
   76MOL    H6815218   4.108   3.322   3.197 -1.6390 -0.8966  0.1986
   76MOL    H6915219   3.898   3.245   3.198 -1.0204 -0.1606 -0.0639
   76MOL    H7015220   3.889   3.380   3.317  2.0897  0.9305  0.8873
   76MOL    H7115221   3.788   3.514   3.129  2.7430  0.4755 -2.3683
   76MOL    C7215222   3.679   3.350   3.080  0.2344 -0.2044  0.0668
   76MOL    O7315223   3.656   3.232   3.080  0.4247  0.0352  0.0757
   76MOL    C7415224   3.574   3.448   3.029  0.1061 -0.1689  0.4668
   76MOL    C7515225   3.478   3.398   2.921  0.5620 -0.1184  0.4175
   76MOL    N7615226   3.376   3.501   2.880  0.4736 -0.1490 -0.2180
   76MOL    H7715227   3.529   3.493   3.117  0.0903  1.4458 -0.3390
   76MOL    H7815228   3.635   3.525   2.981 -1.1123  0.0959 -0.6792
   76MOL    H7915229   3.540   3.372   2.834  2.4952  3.1958  0.7151
   76MOL    H8015230   3.423   3.309   2.950  2.5254 -1.5191 -0.0019
   76MOL    H8115231   3.413   3.572   2.818 -1.8195  1.1188 -0.1729
   76MOL    C8215232   3.241   3.499   2.903 -0.2424 -0.0515  1.3886
   76MOL    O8315233   3.181   3.411   2.959 -0.1808 -0.2414 -0.7500
   76MOL    C8415234   3.156   3.614   2.859 -0.1673  0.6192  0.0009
   76MOL    C8515235   3.045   3.573   2.765  0.0631 -0.2982  0.3574
   76MOL    N8615236   3.084   3.523   2.636 -0.5059  0.2021  0.1156
   76MOL    H8715237   3.110   3.648   2.952  0.3705  0.4858  0.3208
   76MOL    H8815238   3.213   3.701   2.825 -0.3072  1.2537  1.3290
   76MOL    H8915239   2.988   3.486   2.799  0.5104 -0.1181  1.5840
   76MOL    H9015240   2.975   3.656   2.756 -0.0070 -0.3391  0.5195
   76MOL    H9115241   3.048   3.433   2.610 -1.1052  0.9247 -1.6506
   76MOL    C9215242   3.158   3.598   2.542 -0.0845  0.1863 -0.6008
   76MOL    O9315243   3.166   3.720   2.554  0.4501 -0.3743  0.1651
   76MOL    C9415244   3.209   3.533   2.416 -0.1955  0.1695 -0.2055
   76MOL    C9515245   3.197   3.625   2.295 -0.2817  0.0018  0.6597
   76MOL    N9615246   3.251   3.558   2.178 -0.1987  0.2982 -0.6784
   76MOL    H9715247   3.308   3.490   2.431  0.3257  0.0497 -3.5304
   76MOL    H9815248   3.145   3.446   2.398 -1.3814  0.0988  3.8869
   76MOL    H9915249   3.094   3.653   2.268 -0.6194 -1.0224  0.8652
   76MOL   H10015250   3.243   3.717   2.329 -0.8269  0.3453  0.4797
   76MOL   H10115251   3.213   3.468   2.152  2.4678 -1.4609  1.1502
   76MOL   C10215252   3.353   3.613   2.106  0.1112 -0.3921 -0.6410
   76MOL   O10315253   3.419   3.708   2.151  0.2142 -0.4216  0.4924
   76MOL   C10415254   3.390   3.543   1.971 -0.1931 -0.4886 -0.2090
   76MOL   C10515255   3.424   3.632   1.851 -0.4620  0.7739  0.8235
   76MOL   N10615256   3.400   3.574   1.723  0.1213  0.0366  0.3659
   76MOL   H10715257   3.298   3.489   1.952 -0.0598 -1.2277  1.1876
   76MOL   H10815258   3.459   3.464   2.001 -0.3001 -1.1406 -1.6406
   76MOL   H10915259   3.362   3.721   1.851  0.7980  1.6821 -0.4090
   76MOL   H11015260   3.528   3.663   1.860 -0.4876  0.8583  0.8256
   76MOL   H11115261   3.476   3.524   1.678  0.2247 -0.3955  1.0104
   76MOL   C11215262   3.283   3.564   1.660 -0.3252 -0.6590 -0.8188
   76MOL   O11315263   3.176   3.599   1.709  0.2690 -0.2198 -0.1825
   76MOL   C11415264   3.289   3.503   1.519  0.6667  0.7144  0.1141
   76MOL   C11515265   3.157   3.433   1.482  0.2194  0.3414 -0.4731
   76MOL   N11615266   3.084   3.504   1.372 -0.0171 -0.4224  0.1963
   76MOL   H11715267   3.365   3.425   1.521 -0.6070 -0.5790 -0.9275
   76MOL   H11815268   3.312   3.579   1.445 -2.4017  1.6400  0.0284
   76MOL   H11915269   3.179   3.331   1.450  0.6996  1.0278 -2.4179
   76MOL   H12015270   3.084   3.431   1.563  0.6483  0.6136 -0.0792
   76MOL   H12115271   3.125   3.588   1.335 -2.0138  0.2095 -0.6900
   76MOL   C12215272   2.956   3.493   1.334  0.6420  0.7974 -0.5479
   76MOL   O12315273   2.880   3.421   1.398  0.2919  0.1841 -0.0733
   76MOL   C12415274   2.916   3.574   1.213  0.0011  1.2054 -0.2729
   76MOL   C12515275   2.771   3.550   1.188  0.4323  0.1289 -0.0009
   76MOL   N12615276   2.725   3.607   1.061  0.5554  0.4739 -0.2527
   76MOL   H12715277   2.974   3.532   1.131 -0.9531 -2.6688  0.9278
   76MOL   H12815278   2.941   3.679   1.228 -1.7551  1.5564  0.3158
   76MOL   H12915279   2.735   3.447   1.182 -0.8589  0.5607  0.1434
   76MOL   H13015280   2.716   3.600   1.268  1.3635 -1.1870  1.4911
   76MOL   H13115281   2.696   3.537   0.993  3.0115  2.1081 -3.1007
   76MOL   C13215282   2.731   3.739   1.023  0.1859 -0.0473  0.2884
   76MOL   O13315283   2.774   3.826   1.092  0.0729 -0.9090  0.1662
   76MOL   C13415284   2.674   3.771   0.883 -0.2584 -0.0593 -0.1157
   76MOL   C13515285   2.656   3.919   0.845  0.0962  0.6240  0.4748
   76MOL   N13615286   2.541   3.972   0.917 -0.2279  0.0678 -0.2172
   76MOL   H13715287   2.579   3.727   0.855 -0.6914  0.5548  0.3823
   76MOL   H13815288   2.754   3.736   0.818 -1.2942 -0.6865 -1.0664
   76MOL   H13915289   2.744   3.977   0.874  0.5871  0.6480 -1.0030
   76MOL   H14015290   2.643   3.934   0.738 -0.9094  1.1290  0.6649
   76MOL   H14115291   2.473   3.898   0.933 -0.3429  0.0807 -0.6429
   76MOL   C14215292   2.501   4.097   0.946  0.5474 -0.2963  0.0287
   76MOL   O14315293   2.569   4.197   0.918  0.3502  0.2731  0.7737
   76MOL   C14415294   2.377   4.099   1.035 -0.1848  0.1229 -0.0947
   76MOL   C14515295   2.404   4.070   1.182 -0.0461  0.3261  0.0622
   76MOL   N14615296   2.474   4.188   1.229 -0.1210 -0.3383  0.5308
   76MOL   H14715297   2.313   4.018   0.997 -1.1366  1.6423 -1.8017
   76MOL   H14815298   2.323   4.192   1.018  0.5739  0.7414  0.8670
   76MOL   H14915299   2.308   4.053   1.229 -0.4210  0.2569 -0.7158
   76MOL   H15015300   2.470   3.983   1.189 -1.7576 -1.2023 -1.9770
   76MOL   H15115301   2.549   4.232   1.178 -1.7268 -1.2484 -2.7752
   76MOL   C15215302   2.459   4.235   1.352 -0.3577  0.5650  0.3267
   76MOL   O15315303   2.392   4.171   1.433  0.0882  0.7611  0.1044
   76MOL   C15415304   2.535   4.364   1.389  0.5508  0.2286 -0.6044
   76MOL   C15515305   2.684   4.343   1.442 -0.2043  0.7227  0.5310
   76MOL   N15615306   2.761   4.262   1.348 -0.2899 -0.1256  0.5494
   76MOL   H15715307   2.478   4.403   1.473  1.5192  0.8357 -0.2199
   76MOL   H15815308   2.528   4.445   1.316 -1.0365 -0.4591 -1.2208
   76MOL   H15915309   2.733   4.437   1.467 -0.3533  0.6241  1.2080
   76MOL   H16015310   2.689   4.277   1.529  2.0442 -0.9351 -0.8014
   76MOL   H16115311   2.798   4.173   1.376  0.9342 -0.5494 -2.2721
   76MOL   C16215312   2.794   4.309   1.224 -0.6682 -0.2281 -0.9919
   76MOL   O16315313   2.765   4.424   1.187 -1.0837  0.5286  0.4981
   76MOL   C16415314   2.850   4.205   1.123 -0.3636  0.1188  0.0384
   76MOL   C16515315   2.925   4.264   1.006  0.2709  0.1713  0.0079
   76MOL   N16615316   2.844   4.287   0.887  0.6419  0.1464 -0.0666
   76MOL   H16715317   2.771   4.137   1.091  0.2198 -0.6299  0.1711
   76MOL   H16815318   2.928   4.146   1.172  1.1799  0.7499 -1.5901
   76MOL   H16915319   2.985   4.350   1.037  0.6267  0.9991 -2.8056
   76MOL   H17015320   3.002   4.193   0.975  0.4227 -0.1673  1.1297
   76MOL   H17115321   2.755   4.332   0.906  0.6705  0.8340 -1.5671
   76MOL   C17215322   2.860   4.230   0.768  0.0853  0.8685 -0.1296
   76MOL   O17315323   2.941   4.139   0.743 -0.3458  0.1863 -0.1808
   76MOL   C17415324   2.763   4.262   0.652 -0.0065 -0.1760  0.2773
   76MOL   C17515325   2.787   4.233   0.507  0.2438 -0.2195  0.1684
   76MOL   N17615326   2.877   4.331   0.446 -0.4292  0.2341  0.3057
   76MOL   H17715327   2.708   4.352   0.679  0.7394  0.5523 -0.6023
   76MOL   H17815328   2.679   4.195   0.672  1.2478 -1.4881  1.3380
   76MOL   H17915329   2.832   4.136   0.489 -1.4009 -0.9553 -0.0762
   76MOL   H18015330   2.690   4.233   0.456 -0.3569 -0.3326  1.2981
   76MOL   H18115331   2.842   4.425   0.458  0.6875  0.8469 -1.1639
   76MOL   C18215332   2.998   4.311   0.390 -0.0559  0.0333  0.2632
   76MOL   O18315333   3.047   4.199   0.385  0.4272  0.7622 -0.0785
   76MOL   C18415334   3.066   4.428   0.310 -0.2270 -0.3383 -0.6443
   76MOL   C18515335   2.996   4.567   0.290  0.3336  0.4685 -0.0189
   76MOL   N18615336   3.048   4.642   0.409 -0.3827 -0.0764  0.2719
   76MOL   H18715337   3.088   4.378   0.215  0.8613 -0.0223 -0.5575
   76MOL   H18815338   3.161   4.444   0.360 -0.3690 -1.6007  0.0662
   76MOL   H18915339   3.043   4.607   0.200  0.6525  0.3517  0.0960
   76MOL   H19015340   2.888   4.577   0.286  0.1404 -1.3276  0.0326
   76MOL   H19115341   3.141   4.680   0.402  0.6497 -2.8153 -2.0772
   76MOL   C19215342   2.983   4.647   0.525  0.3206 -0.6215 -0.2569
   76MOL   O19315343   2.867   4.622   0.530  0.0251  0.1475  0.0964
   76MOL   C19415344   3.071   4.677   0.652 -0.2990  0.1570 -0.1503
   76MOL   C19515345   3.024   4.618   0.792 -0.2515  0.1670 -0.4139
   76MOL   N19615346   2.895   4.673   0.845 -0.2448  0.6326  0.6808
   76MOL   H19715347   3.170   4.637   0.630  0.7939  3.1452 -0.9806
   76MOL   H19815348   3.088   4.784   0.669  0.4897 -0.1810  1.2475
   76MOL   H19915349   3.001   4.512   0.780  0.8210 -0.0392 -0.6624
   76MOL   H20015350   3.101   4.620   0.869 -1.6579 -1.1151  1.0575
   76MOL   H20115351   2.890   4.658   0.945  2.0016  2.5735  1.1222
   76MOL   H20215352   2.825   4.615   0.800  0.9702  0.4215 -0.9682
   77MOL     C115353   2.308   6.583   4.745 -0.0785 -0.0713  0.1295
   77MOL     O215354   2.389   6.536   4.670 -1.0189 -0.3145  0.1506
   77MOL     C315355   2.163   6.554   4.729 -0.0439 -0.1626  0.3599
   77MOL     C415356   2.118   6.443   4.634 -0.0492  0.0963  0.1121
   77MOL     N515357   2.044   6.339   4.705  0.4014 -0.1729  0.3111
   77MOL     H615358   2.128   6.651   4.691  1.9423  1.4930  2.6215
   77MOL     H715359   2.122   6.540   4.829 -0.5560  0.1725  0.2015
   77MOL     H815360   2.198   6.383   4.590  1.2363  0.1697  2.2742
   77MOL     H915361   2.057   6.489   4.557 -1.6628  1.6181  2.2537
   77MOL    H1015362   2.009   6.362   4.797 -1.2234 -1.5365  0.0628
   77MOL    H1115363   2.335   6.633   4.838  0.9372 -1.8071  0.7922
   77MOL    C1215364   1.980   6.238   4.645  1.1497 -0.1367 -0.6303
   77MOL    O1315365   1.976   6.214   4.527 -0.3878 -0.2128  0.0628
   77MOL    C1415366   1.904   6.140   4.734  0.5291 -0.1173 -0.6379
   77MOL    C1515367   1.989   6.016   4.765 -0.1326 -0.1239  0.5365
   77MOL    N1615368   1.919   5.930   4.859 -0.3669 -0.0132 -0.3062
   77MOL    H1715369   1.808   6.107   4.695 -1.6485  2.0137  2.6571
   77MOL    H1815370   1.883   6.198   4.824  2.4474  2.2552 -1.6532
   77MOL    H1915371   2.006   5.966   4.670 -2.4668  0.6127 -0.3121
   77MOL    H2015372   2.081   6.055   4.809  0.1889 -0.9049  0.5544
   77MOL    H2115373   1.922   5.940   4.960 -0.0891  0.5438 -0.3710
   77MOL    C2215374   1.823   5.844   4.823 -0.2789  0.5237 -1.3859
   77MOL    O2315375   1.805   5.811   4.707  0.6333 -1.1467  0.1468
   77MOL    C2415376   1.742   5.785   4.938 -1.1235 -0.0546  0.6256
   77MOL    C2515377   1.702   5.644   4.917 -0.5356  0.6422  0.2635
   77MOL    N2615378   1.570   5.636   4.853 -0.1977 -0.3231  0.6169
   77MOL    H2715379   1.653   5.848   4.935 -0.2959  1.0845 -0.7493
   77MOL    H2815380   1.803   5.794   5.029 -0.7999 -1.2817  0.5316
   77MOL    H2915381   1.774   5.575   4.873 -0.9679  0.2201  0.2127
   77MOL    H3015382   1.684   5.611   5.019  0.0177 -1.2668 -0.2358
   77MOL    H3115383   1.526   5.721   4.822 -1.2920 -1.2463 -0.4200
   77MOL    C3215384   1.521   5.518   4.797  0.1725 -0.1292 -0.7562
   77MOL    O3315385   1.579   5.415   4.813  0.5692  0.0511  0.3935
   77MOL    C3415386   1.382   5.526   4.732  0.1016  0.7264 -0.5200
   77MOL    C3515387   1.368   5.451   4.601 -0.0542 -0.3378 -0.1058
   77MOL    N3615388   1.228   5.392   4.580  0.2513  0.1191  0.3988
   77MOL    H3715389   1.361   5.631   4.714 -0.6885  0.2283 -2.6599
   77MOL    H3815390   1.304   5.502   4.805  0.5401  2.6236  0.5808
   77MOL    H3915391   1.389   5.522   4.521 -0.9381  2.1598  1.8058
   77MOL    H4015392   1.449   5.379   4.585  0.7344  0.3793  0.6136
   77MOL    H4115393   1.153   5.438   4.629 -0.0638  1.7334 -1.5330
   77MOL    C4215394   1.201   5.286   4.505  0.5157 -0.3229 -0.3593
   77MOL    O4315395   1.291   5.225   4.451  0.6984  0.4765  1.0161
   77MOL    C4415396   1.055   5.248   4.499 -0.0976  0.8019 -0.3501
   77MOL    C4515397   1.023   5.097   4.494 -0.2308  0.4559 -0.2295
   77MOL    N4615398   0.987   5.052   4.626 -0.1600  0.0408  0.2116
   77MOL    H4715399   1.005   5.298   4.581 -0.3754  0.2102 -0.1553
   77MOL    H4815400   1.006   5.286   4.409  0.0560 -0.4163 -0.9692
   77MOL    H4915401   0.945   5.075   4.421 -0.8888  0.0128  0.6027
   77MOL    H5015402   1.108   5.033   4.469  0.5175  1.4130 -0.1316
   77MOL    H5115403   1.039   4.978   4.671 -1.4787 -1.3079 -0.4620
   77MOL    C5215404   0.865   5.080   4.680 -0.1563 -0.2831 -0.4597
   77MOL    O5315405   0.787   5.164   4.636 -0.5693 -0.4988 -0.3465
   77MOL    C5415406   0.834   5.002   4.803  0.3032 -0.3476  0.1410
   77MOL    C5515407   0.689   4.975   4.825 -0.2166  0.0783  0.1582
   77MOL    N5615408   0.618   4.902   4.720 -0.2699 -0.3564  0.2021
   77MOL    H5715409   0.873   4.900   4.802 -1.0969 -0.8895  0.0081
   77MOL    H5815410   0.888   5.043   4.888 -0.1779 -1.4836  1.0051
   77MOL    H5915411   0.637   5.070   4.833  0.6155  0.3735  2.8473
   77MOL    H6015412   0.666   4.914   4.913 -0.1777 -0.6604 -0.3345
   77MOL    H6115413   0.608   4.946   4.630  1.0907  2.5006  1.3742
   77MOL    C6215414   0.542   4.791   4.736 -0.4187  0.0017  0.2915
   77MOL    O6315415   0.529   4.737   4.843  0.3716 -0.0777 -0.4265
   77MOL    C6415416   0.488   4.726   4.607 -0.0195  0.7658 -1.1954
   77MOL    C6515417   0.478   4.579   4.606 -0.6521 -0.2987  0.0993
   77MOL    N6615418   0.511   4.531   4.473 -0.6108 -0.1698 -0.6841
   77MOL    H6715419   0.395   4.777   4.580 -0.5007  1.4564  1.6255
   77MOL    H6815420   0.563   4.746   4.531  3.1228 -3.3442  0.6571
   77MOL    H6915421   0.539   4.536   4.686 -0.2373  1.1398  0.5791
   77MOL    H7015422   0.372   4.557   4.619 -0.9540  0.3135 -1.2692
   77MOL    H7115423   0.525   4.604   4.405  0.5868  0.6460  0.4050
   77MOL    C7215424   0.551   4.405   4.449 -0.1778 -0.5983  0.2513
   77MOL    O7315425   0.541   4.324   4.540 -0.2766 -0.1351  0.0646
   77MOL    C7415426   0.614   4.357   4.320 -0.7043  0.4769  1.1307
   77MOL    C7515427   0.672   4.211   4.331 -0.1621  0.0594 -0.2674
   77MOL    N7615428   0.736   4.173   4.206  0.4675  0.2400 -0.1918
   77MOL    H7715429   0.542   4.358   4.238  1.0017  0.3171 -0.4163
   77MOL    H7815430   0.703   4.418   4.304 -0.8542  0.6861  1.0991
   77MOL    H7915431   0.746   4.204   4.411 -1.0871  1.0821  0.7036
   77MOL    H8015432   0.597   4.139   4.363 -2.0098  1.7992 -0.5626
   77MOL    H8115433   0.836   4.166   4.215  0.4865  0.7511  0.0148
   77MOL    C8215434   0.674   4.125   4.094  0.9060 -0.0207 -1.0277
   77MOL    O8315435   0.558   4.087   4.088  1.0175  0.2614  0.1637
   77MOL    C8415436   0.757   4.116   3.965  0.1443  0.7454 -0.4134
   77MOL    C8515437   0.684   4.120   3.830  0.7186 -0.3588  0.6958
   77MOL    N8615438   0.773   4.183   3.731  0.0012  0.5891 -0.1266
   77MOL    H8715439   0.829   4.198   3.966 -0.0771  0.9374  0.7692
   77MOL    H8815440   0.813   4.024   3.981  1.4213  1.6244  0.2447
   77MOL    H8915441   0.642   4.023   3.804  2.6011 -1.4071  1.5087
   77MOL    H9015442   0.604   4.194   3.834  1.4207  0.4677 -0.2326
   77MOL    H9115443   0.814   4.265   3.773 -0.3077 -0.0452  1.4596
   77MOL    C9215444   0.796   4.147   3.606 -0.1163  0.1342  0.3792
   77MOL    O9315445   0.738   4.049   3.561 -0.2347  0.4132  0.5638
   77MOL    C9415446   0.914   4.211   3.532  0.0759  0.2842 -0.4510
   77MOL    C9515447   0.861   4.312   3.437 -0.2395  0.4036 -0.0253
   77MOL    N9615448   0.965   4.395   3.379  0.2434  0.0107  0.0803
   77MOL    H9715449   0.980   4.257   3.604 -1.5083  1.6349  0.1803
   77MOL    H9815450   0.967   4.132   3.479 -0.7201 -0.5262 -0.0555
   77MOL    H9915451   0.814   4.261   3.353  1.0739  1.1526 -1.2563
   77MOL   H10015452   0.798   4.381   3.492 -0.5414  1.2215 -1.3634
   77MOL   H10115453   0.972   4.493   3.403  3.2756 -0.3046  0.6635
   77MOL   C10215454   1.054   4.366   3.285 -0.0551 -0.2399  0.0868
   77MOL   O10315455   1.065   4.251   3.243 -0.3527  1.0437  0.2536
   77MOL   C10415456   1.139   4.480   3.229 -0.1793 -0.4213  0.1888
   77MOL   C10515457   1.287   4.469   3.264 -0.1682 -0.4094 -0.1590
   77MOL   N10615458   1.324   4.472   3.408 -0.3761 -0.6927  0.0276
   77MOL   H10715459   1.096   4.573   3.264 -3.2666 -1.6251 -0.2593
   77MOL   H10815460   1.131   4.464   3.121  1.3037  3.1571 -0.5286
   77MOL   H10915461   1.324   4.370   3.236 -0.0822 -0.7854  1.2397
   77MOL   H11015462   1.349   4.544   3.217  0.0367 -1.5064 -1.6887
   77MOL   H11115463   1.410   4.423   3.427 -0.3754 -1.3831 -1.6440
   77MOL   C11215464   1.283   4.553   3.506  0.5520  0.3432 -0.3746
   77MOL   O11315465   1.195   4.632   3.492 -0.5432  0.5007 -0.2170
   77MOL   C11415466   1.348   4.537   3.645 -0.5296 -0.2682 -0.2138
   77MOL   C11515467   1.382   4.677   3.701  0.2454  0.4578 -0.1919
   77MOL   N11615468   1.471   4.663   3.815 -0.0496 -0.7633 -0.0918
   77MOL   H11715469   1.436   4.481   3.615 -0.4064  0.4389 -1.2053
   77MOL   H11815470   1.282   4.473   3.704  1.4964 -0.2703  2.1479
   77MOL   H11915471   1.438   4.737   3.630 -0.2788 -0.0276 -1.0300
   77MOL   H12015472   1.294   4.727   3.741 -0.1472 -2.0741  2.2441
   77MOL   H12115473   1.561   4.707   3.815 -0.7240  0.6555 -0.3463
   77MOL   C12215474   1.435   4.623   3.936  0.5096  0.3140 -0.2351
   77MOL   O12315475   1.314   4.592   3.962  0.4123 -0.0039  0.2591
   77MOL   C12415476   1.543   4.604   4.039 -0.0196  0.2768  0.2455
   77MOL   C12515477   1.491   4.626   4.182  0.2176  0.0170 -0.2211
   77MOL   N12615478   1.468   4.763   4.217 -0.2358 -0.1485  0.1614
   77MOL   H12715479   1.633   4.663   4.021  0.6863 -0.2983  1.7397
   77MOL   H12815480   1.579   4.501   4.037  1.8719  0.8511  2.4134
   77MOL   H12915481   1.403   4.564   4.197  1.4808 -2.1484 -1.5557
   77MOL   H13015482   1.568   4.599   4.254  1.3435  2.2451 -0.5490
   77MOL   H13115483   1.371   4.789   4.222  0.1875  1.4530  0.4372
   77MOL   C13215484   1.556   4.861   4.236  0.0630  0.3303  0.4333
   77MOL   O13315485   1.676   4.846   4.217 -0.7945 -0.2321 -0.3387
   77MOL   C13415486   1.494   5.000   4.249  0.1065  0.5146 -1.0572
   77MOL   C13515487   1.533   5.090   4.137  0.8189 -0.3921 -0.0222
   77MOL   N13615488   1.496   5.224   4.175 -0.2956  0.1749 -0.0925
   77MOL   H13715489   1.521   5.040   4.347 -1.4338  0.4966 -0.6073
   77MOL   H13815490   1.385   4.996   4.252  0.2092 -2.7745  0.7345
   77MOL   H13915491   1.642   5.091   4.128  0.9330  1.6697  1.2350
   77MOL   H14015492   1.493   5.065   4.039  0.7279 -3.2884  0.7083
   77MOL   H14115493   1.559   5.270   4.239 -0.5106  0.4541 -0.0772
   77MOL   C14215494   1.410   5.306   4.121  0.1659 -0.1842  1.0754
   77MOL   O14315495   1.333   5.269   4.028  0.0120  0.2293 -0.1803
   77MOL   C14415496   1.404   5.454   4.166 -0.3004  0.1327  0.2417
   77MOL   C14515497   1.430   5.555   4.058  0.3530 -0.2843  0.0750
   77MOL   N14615498   1.569   5.579   4.021 -0.3370  0.5115  0.1047
   77MOL   H14715499   1.486   5.456   4.239  0.1556  0.4415 -0.2765
   77MOL   H14815500   1.312   5.481   4.217 -0.9604 -2.4652  0.4985
   77MOL   H14915501   1.375   5.527   3.969  0.1229  0.5604 -0.0533
   77MOL   H15015502   1.384   5.650   4.086 -0.6676 -1.1411  1.4048
   77MOL   H15115503   1.633   5.614   4.092 -3.1455  1.0123  2.4671
   77MOL   C15215504   1.626   5.565   3.900  0.0781 -0.4396  0.5925
   77MOL   O15315505   1.557   5.536   3.799 -0.5415 -0.2721 -0.2918
   77MOL   C15415506   1.769   5.590   3.903  0.3204 -0.6598  0.6644
   77MOL   C15515507   1.817   5.658   3.768 -0.4717 -0.4351 -0.1399
   77MOL   N15615508   1.954   5.618   3.738  0.2621 -0.6489  0.4943
   77MOL   H15715509   1.792   5.484   3.915 -0.3713 -0.8510  0.2784
   77MOL   H15815510   1.810   5.634   3.994 -0.7452 -0.1165  0.8824
   77MOL   H15915511   1.750   5.630   3.687  0.2432  2.6501 -1.8470
   77MOL   H16015512   1.809   5.766   3.776 -2.0479 -0.1666 -4.1258
   77MOL   H16115513   2.006   5.572   3.811  1.3066 -0.3505 -0.0566
   77MOL   C16215514   2.004   5.577   3.619 -0.3315  0.2979  0.3592
   77MOL   O16315515   1.938   5.582   3.511 -0.4383 -0.4618  0.4509
   77MOL   C16415516   2.146   5.525   3.614  0.2742 -0.2722  0.3162
   77MOL   C16515517   2.223   5.566   3.483  0.4089  0.1827  0.0453
   77MOL   N16615518   2.308   5.679   3.504 -0.1369  0.1737  0.1099
   77MOL   H16715519   2.142   5.416   3.627 -1.2387 -0.2943 -0.2458
   77MOL   H16815520   2.197   5.557   3.705  0.5647  0.8703 -0.2426
   77MOL   H16915521   2.291   5.485   3.456 -0.4621 -0.9179  1.0544
   77MOL   H17015522   2.150   5.569   3.403  1.1171 -5.1703 -1.0100
   77MOL   H17115523   2.402   5.657   3.532 -0.0519  0.9771  0.4609
   77MOL   C17215524   2.290   5.810   3.503 -0.9291 -0.3289 -0.1520
   77MOL   O17315525   2.180   5.862   3.475  0.1869 -0.4058  0.3716
   77MOL   C17415526   2.413   5.892   3.540  0.3467 -0.0084 -0.3258
   77MOL   C17515527   2.549   5.826   3.497  0.0044 -0.0102 -0.0019
   77MOL   N17615528   2.568   5.812   3.357  0.2520  0.1442  0.8938
   77MOL   H17715529   2.411   5.908   3.647 -1.4952  1.3925 -0.5356
   77MOL   H17815530   2.399   5.990   3.494 -0.0520  0.3929  0.6369
   77MOL   H17915531   2.631   5.887   3.535 -0.1951  1.8020 -2.4127
   77MOL   H18015532   2.559   5.720   3.522 -1.3027 -0.2662 -0.5242
   77MOL   H18115533   2.560   5.716   3.326  0.6173 -0.0809  1.4961
   77MOL   C18215534   2.597   5.912   3.271 -0.4711 -0.3133 -0.2191
   77MOL   O18315535   2.593   6.030   3.308  0.1127 -0.4016  0.0971
   77MOL   C18415536   2.627   5.873   3.130 -0.8508  0.0668  0.4970
   77MOL   C18515537   2.586   5.984   3.028 -0.3552  0.8389  0.2082
   77MOL   N18615538   2.656   5.979   2.900  0.7876 -0.5112  0.0836
   77MOL   H18715539   2.575   5.785   3.093  0.7471 -1.1326  1.0656
   77MOL   H18815540   2.735   5.861   3.137 -0.9404  0.2456  2.4631
   77MOL   H18915541   2.480   5.966   3.011 -0.4197 -0.3362  1.7305
   77MOL   H19015542   2.600   6.084   3.070 -0.6927  1.0815 -0.2535
   77MOL   H19115543   2.632   5.905   2.835  1.3266  0.5928 -1.3998
   77MOL   C19215544   2.766   6.048   2.876 -0.7128  0.1548  0.5385
   77MOL   O19315545   2.817   6.124   2.960  0.3347  0.1931 -0.6043
   77MOL   C19415546   2.837   6.017   2.739  0.2220  0.3109 -0.0813
   77MOL   C19515547   2.987   6.038   2.746 -0.3749 -0.3786 -0.2557
   77MOL   N19615548   3.053   6.007   2.622 -0.6421  0.1376  0.0796
   77MOL   H19715549   2.804   5.924   2.691 -2.7956  1.6609 -0.7963
   77MOL   H19815550   2.804   6.094   2.669  1.4287  0.8120 -0.0964
   77MOL   H19915551   3.015   6.140   2.771 -0.5551 -0.3364 -0.2251
   77MOL   H20015552   3.014   5.966   2.824 -1.0575 -0.6592 -0.2752
   77MOL   H20115553   3.152   6.011   2.644 -0.3784  1.0346 -1.1894
   77MOL   H20215554   3.047   6.095   2.573 -0.2004  0.8138  1.1982
   78MOL     C115555   4.212   2.716   6.527 -0.6420 -0.0637  0.2575
   78MOL     O215556   4.223   2.828   6.469  0.4848 -0.3012 -0.2050
   78MOL     C315557   4.182   2.701   6.676 -0.3482  0.1745  0.1826
   78MOL     C415558   4.042   2.640   6.700  0.9470  0.1406  0.7117
   78MOL     N515559   3.930   2.731   6.730 -0.4155 -0.4546 -0.7210
   78MOL     H615560   4.197   2.794   6.730  1.0828 -0.0819  0.2464
   78MOL     H715561   4.264   2.645   6.721 -0.6076  0.0532  0.5059
   78MOL     H815562   4.067   2.578   6.786  2.4228  0.6899  0.6961
   78MOL     H915563   4.011   2.568   6.624 -0.9573  1.3759  0.2966
   78MOL    H1015564   3.953   2.828   6.746  2.2372 -1.0509 -0.7202
   78MOL    H1115565   4.213   2.622   6.473  0.8789 -1.3918  2.5178
   78MOL    C1215566   3.804   2.685   6.751  0.6053  0.4948  0.4066
   78MOL    O1315567   3.776   2.572   6.730  0.0893  0.3113 -0.0511
   78MOL    C1415568   3.701   2.792   6.804  0.3955 -0.0915  0.2708
   78MOL    C1515569   3.608   2.743   6.918 -0.0003 -0.1266  0.7716
   78MOL    N1615570   3.677   2.724   7.042  0.1321  0.7292  0.4116
   78MOL    H1715571   3.645   2.828   6.719 -1.1625  0.3680  1.4708
   78MOL    H1815572   3.753   2.878   6.845  1.3762 -0.8850  0.7244
   78MOL    H1915573   3.527   2.814   6.931 -0.1761 -0.5204  1.8604
   78MOL    H2015574   3.567   2.647   6.885 -1.2691  0.7721 -0.3526
   78MOL    H2115575   3.740   2.797   7.071 -0.0315  0.7679  0.6711
   78MOL    C2215576   3.635   2.650   7.145 -0.2095 -0.7140  0.4517
   78MOL    O2315577   3.548   2.568   7.141 -0.4320  0.0830 -0.0467
   78MOL    C2415578   3.692   2.687   7.282 -0.0437  0.4561  0.7862
   78MOL    C2515579   3.591   2.653   7.393  0.2680 -0.0484  0.7752
   78MOL    N2615580   3.641   2.696   7.523 -0.1277 -0.7640  0.5063
   78MOL    H2715581   3.706   2.796   7.285  1.5603  0.2425  2.2373
   78MOL    H2815582   3.790   2.640   7.287  0.4768  1.6834  2.9471
   78MOL    H2915583   3.488   2.690   7.382  0.3231 -0.2628 -0.5177
   78MOL    H3015584   3.579   2.545   7.389  0.5672 -0.0098 -1.1835
   78MOL    H3115585   3.727   2.748   7.532 -1.7178  2.5413 -2.1102
   78MOL    C3215586   3.580   2.671   7.638 -0.4091 -0.1305  0.4033
   78MOL    O3315587   3.479   2.604   7.646  0.3144  0.1554 -0.2666
   78MOL    C3415588   3.644   2.715   7.761 -0.2937  0.7022 -0.3261
   78MOL    C3515589   3.685   2.596   0.074 -0.0030 -0.3452  0.2571
   78MOL    N3615590   3.755   2.640   0.189 -0.0776  0.4644  0.6385
   78MOL    H3715591   3.569   2.779   0.026 -0.2802  0.4708  0.0220
   78MOL    H3815592   3.735   2.769   7.736  0.0741  0.8286  1.2183
   78MOL    H3915593   3.601   2.534   0.104 -0.3935  0.2993  0.5219
   78MOL    H4015594   3.751   2.537   0.011  1.2686 -0.6344  1.8267
   78MOL    H4115595   3.845   2.676   0.162  0.0522 -2.3033 -2.9880
   78MOL    C4215596   3.718   2.645   0.317  0.3649  0.8387  0.4092
   78MOL    O4315597   3.612   2.604   0.360 -0.2888  0.3977 -0.0860
   78MOL    C4415598   3.825   2.708   0.407 -0.8479 -0.4273 -0.3130
   78MOL    C4515599   3.801   2.674   0.559  0.2240 -0.2625 -0.3394
   78MOL    N4615600   3.905   2.738   0.636 -0.4197 -0.1936  0.3908
   78MOL    H4715601   3.920   2.663   0.379 -1.1395 -1.3878  0.2280
   78MOL    H4815602   3.831   2.813   0.381 -0.6158 -0.2653  0.3740
   78MOL    H4915603   3.707   2.723   0.581  0.2341 -0.1413 -0.5612
   78MOL    H5015604   3.791   2.567   0.580 -2.8765  0.3373  1.4085
   78MOL    H5115605   3.865   2.814   0.689 -0.5347 -1.2233  1.8045
   78MOL    C5215606   4.032   2.709   0.649 -0.3652 -0.0134  0.2436
   78MOL    O5315607   4.082   2.611   0.597  0.4231 -0.0850  0.0898
   78MOL    C5415608   4.111   2.790   0.755  0.0192 -0.3334 -0.4102
   78MOL    C5515609   4.262   2.764   0.745 -0.4558  0.5592  0.1289
   78MOL    N5615610   4.330   2.799   0.872 -0.6924 -0.4332  0.0050
   78MOL    H5715611   4.082   2.894   0.767 -4.6451 -1.5803 -0.0491
   78MOL    H5815612   4.082   2.747   0.851 -0.8478  0.1265 -0.4603
   78MOL    H5915613   4.313   2.826   0.671  0.2969 -1.2276 -0.8720
   78MOL    H6015614   4.295   2.665   0.713 -0.0223  0.4615  0.8617
   78MOL    H6115615   4.339   2.727   0.942 -1.9574 -0.9157 -0.2998
   78MOL    C6215616   4.370   2.922   0.899  0.5302  0.8310 -0.1566
   78MOL    O6315617   4.368   3.015   0.823  0.3554 -0.1795 -0.1389
   78MOL    C6415618   4.411   2.947   1.041  0.8169  0.0047 -0.3810
   78MOL    C6515619   4.568   2.963   1.056  0.8999  0.4763 -0.4090
   78MOL    N6615620   4.610   2.955   1.195 -0.4487  0.0640  0.2183
   78MOL    H6715621   4.371   3.043   1.074 -0.7282 -0.5149 -0.6860
   78MOL    H6815622   4.368   2.874   1.109  0.4936  0.5412 -0.0077
   78MOL    H6915623   4.611   2.875   1.009  0.0888 -0.7793  1.1396
   78MOL    H7015624   4.598   3.054   1.004  0.4583  1.5088  1.0892
   78MOL    H7115625   4.546   2.899   1.250  1.5938  1.0705  3.7600
   78MOL    C7215626   4.687   3.043   1.254  0.7240 -0.2804 -0.1578
   78MOL    O7315627   4.752   3.133   1.201 -0.2973  0.1548 -0.6057
   78MOL    C7415628   4.681   3.024   1.405 -0.1919  0.4275 -0.8591
   78MOL    C7515629   4.590   3.122   1.481  0.9134 -0.6213 -0.2934
   78MOL    N7615630   4.452   3.111   1.448  0.4212  0.1405 -0.5296
   78MOL    H7715631   4.674   2.917   1.427 -0.0441  0.7483  0.7474
   78MOL    H7815632   4.783   3.040   1.440 -0.3419 -4.1939  2.0802
   78MOL    H7915633   4.608   3.105   1.588  2.5121  1.6929 -0.1538
   78MOL    H8015634   4.630   3.223   1.482  0.3029 -0.3841  0.2059
   78MOL    H8115635   4.412   3.018   1.447  1.0952 -0.1472 -2.1006
   78MOL    C8215636   4.361   3.207   1.416  0.0883  0.8222 -0.2476
   78MOL    O8315637   4.388   3.327   1.427  0.1906 -0.1186  0.0715
   78MOL    C8415638   4.226   3.156   1.356 -0.5052  0.1925  0.4222
   78MOL    C8515639   4.166   3.247   1.242 -0.0526  0.0653  0.3140
   78MOL    N8615640   4.025   3.222   1.210  0.4451 -0.7754 -0.4832
   78MOL    H8715641   4.236   3.055   1.315  0.9067  0.6105 -0.3088
   78MOL    H8815642   4.151   3.164   1.435 -0.3245  2.2149  0.4203
   78MOL    H8915643   4.174   3.355   1.254 -1.6528  0.3541 -1.0978
   78MOL    H9015644   4.218   3.223   1.148 -2.5564 -0.0093 -1.0933
   78MOL    H9115645   3.952   3.283   1.244  0.7551 -1.2535  1.0909
   78MOL    C9215646   3.991   3.113   1.143  0.0823  0.3532  0.1453
   78MOL    O9315647   4.071   3.037   1.084  0.1674 -0.3123  0.7783
   78MOL    C9415648   3.841   3.100   1.113 -0.6188  0.4555  0.0156
   78MOL    C9515649   3.815   2.962   1.031 -0.2913  0.2679 -0.4072
   78MOL    N9615650   3.676   2.964   0.977 -0.4848  0.0031  0.1032
   78MOL    H9715651   3.796   3.082   1.211 -0.0462 -0.0166  0.2024
   78MOL    H9815652   3.791   3.179   1.058  2.5186  1.8938 -0.8675
   78MOL    H9915653   3.878   2.937   0.946 -1.1379  0.0421 -0.9775
   78MOL   H10015654   3.824   2.873   1.094 -1.4500 -0.2132 -0.9089
   78MOL   H10115655   3.669   2.958   0.877  2.7588 -2.6197 -0.0285
   78MOL   C10215656   3.569   2.974   1.057  0.3932  0.2388 -0.4818
   78MOL   O10315657   3.580   2.960   1.183  0.5802 -0.4232  0.0221
   78MOL   C10415658   3.439   2.997   0.986  0.1351  0.3199 -0.6502
   78MOL   C10515659   3.385   3.140   1.000 -0.1027  0.5090 -1.0842
   78MOL   N10615660   3.247   3.145   0.966 -0.2360  0.3051 -0.3179
   78MOL   H10715661   3.362   2.931   1.026 -0.0342  0.1867 -1.1927
   78MOL   H10815662   3.457   2.976   0.880 -2.3784 -0.0712 -1.0121
   78MOL   H10915663   3.395   3.177   1.101 -0.4734 -1.6366 -0.2227
   78MOL   H11015664   3.446   3.199   0.933 -0.3613  1.4748 -0.4703
   78MOL   H11115665   3.230   3.163   0.868 -1.5716 -0.4512 -0.2511
   78MOL   C11215666   3.139   3.143   1.046  0.0274 -0.2220 -0.4771
   78MOL   O11315667   3.155   3.117   1.164 -0.1705  0.3190 -0.1869
   78MOL   C11415668   3.011   3.198   0.982 -0.3214 -0.2030  0.5274
   78MOL   C11515669   2.886   3.204   1.065 -0.0944  0.3255  0.0193
   78MOL   N11615670   2.813   3.082   1.093  0.4540 -0.6425  0.2784
   78MOL   H11715671   2.989   3.137   0.895 -0.0771  0.0450  0.2916
   78MOL   H11815672   3.034   3.300   0.949  0.4172 -0.7071 -0.5479
   78MOL   H11915673   2.898   3.254   1.161  1.8162  1.2863 -0.6988
   78MOL   H12015674   2.816   3.281   1.033 -2.2207 -0.1625  3.2603
   78MOL   H12115675   2.812   3.058   1.191 -0.3392 -0.2197  0.3828
   78MOL   C12215676   2.726   3.024   1.013 -0.8206 -0.1050 -0.0372
   78MOL   O12315677   2.713   3.054   0.895 -0.3882  0.0715  0.5788
   78MOL   C12415678   2.640   2.912   1.072  0.7584  0.3457  0.0053
   78MOL   C12515679   2.496   2.958   1.117  1.1287  0.1104  0.6969
   78MOL   N12615680   2.499   3.032   1.238  0.5234 -0.3325  0.3753
   78MOL   H12715681   2.695   2.870   1.156 -0.0229  1.3266  1.0232
   78MOL   H12815682   2.625   2.838   0.994  1.2908 -0.8847  1.0432
   78MOL   H12915683   2.463   3.022   1.035  0.4659  0.1961  1.0332
   78MOL   H13015684   2.427   2.874   1.127  0.3828  0.7014  0.5385
   78MOL   H13115685   2.462   2.970   1.308 -0.8795 -1.8467 -1.6629
   78MOL   C13215686   2.516   3.158   1.263 -0.6482 -0.2798  0.0854
   78MOL   O13315687   2.540   3.243   1.176 -0.7961  0.0473  0.3878
   78MOL   C13415688   2.479   3.198   1.410  0.7779  0.9020  0.4531
   78MOL   C13515689   2.592   3.254   1.497 -0.3497  0.7192  0.9375
   78MOL   N13615690   2.733   3.205   1.473 -0.1460  0.0473 -0.0053
   78MOL   H13715691   2.440   3.106   1.453  1.1842  1.0789  1.2114
   78MOL   H13815692   2.408   3.281   1.421  1.1220  1.0082  1.9489
   78MOL   H13915693   2.591   3.357   1.464 -0.3086  1.2821  2.6404
   78MOL   H14015694   2.565   3.238   1.602  0.8631  1.3212  1.3514
   78MOL   H14115695   2.792   3.283   1.447 -0.4777  0.1119 -0.5720
   78MOL   C14215696   2.782   3.083   1.507  0.8900  0.0624  0.1011
   78MOL   O14315697   2.713   2.984   1.547 -0.3166 -0.1160  0.2502
   78MOL   C14415698   2.935   3.056   1.486  0.5788  0.6660  0.3977
   78MOL   C14515699   2.958   2.945   1.383  0.5191  1.0547  0.1755
   78MOL   N14615700   3.100   2.933   1.365 -0.2522 -0.1752  0.1310
   78MOL   H14715701   2.992   3.034   1.576  0.4634  1.1024  0.5822
   78MOL   H14815702   2.980   3.149   1.452 -0.0370  0.5744 -0.6844
   78MOL   H14915703   2.918   2.849   1.415 -0.7746  1.2131 -0.9667
   78MOL   H15015704   2.913   2.970   1.288  2.5143 -2.4254 -1.7832
   78MOL   H15115705   3.139   2.994   1.295  0.5234  0.3078  0.9686
   78MOL   C15215706   3.184   2.854   1.433 -0.3718  0.0877  0.0339
   78MOL   O15315707   3.148   2.788   1.533 -0.6558  0.2964 -0.1407
   78MOL   C15415708   3.333   2.862   1.383  0.5204 -0.0716 -0.3312
   78MOL   C15515709   3.420   2.750   1.456 -0.2338  0.3805  0.6382
   78MOL   N15615710   3.434   2.766   1.604  0.9195  0.3215 -0.4205
   78MOL   H15715711   3.391   2.953   1.397  0.1741 -0.0161  0.7398
   78MOL   H15815712   3.333   2.834   1.277  2.0383 -1.4972  0.0298
   78MOL   H15915713   3.373   2.656   1.428  2.6151 -0.2960 -2.1133
   78MOL   H16015714   3.514   2.764   1.402 -0.8693 -1.2449 -0.9179
   78MOL   H16115715   3.381   2.839   1.648 -0.2309 -1.0938  0.5768
   78MOL   C16215716   3.540   2.714   1.677 -0.7005 -0.7124 -1.4422
   78MOL   O16315717   3.630   2.641   1.618  0.3214  0.6832  0.2546
   78MOL   C16415718   3.553   2.745   1.826  0.3141  0.0576 -0.2869
   78MOL   C16515719   3.685   2.814   1.851  0.1527  0.0453  0.3671
   78MOL   N16615720   3.716   2.815   1.993 -0.2438 -0.0931 -0.4548
   78MOL   H16715721   3.531   2.661   1.890  1.7587  1.3874  2.0157
   78MOL   H16815722   3.475   2.818   1.851  0.4369  0.0757  0.0379
   78MOL   H16915723   3.769   2.776   1.792  2.3130 -0.7993  3.8551
   78MOL   H17015724   3.675   2.919   1.822 -0.9481  0.1839  1.2203
   78MOL   H17115725   3.762   2.736   2.036  2.1352  0.9156 -1.0450
   78MOL   C17215726   3.668   2.902   2.086 -0.3910  0.5254 -0.1670
   78MOL   O17315727   3.588   2.991   2.059 -0.4837 -0.3824  0.3509
   78MOL   C17415728   3.729   2.896   2.228  0.3162 -0.5633  0.3287
   78MOL   C17515729   3.618   2.898   2.328  0.1571  0.4495  0.2001
   78MOL   N17615730   3.666   2.872   2.460  0.8393  0.1541 -0.6393
   78MOL   H17715731   3.801   2.975   2.249 -2.0678  1.3831  1.3468
   78MOL   H17815732   3.783   2.801   2.232  0.1945 -0.8071 -2.6697
   78MOL   H17915733   3.567   2.995   2.327  1.6077  1.2145 -1.6678
   78MOL   H18015734   3.545   2.823   2.301  0.1760 -0.2303  1.9689
   78MOL   H18115735   3.697   2.956   2.507 -0.4983  0.9354 -1.1328
   78MOL   C18215736   3.663   2.755   2.521 -0.1860  0.1760  0.1716
   78MOL   O18315737   3.611   2.656   2.461 -0.0755  0.1993 -0.3206
   78MOL   C18415738   3.705   2.749   2.664 -0.6751 -0.9010  0.5314
   78MOL   C18515739   3.746   2.600   2.707 -0.0752 -0.1266  0.3477
   78MOL   N18615740   3.883   2.559   2.687  0.7487  0.0236  0.0563
   78MOL   H18715741   3.612   2.775   2.715  0.9733  1.0868  2.6311
   78MOL   H18815742   3.789   2.817   2.678  0.4590 -1.8430 -1.4700
   78MOL   H18915743   3.724   2.586   2.813  0.3829 -1.3382  0.2799
   78MOL   H19015744   3.681   2.528   2.657 -0.7104  0.6134  0.0870
   78MOL   H19115745   3.892   2.471   2.638  1.3886  0.4479 -0.6007
   78MOL   C19215746   3.984   2.607   2.762 -0.0221  0.1965  0.5057
   78MOL   O19315747   3.974   2.708   2.835  0.0792 -0.2748 -0.0063
   78MOL   C19415748   4.110   2.526   2.761 -0.6734  0.3778 -0.5916
   78MOL   C19515749   4.235   2.571   2.849 -0.3428 -0.2106  0.5663
   78MOL   N19615750   4.288   2.697   2.826 -0.0835  0.0136  0.2920
   78MOL   H19715751   4.078   2.427   2.792 -0.2001  0.6431  0.8259
   78MOL   H19815752   4.135   2.515   2.656  0.7361 -0.6277 -0.1778
   78MOL   H19915753   4.224   2.568   2.957 -0.6443 -0.7542  0.5236
   78MOL   H20015754   4.317   2.501   2.833  1.1390  1.4077  1.0186
   78MOL   H20115755   4.215   2.764   2.848 -1.9730 -1.9679  0.2230
   78MOL   H20215756   4.372   2.731   2.870  0.2248  1.1189 -1.0997
   79MOL     C115757   5.510   0.498   6.473 -0.1492 -0.6415 -0.1050
   79MOL     O215758   5.514   0.618   6.449 -0.0204 -0.1896  0.0520
   79MOL     C315759   5.617   0.431   6.553 -0.2192 -0.3416 -0.2760
   79MOL     C415760   5.746   0.522   6.563 -0.1699 -0.4682  0.0968
   79MOL     N515761   5.794   0.564   6.433  0.1340 -0.4819  0.3046
   79MOL     H615762   5.652   0.341   6.502 -0.6445 -0.4129 -0.4433
   79MOL     H715763   5.581   0.414   6.655 -0.2302  1.3129  0.0136
   79MOL     H815764   5.828   0.483   6.624 -0.7715  0.8061  1.7330
   79MOL     H915765   5.715   0.608   6.622 -0.1622  1.1753 -2.2195
   79MOL    H1015766   5.779   0.658   6.399  1.7201  0.3464  1.8210
   79MOL    H1115767   5.429   0.434   6.438 -0.1213 -0.5606 -0.3165
   79MOL    C1215768   5.868   0.476   6.360  0.2158  1.0965  0.2995
   79MOL    O1315769   5.911   0.370   6.406 -0.6018 -0.5285 -0.0575
   79MOL    C1415770   5.887   0.515   6.215 -0.1311  0.4826 -0.1262
   79MOL    C1515771   5.859   0.417   6.092  0.5284  0.0699 -0.2874
   79MOL    N1615772   5.937   0.297   6.118 -0.2651 -0.4296 -0.9620
   79MOL    H1715773   5.986   0.560   6.207  0.3345 -0.8897 -2.8694
   79MOL    H1815774   5.830   0.606   6.193 -1.7321 -0.7239 -1.1595
   79MOL    H1915775   5.753   0.396   6.080 -0.0256  2.6576 -0.1963
   79MOL    H2015776   5.883   0.475   6.003  0.1216 -1.6775 -1.5718
   79MOL    H2115777   5.888   0.220   6.160 -0.6503  0.4459  0.2323
   79MOL    C2215778   6.060   0.261   6.079 -0.0240 -0.3009 -0.6405
   79MOL    O2315779   6.141   0.325   6.013 -0.0794  0.5522 -0.1242
   79MOL    C2415780   6.094   0.121   6.121  0.5208  0.1499  0.3465
   79MOL    C2515781   6.242   0.075   6.092 -0.3607 -0.2343  0.5521
   79MOL    N2615782   6.279   7.725   6.143 -0.0526 -0.4193  0.1265
   79MOL    H2715783   6.025   0.051   6.074 -0.1482 -0.0560  1.6299
   79MOL    H2815784   6.068   0.121   6.227  0.0945 -1.6528  0.2578
   79MOL    H2915785   6.244   0.076   5.983 -0.8632  0.6234  0.5440
   79MOL    H3015786   6.312   0.153   6.122  1.3195 -1.5133  0.0517
   79MOL    H3115787   6.284   7.725   6.244  1.4250 -0.2953  0.0711
   79MOL    C3215788   6.299   7.616   6.070  0.7694  0.3515  0.3252
   79MOL    O3315789   6.280   7.614   5.951  0.0879  0.4056  0.3389
   79MOL    C3415790   6.329   7.485   6.150 -0.0914  0.3956  0.6388
   79MOL    C3515791   6.468   7.432   6.109  0.5296  0.3378 -0.5955
   79MOL    N3615792   6.588   7.521   6.135 -0.5021 -0.2545  0.3449
   79MOL    H3715793   6.248   7.412   6.146 -1.4850  1.9482 -0.2823
   79MOL    H3815794   6.335   7.514   6.255 -1.2149 -1.6798  1.3102
   79MOL    H3915795   6.481   7.337   6.161  0.2064  0.7250  0.2026
   79MOL    H4015796   6.479   7.403   6.004  1.6212 -1.0304 -0.1345
   79MOL    H4115797   6.592   7.612   6.093 -0.0425  0.2809  1.5295
   79MOL    C4215798   6.686   7.503   6.225 -0.3911 -1.3144  0.1181
   79MOL    O4315799   6.698   7.403   6.292 -0.0231 -0.0930 -0.3938
   79MOL    C4415800   6.786   7.614   6.242  0.8507  0.4013 -0.6016
   79MOL    C4515801   6.860   7.595   6.380  0.2105  0.0788  0.0598
   79MOL    N4615802   6.976   7.692   6.384 -0.9118 -0.1623 -0.0221
   79MOL    H4715803   6.854   7.628   6.158 -2.1737  0.8395 -3.0483
   79MOL    H4815804   6.725   7.701   6.263 -0.4020 -0.6962  0.4137
   79MOL    H4915805   6.802   7.609   6.471 -1.5066 -1.6283 -0.7348
   79MOL    H5015806   6.915   7.501   6.384  1.0655  0.5493 -0.4382
   79MOL    H5115807   6.997   7.752   6.305  0.6149  1.6610  1.7046
   79MOL    C5215808   7.069   7.684   6.483  0.6621  0.2733 -0.1678
   79MOL    O5315809   7.062   7.605   6.583  0.1351  0.0046  0.4360
   79MOL    C5415810   7.178   0.012   6.479 -0.5956 -1.1029 -0.5712
   79MOL    C5515811   7.322   7.737   6.440 -0.3795  0.2402 -0.0704
   79MOL    N5615812   7.319   7.661   6.317 -0.4095 -0.3399 -0.0346
   79MOL    H5715813   7.143   0.085   6.406 -2.4018  0.5438  1.8917
   79MOL    H5815814   7.175   0.071   6.570  3.4961 -0.2533 -0.8772
   79MOL    H5915815   7.362   7.667   6.513 -0.3511  1.0934  0.7434
   79MOL    H6015816   7.392   0.040   6.445  0.7775 -0.7151 -0.1113
   79MOL    H6115817   7.275   7.570   6.320  0.3644 -0.6546  2.1006
   79MOL    C6215818   7.325   7.715   6.197  0.1302  0.0135 -0.8330
   79MOL    O6315819   7.359   0.048   6.171 -0.4010  0.1481  0.4794
   79MOL    C6415820   7.251   7.633   6.086 -0.1518  0.2062 -0.1226
   79MOL    C6515821   7.349   7.585   5.985  0.6735 -0.3051  0.2338
   79MOL    N6615822   7.419   7.465   6.029  0.0670  0.1766  0.3853
   79MOL    H6715823   7.193   7.553   6.131  0.8245  0.7305  2.1423
   79MOL    H6815824   7.184   7.697   6.028  2.4459  0.0469 -3.4499
   79MOL    H6915825   7.299   7.550   5.895 -1.0255  0.9436  0.6666
   79MOL    H7015826   7.429   7.657   5.967  1.3355 -1.3498 -1.1380
   79MOL    H7115827   7.377   7.415   6.106 -0.0948  0.1509  0.2823
   79MOL    C7215828   7.522   7.406   5.973 -0.8109 -0.5573 -0.6393
   79MOL    O7315829   7.601   7.449   5.888 -0.3274 -0.8651 -0.4070
   79MOL    C7415830   7.541   7.265   6.024  0.3043  0.8896 -0.3526
   79MOL    C7515831   7.694   7.252   6.049  0.6088  0.0998  0.9006
   79MOL    N7615832   7.711   7.146   6.140 -0.3060 -0.2046  0.0608
   79MOL    H7715833   7.492   7.253   6.121  0.7277 -0.5921 -0.2983
   79MOL    H7815834   7.495   7.188   5.961 -1.4884 -1.2738  3.4286
   79MOL    H7915835   7.748   7.241   5.954  2.1109  1.1311  1.6040
   79MOL    H8015836   7.734   7.343   6.094 -1.3311  1.9798 -1.0439
   79MOL    H8115837   7.734   7.174   6.234 -1.5504 -0.9582  0.6003
   79MOL    C8215838   7.714   7.015   6.113 -0.9632 -0.2017  0.6493
   79MOL    O8315839   7.694   6.972   5.999  0.1079  0.3676 -0.1789
   79MOL    C8415840   7.749   6.925   6.229  0.5712 -0.0417  0.1918
   79MOL    C8515841   0.031   6.793   6.184  0.1313 -0.4520 -0.7308
   79MOL    N8615842   0.169   6.809   6.135 -0.6221 -0.4757 -0.5993
   79MOL    H8715843   0.017   6.992   6.300 -1.8402  1.5263  0.4319
   79MOL    H8815844   7.653   6.901   6.276 -0.7456 -0.4515 -2.5928
   79MOL    H8915845   0.027   6.727   6.270 -2.5944 -0.4814 -0.8245
   79MOL    H9015846   7.761   6.735   6.106  2.0408  1.1633 -3.2507
   79MOL    H9115847   0.170   6.790   6.036  1.9132  0.6004 -0.8109
   79MOL    C9215848   0.284   6.837   6.204  0.4088 -0.7088 -0.1591
   79MOL    O9315849   0.277   6.871   6.327 -0.5517  0.1313  0.0944
   79MOL    C9415850   0.411   6.842   6.124  0.2813  0.1287  0.0477
   79MOL    C9515851   0.537   6.886   6.199 -0.0313 -0.4533 -0.2952
   79MOL    N9615852   0.663   6.862   6.126 -0.5828  0.1481 -0.1471
   79MOL    H9715853   0.433   6.736   6.112 -2.3613 -0.3762 -0.6099
   79MOL    H9815854   0.400   6.898   6.032  2.1970  0.3394 -0.0804
   79MOL    H9915855   0.540   6.990   6.233  2.4104 -1.1058  1.6428
   79MOL   H10015856   0.539   6.819   6.285  0.5881  0.0056  0.0487
   79MOL   H10115857   0.669   6.841   6.027 -2.8335  0.8323 -0.4652
   79MOL   C10215858   0.782   6.869   6.185 -0.2336  0.0452 -0.7537
   79MOL   O10315859   0.787   6.885   6.304 -0.0189 -0.2555 -0.4266
   79MOL   C10415860   0.905   6.847   6.092  0.4695 -0.5778  0.3250
   79MOL   C10515861   1.004   6.961   6.109 -1.1252 -0.5221  0.1183
   79MOL   N10615862   1.116   6.960   6.011 -0.6684 -0.2188  0.3557
   79MOL   H10715863   0.859   6.862   5.994  1.2586  4.0919  0.5537
   79MOL   H10815864   0.948   6.748   6.105  1.3772  0.1527  3.3454
   79MOL   H10915865   0.962   7.061   6.099  0.7977  0.4467  1.3753
   79MOL   H11015866   1.044   6.960   6.211 -0.6266  1.4598 -0.0308
   79MOL   H11115867   1.173   6.879   5.994 -0.7303 -0.4807  1.3888
   79MOL   C11215868   1.128   7.053   5.918 -0.0999  0.3695  0.7379
   79MOL   O11315869   1.065   7.157   5.914 -0.1123 -0.4256 -0.2376
   79MOL   C11415870   1.240   7.031   5.831  0.6340  0.1698  0.1537
   79MOL   C11515871   1.361   7.126   5.856  0.0515  0.4493 -0.1782
   79MOL   N11615872   1.418   7.118   5.985 -0.5667 -0.2957  0.6014
   79MOL   H11715873   1.204   7.039   5.728  1.4132  0.4202 -0.1031
   79MOL   H11815874   1.276   6.929   5.824 -4.6292 -1.6561 -3.0375
   79MOL   H11915875   1.440   7.089   5.790 -0.0324  0.5863 -0.3575
   79MOL   H12015876   1.340   7.228   5.825  2.5094  1.0384 -0.0086
   79MOL   H12115877   1.468   7.034   6.010  1.6099  1.0424  0.8517
   79MOL   C12215878   1.395   7.203   6.084 -0.5495 -0.1999 -0.1219
   79MOL   O12315879   1.326   7.303   6.073 -0.5599  0.2045  0.4742
   79MOL   C12415880   1.430   7.151   6.225  0.5725  0.4589  0.0382
   79MOL   C12515881   1.378   7.234   6.345 -0.5710 -0.4041 -0.0436
   79MOL   N12615882   1.236   7.208   6.354 -0.4668  0.2425 -0.3431
   79MOL   H12715883   1.538   7.162   6.231  0.8092 -1.4377 -0.4248
   79MOL   H12815884   1.403   7.045   6.229 -0.2426  0.6973  1.1790
   79MOL   H12915885   1.441   7.197   6.426 -0.6503 -0.8757 -0.1952
   79MOL   H13015886   1.400   7.339   6.330 -0.2315 -0.6434 -1.2806
   79MOL   H13115887   1.204   7.113   6.343 -0.2329  0.0130  0.9356
   79MOL   C13215888   1.140   7.302   6.377  0.7393  0.7768  0.3151
   79MOL   O13315889   1.162   7.420   6.399 -0.7007 -0.3894 -0.0142
   79MOL   C13415890   0.995   7.263   6.362 -0.7634  0.2815 -0.4098
   79MOL   C13515891   0.906   7.375   6.310 -0.1236  0.4412 -0.1830
   79MOL   N13615892   0.769   7.332   6.301 -0.4174 -0.1773  0.0343
   79MOL   H13715893   0.963   7.221   6.458  1.0130 -0.1813 -0.0082
   79MOL   H13815894   0.997   7.176   6.296 -2.2715 -0.3424  0.3244
   79MOL   H13915895   0.913   7.458   6.381  2.4083 -0.8186  1.0940
   79MOL   H14015896   0.937   7.386   6.206 -3.0156  1.0899 -1.0312
   79MOL   H14115897   0.721   7.323   6.212  1.2183 -3.0322 -0.6044
   79MOL   C14215898   0.683   7.343   6.403 -0.2450 -0.2040 -0.4562
   79MOL   O14315899   0.717   7.375   6.518 -0.2371 -0.3582 -0.4194
   79MOL   C14415900   0.533   7.320   6.383 -0.5636  0.0413  0.3128
   79MOL   C14515901   0.460   7.454   6.359  0.7160 -0.7006 -0.1853
   79MOL   N14615902   0.451   7.539   6.471 -0.5013 -0.1876 -0.6517
   79MOL   H14715903   0.490   7.264   6.467  2.1898 -2.6279  0.0360
   79MOL   H14815904   0.523   7.257   6.295  2.0645  1.3785 -0.9862
   79MOL   H14915905   0.501   7.514   6.279  2.8594 -1.2953  0.4446
   79MOL   H15015906   0.357   7.442   6.324  1.1108 -0.6653 -1.3709
   79MOL   H15115907   0.538   7.559   6.517 -1.2073 -1.0531  1.0977
   79MOL   C15215908   0.344   7.562   6.550 -0.4133  0.3232  0.2955
   79MOL   O15315909   0.231   7.528   6.519  0.6299 -0.1343 -0.1025
   79MOL   C15415910   0.367   7.606   6.695 -0.7820 -1.0039  1.1574
   79MOL   C15515911   0.388   7.501   6.799 -0.4901  0.4053  0.4360
   79MOL   N15615912   0.261   7.435   6.834  1.0815 -0.0247 -0.6033
   79MOL   H15715913   0.287   7.675   6.722 -2.3953 -1.7273 -1.5861
   79MOL   H15815914   0.454   7.671   6.697 -2.0920  0.8107  0.5913
   79MOL   H15915915   0.454   7.419   6.771  1.1481  2.5364 -2.1804
   79MOL   H16015916   0.436   7.535   6.891 -0.3403  2.1230 -0.2671
   79MOL   H16115917   0.173   7.481   6.815  0.1450 -1.2687  0.5755
   79MOL   C16215918   0.251   7.327   6.914  0.2224  0.6886  0.2252
   79MOL   O16315919   0.351   7.283   6.964  0.1751  0.5136 -0.1230
   79MOL   C16415920   0.114   7.267   6.927 -0.0995 -0.2306 -0.6515
   79MOL   C16515921   0.013   7.357   7.014 -0.7394 -0.2470  0.7405
   79MOL   N16615922   7.717   7.449   6.928  0.3991 -0.4566  0.1083
   79MOL   H16715923   0.131   7.172   6.977  1.1417  0.6232  0.5900
   79MOL   H16815924   0.070   7.249   6.829 -0.0381 -0.1217 -0.6990
   79MOL   H16915925   7.723   7.281   7.049  0.2364 -1.5572 -0.0868
   79MOL   H17015926   0.056   7.402   7.103 -1.1828 -0.1115  0.8910
   79MOL   H17115927   7.633   7.424   6.878  0.0044  4.5153 -1.9808
   79MOL   C17215928   7.750   7.579   6.905  0.4100 -0.3129 -0.8963
   79MOL   O17315929   0.061   7.628   6.964 -0.4020 -0.1697  0.0141
   79MOL   C17415930   7.681   7.665   6.799 -0.3771  0.2204 -0.4390
   79MOL   C17515931   7.766   7.669   6.671 -0.0546  0.4663  1.0199
   79MOL   N17615932   7.705   7.743   6.563  0.3071 -0.1602  0.4812
   79MOL   H17715933   7.662   7.770   6.822  0.4906  0.8932 -2.6529
   79MOL   H17815934   7.585   7.621   6.769 -1.1548  0.1384  2.0449
   79MOL   H17915935   0.081   7.720   6.683 -0.2079  1.0965 -0.3712
   79MOL   H18015936   0.023   7.571   6.638  0.2137  0.2104  2.0829
   79MOL   H18115937   7.723   0.061   6.570  2.0057 -0.2763 -1.6324
   79MOL   C18215938   7.641   7.694   6.454  0.2737 -0.0700  0.8691
   79MOL   O18315939   7.618   7.766   6.355  0.2184 -0.3734 -0.1075
   79MOL   C18415940   7.608   7.539   6.460 -0.0993 -0.0907 -0.3478
   79MOL   C18515941   7.681   7.473   6.338 -0.5057  0.5424 -0.1221
   79MOL   N18615942   0.021   7.405   6.379 -0.0106  0.0837  1.0448
   79MOL   H18715943   7.500   7.530   6.459 -0.2016  1.1036 -0.0948
   79MOL   H18815944   7.634   7.483   6.550 -0.8939  0.2195  0.0731
   79MOL   H18915945   7.622   7.403   6.279 -0.8276 -0.0381  0.8613
   79MOL   H19015946   7.727   7.545   6.271  0.5501  0.2417  0.2667
   79MOL   H19115947   0.108   7.457   6.376  0.2158 -0.2725  1.3013
   79MOL   C19215948   0.029   7.280   6.427 -0.2524  0.8783  0.2058
   79MOL   O19315949   7.708   7.207   6.440  0.0648  0.2648 -0.5330
   79MOL   C19415950   0.172   7.215   6.450 -0.6444  1.2760  0.6678
   79MOL   C19515951   0.159   7.092   6.541 -0.4113 -0.2818  0.0653
   79MOL   N19615952   0.288   7.030   6.573  0.5693 -0.4169  0.1648
   79MOL   H19715953   0.203   7.176   6.354  3.4811  0.6171  2.1600
   79MOL   H19815954   0.249   7.283   6.487  0.6422 -0.8418  1.9903
   79MOL   H19915955   0.125   7.138   6.634  0.7065  0.3444  0.1757
   79MOL   H20015956   0.082   7.020   6.515  0.3126 -0.7844 -0.7081
   79MOL   H20115957   0.302   6.969   6.494  1.2418  0.4834 -0.4193
   79MOL   H20215958   0.362   7.098   6.559  0.2684  0.1424  1.1873
   80MOL     C115959   6.391   5.002   0.770  0.1272 -0.0055  0.0924
   80MOL     O215960   6.328   4.950   0.869 -0.0855 -0.4837 -0.2885
   80MOL     C315961   6.400   4.924   0.640 -0.2333  0.6169  0.0720
   80MOL     C415962   6.396   4.768   0.652 -0.1190  0.5067 -0.0040
   80MOL     N515963   6.295   4.706   0.568 -0.7466  0.5968  0.1976
   80MOL     H615964   6.490   4.964   0.593  0.3745  1.0915  1.5905
   80MOL     H715965   6.319   4.964   0.580  0.2611  2.4963  0.6156
   80MOL     H815966   6.388   4.737   0.756  1.4981  2.3742  0.7192
   80MOL     H915967   6.494   4.734   0.619 -1.2846 -1.8735 -1.0651
   80MOL    H1015968   6.334   4.649   0.494 -0.7028  0.0803  0.6187
   80MOL    H1115969   6.431   5.103   0.775 -2.1874  0.9970 -0.9757
   80MOL    C1215970   6.164   4.691   0.590  0.2401  0.3001 -1.0256
   80MOL    O1315971   6.112   4.737   0.691  0.1630  0.5349  0.2684
   80MOL    C1415972   6.085   4.610   0.491  0.3879  0.2389  0.2412
   80MOL    C1515973   5.930   4.633   0.471  0.2915 -0.2820  0.1493
   80MOL    N1615974   5.847   4.604   0.587 -0.1496 -0.8934 -0.1324
   80MOL    H1715975   6.098   4.503   0.511  2.9077  0.3881 -0.4787
   80MOL    H1815976   6.133   4.626   0.394 -0.3092 -0.1851 -0.1793
   80MOL    H1915977   5.918   4.738   0.445  1.6726 -0.0644  0.3612
   80MOL    H2015978   5.892   4.583   0.382  2.2289 -0.7155 -0.4562
   80MOL    H2115979   5.896   4.543   0.650  1.6985  1.4748  0.8083
   80MOL    C2215980   5.728   4.646   0.616  0.3868 -0.5917  0.3190
   80MOL    O2315981   5.658   4.697   0.528  0.4210 -0.2724 -0.3433
   80MOL    C2415982   5.674   4.626   0.763  0.2406 -0.0344 -0.2919
   80MOL    C2515983   5.575   4.735   0.812 -0.6206 -0.2870 -0.9108
   80MOL    N2615984   5.561   4.742   0.960  0.0902 -0.3052  0.9213
   80MOL    H2715985   5.756   4.627   0.835 -0.4727  2.7369  0.5224
   80MOL    H2815986   5.623   4.530   0.771 -1.6316  0.9326 -0.2645
   80MOL    H2915987   5.614   4.832   0.781 -1.2136 -0.2197 -1.4722
   80MOL    H3015988   5.478   4.712   0.766 -1.2812  1.5977 -0.5174
   80MOL    H3115989   5.587   4.825   1.012 -0.2656 -1.2613  2.6813
   80MOL    C3215990   5.488   4.654   1.035  0.2849  0.2551  0.3248
   80MOL    O3315991   5.442   4.549   0.988 -0.5700 -0.2851  0.3282
   80MOL    C3415992   5.478   4.693   1.179  0.6486  0.2774 -0.2050
   80MOL    C3515993   5.514   4.579   1.276 -0.0252  0.2343  0.0300
   80MOL    N3615994   5.651   4.536   1.267 -0.8767 -0.0033 -0.0318
   80MOL    H3715995   5.378   4.721   1.214  0.1583 -1.7598  0.1196
   80MOL    H3815996   5.534   4.784   1.199  2.2289 -0.9217  1.0295
   80MOL    H3915997   5.492   4.608   1.379 -0.1645  0.3575 -0.0350
   80MOL    H4015998   5.442   4.499   1.265 -0.3024  0.6437 -1.2313
   80MOL    H4115999   5.723   4.596   1.228 -0.6383  0.9743  1.8627
   80MOL    C4216000   5.706   4.417   1.294  1.1913 -0.0600  0.4466
   80MOL    O4316001   5.645   4.328   1.350 -0.2489 -0.1441  0.2218
   80MOL    C4416002   5.855   4.400   1.250  0.4840 -0.5401  0.0449
   80MOL    C4516003   5.908   4.257   1.283  0.3689 -0.5080  0.0160
   80MOL    N4616004   6.049   4.247   1.253  0.0547 -0.5904 -0.6308
   80MOL    H4716005   5.863   4.425   1.144 -2.5399 -1.8600 -0.5633
   80MOL    H4816006   5.914   4.470   1.308  0.5798 -0.7497  0.2009
   80MOL    H4916007   5.888   4.224   1.385  0.1515  1.0631  0.5057
   80MOL    H5016008   5.864   4.191   1.208  1.6023 -1.4025  0.0751
   80MOL    H5116009   6.073   4.209   1.162  1.3735  0.0840 -0.5860
   80MOL    C5216010   6.148   4.279   1.339 -0.0734 -0.1132 -0.5659
   80MOL    O5316011   6.128   4.314   1.454  0.4930  0.4630  0.3694
   80MOL    C5416012   6.293   4.263   1.283  0.7611 -0.1388  0.2015
   80MOL    C5516013   6.407   4.325   1.366  0.0762 -0.0524 -0.0485
   80MOL    N5616014   6.423   4.468   1.354  0.4922 -0.3253 -0.7892
   80MOL    H5716015   6.313   4.155   1.287  0.6117 -0.1991 -0.5861
   80MOL    H5816016   6.303   4.282   1.176 -1.1594  2.3168  0.4293
   80MOL    H5916017   6.504   4.290   1.333  0.0059  0.3491 -0.6993
   80MOL    H6016018   6.394   4.281   1.464  0.3980 -2.2356 -0.9569
   80MOL    H6116019   6.417   4.504   1.260 -1.6754 -0.2755 -0.6700
   80MOL    C6216020   6.431   4.551   1.458 -0.1389 -0.5202  0.3145
   80MOL    O6316021   6.429   4.513   1.568  0.5379 -0.1727 -0.4747
   80MOL    C6416022   6.446   4.699   1.425  0.6306 -0.1865  0.2687
   80MOL    C6516023   6.428   4.803   1.532 -0.0549  0.7092 -0.4002
   80MOL    N6616024   6.533   4.905   1.533  0.5715 -0.2817  0.5235
   80MOL    H6716025   6.539   4.722   1.373  1.3703 -1.0971  1.1563
   80MOL    H6816026   6.372   4.701   1.345  0.3825  0.0580  0.5005
   80MOL    H6916027   6.327   4.840   1.516 -0.8024 -0.5612  1.2324
   80MOL    H7016028   6.415   4.748   1.625 -1.0063  0.6009 -0.5913
   80MOL    H7116029   6.521   4.981   1.468  1.3898  1.3288  2.2088
   80MOL    C7216030   6.627   4.909   1.629 -0.2346 -0.1094  0.3290
   80MOL    O7316031   6.643   4.827   1.716 -0.2454 -0.4061 -0.2734
   80MOL    C7416032   6.732   5.026   1.624  0.3534  0.1957  0.0293
   80MOL    C7516033   6.759   5.089   1.767 -0.5273 -0.4710  0.4141
   80MOL    N7616034   6.647   5.169   1.813  0.0564  0.3706 -0.1610
   80MOL    H7716035   6.827   4.980   1.597  0.6087  2.0522 -2.3772
   80MOL    H7816036   6.717   5.111   1.557  1.5492  1.2331  1.0322
   80MOL    H7916037   6.787   5.016   1.843 -2.7671 -1.9799 -0.1714
   80MOL    H8016038   6.849   5.151   1.761  0.3840 -1.8216 -0.1552
   80MOL    H8116039   6.607   5.136   1.900  0.7129  0.6137  0.2288
   80MOL    C8216040   6.613   5.296   1.779  0.1311  0.1428  0.9460
   80MOL    O8316041   6.676   5.358   1.694 -0.0503 -0.1896  0.2047
   80MOL    C8416042   6.513   5.365   1.875 -0.1582 -0.3288  0.6781
   80MOL    C8516043   6.421   5.474   1.815  0.5352  0.0895  0.3191
   80MOL    N8616044   6.368   5.433   1.682 -0.0965 -0.1143 -0.0032
   80MOL    H8716045   6.450   5.294   1.928  1.9262 -1.1738  2.1006
   80MOL    H8816046   6.583   5.412   1.944  1.3215 -0.6883 -0.5294
   80MOL    H8916047   6.343   5.500   1.887  0.1833  0.1369 -0.0792
   80MOL    H9016048   6.482   5.564   1.819  0.4726  0.0672  2.2353
   80MOL    H9116049   6.295   5.363   1.682 -0.9101  0.6830 -2.2942
   80MOL    C9216050   6.402   5.493   1.569  0.2083 -1.2255  0.6566
   80MOL    O9316051   6.471   5.593   1.570 -0.4831  0.2504 -0.3834
   80MOL    C9416052   6.345   5.425   1.446 -0.5406 -0.5439  0.1550
   80MOL    C9516053   6.318   5.541   1.346  0.1190  0.0267 -0.2204
   80MOL    N9616054   6.211   5.633   1.390  0.4881 -0.0102 -0.1573
   80MOL    H9716055   6.413   5.355   1.398  0.3534  0.3040  0.1851
   80MOL    H9816056   6.261   5.358   1.467  1.0214 -2.2708  1.0437
   80MOL    H9916057   6.407   5.599   1.322  0.9053 -1.5173 -1.1055
   80MOL   H10016058   6.291   5.486   1.256  0.7319 -2.3961  1.0280
   80MOL   H10116059   6.224   5.673   1.481 -0.9500 -1.2779  0.6386
   80MOL   C10216060   6.095   5.649   1.335 -0.3969  0.4380 -0.0550
   80MOL   O10316061   6.062   5.589   1.233 -0.5411 -0.1458  0.2657
   80MOL   C10416062   5.994   5.735   1.411 -0.1635  0.0057  0.2614
   80MOL   C10516063   5.954   5.861   1.334 -0.2248  0.3471 -0.6636
   80MOL   N10616064   5.842   5.914   1.417  0.2991 -0.2748  0.1170
   80MOL   H10716065   6.038   5.775   1.502  0.9825 -0.7621  0.0500
   80MOL   H10816066   5.909   5.679   1.451  1.2707 -2.6744 -0.3894
   80MOL   H10916067   6.033   5.935   1.322  1.6955 -1.1332  2.3754
   80MOL   H11016068   5.910   5.845   1.235  1.5601  0.0538 -1.4122
   80MOL   H11116069   5.837   5.886   1.514  3.6567 -2.4238 -0.2485
   80MOL   C11216070   5.733   5.974   1.361 -0.3869 -0.3918  1.3007
   80MOL   O11316071   5.722   5.991   1.239  0.5000 -0.1352  0.0957
   80MOL   C11416072   5.634   6.038   1.455  0.0466  0.2180  0.1742
   80MOL   C11516073   5.675   6.171   1.525 -0.4158 -0.0642 -0.3585
   80MOL   N11616074   5.739   6.268   1.436  0.0652 -0.6736  0.8570
   80MOL   H11716075   5.607   5.964   1.531 -2.0637 -1.7304 -2.4007
   80MOL   H11816076   5.536   6.051   1.409 -0.3310 -0.3276  0.8105
   80MOL   H11916077   5.590   6.223   1.570 -0.4549  0.9192 -1.5329
   80MOL   H12016078   5.741   6.138   1.605 -0.5009  0.9484  0.1418
   80MOL   H12116079   5.839   6.266   1.452  0.0741  0.1168  0.9087
   80MOL   C12216080   5.674   6.357   1.361  0.1207 -0.3618 -0.6371
   80MOL   O12316081   5.552   6.385   1.367 -0.7098 -0.5785 -0.4713
   80MOL   C12416082   5.753   6.442   1.260  0.0128 -0.2283 -0.0292
   80MOL   C12516083   5.750   6.392   1.120 -0.2419 -0.2467 -0.6229
   80MOL   N12616084   5.801   6.255   1.106 -0.0089 -0.0381  0.5675
   80MOL   H12716085   5.854   6.436   1.303  0.2419 -0.8516 -0.6407
   80MOL   H12816086   5.711   6.541   1.274 -0.5717 -0.1851 -2.0006
   80MOL   H12916087   5.655   6.408   1.069 -1.6003 -3.0346  0.9315
   80MOL   H13016088   5.814   6.459   1.063  0.3914  0.8044  1.2825
   80MOL   H13116089   5.767   6.183   1.168  1.4973 -1.4658 -0.2603
   80MOL   C13216090   5.911   6.222   1.034 -0.1852 -0.4124 -0.2318
   80MOL   O13316091   5.988   6.309   0.990  0.2381 -1.0057  0.0827
   80MOL   C13416092   5.950   6.074   1.025  0.0687  0.1838 -1.2126
   80MOL   C13516093   6.028   6.035   0.891  0.7685 -0.1807 -0.3914
   80MOL   N13616094   5.965   5.942   0.803  0.1892  0.3729  0.6925
   80MOL   H13716095   5.860   6.013   1.032  0.8347 -0.5414  4.4617
   80MOL   H13816096   6.008   6.052   1.114  0.5311  1.5085 -1.1694
   80MOL   H13916097   6.061   6.120   0.831 -0.0988 -0.1093 -0.7711
   80MOL   H14016098   6.132   6.010   0.912  0.1600 -0.9924  1.8753
   80MOL   H14116099   5.972   5.843   0.815  1.5434  0.1320 -1.6322
   80MOL   C14216100   5.874   5.973   0.706 -0.0207 -0.3740 -0.5492
   80MOL   O14316101   5.854   6.085   0.667  0.0279 -0.4359  0.2026
   80MOL   C14416102   5.796   5.855   0.645  0.3600 -0.8277 -0.1500
   80MOL   C14516103   5.848   5.828   0.504  0.1745 -0.1724  0.2514
   80MOL   N14616104   5.985   5.799   0.503 -0.0558 -0.5609  0.1098
   80MOL   H14716105   5.688   5.873   0.637  0.7180  0.2919 -3.0489
   80MOL   H14816106   5.819   5.766   0.703 -0.7678 -0.2716  1.1720
   80MOL   H14916107   5.791   5.748   0.457  2.7764 -1.4688 -0.8168
   80MOL   H15016108   5.830   5.915   0.442 -0.9240 -0.5479  0.0325
   80MOL   H15116109   6.040   5.881   0.523 -2.4475  0.6850  1.7840
   80MOL   C15216110   6.048   5.690   0.464  0.0894  0.9072 -0.3762
   80MOL   O15316111   5.993   5.585   0.428  0.1592 -0.2167 -0.7565
   80MOL   C15416112   6.197   5.692   0.461 -0.2975  0.0937 -0.2799
   80MOL   C15516113   6.245   5.602   0.581 -0.3560 -0.7829  0.2490
   80MOL   N15616114   6.309   5.682   0.687  0.3728 -0.1036 -0.5638
   80MOL   H15716115   6.237   5.793   0.464 -0.0214 -0.0029 -0.7361
   80MOL   H15816116   6.226   5.642   0.369 -0.5469  0.5388 -0.6004
   80MOL   H15916117   6.166   5.539   0.621 -1.3077  0.0263 -0.3189
   80MOL   H16016118   6.316   5.537   0.529 -0.8984 -0.7111 -0.5873
   80MOL   H16116119   6.409   5.690   0.675  0.4481 -2.8174 -2.0374
   80MOL   C16216120   6.250   5.714   0.804 -0.8853  0.2722  0.4495
   80MOL   O16316121   6.127   5.705   0.814  0.6112  0.2420 -0.1325
   80MOL   C16416122   6.330   5.776   0.920 -0.4592  0.0519  0.2452
   80MOL   C16516123   6.378   5.668   1.016 -0.4308 -0.2217 -0.2379
   80MOL   N16616124   6.497   5.592   0.966 -0.0782 -0.0063 -0.4459
   80MOL   H16716125   6.266   5.847   0.972 -1.3763 -0.4199 -0.2317
   80MOL   H16816126   6.421   5.828   0.887 -0.3185 -0.9260 -0.9631
   80MOL   H16916127   6.425   5.720   1.099 -1.2045  0.9960 -0.5538
   80MOL   H17016128   6.291   5.611   1.050  0.0692 -0.9016 -0.0755
   80MOL   H17116129   6.564   5.636   0.904  1.1333 -0.4731  0.5067
   80MOL   C17216130   6.529   5.468   1.008  0.5208 -0.2194  0.4952
   80MOL   O17316131   6.452   5.399   1.084  0.0577 -0.4725 -0.1258
   80MOL   C17416132   6.655   5.408   0.952  0.0165 -0.6309  0.7291
   80MOL   C17516133   6.668   5.251   0.929 -0.0002  0.2577  0.5996
   80MOL   N17616134   6.787   5.236   0.846  0.4047  0.0599 -0.6741
   80MOL   H17716135   6.745   5.429   1.010  0.6004  0.3831 -0.5281
   80MOL   H17816136   6.663   5.458   0.855  2.8004 -0.9217  0.7575
   80MOL   H17916137   6.665   5.193   1.021  3.6597 -0.1025  0.5777
   80MOL   H18016138   6.579   5.234   0.868  0.4221  1.0657 -0.2553
   80MOL   H18116139   6.854   5.311   0.844  0.5152 -0.0129  0.3362
   80MOL   C18216140   6.812   5.124   0.776 -0.7614  0.0817 -0.2669
   80MOL   O18316141   6.736   5.030   0.767  0.2103  0.2025 -0.8943
   80MOL   C18416142   6.936   5.119   0.693  0.0136 -0.8191 -0.4060
   80MOL   C18516143   6.919   5.145   0.545  0.2069 -0.0901 -0.1190
   80MOL   N18616144   6.832   5.261   0.512 -0.3212  0.1700 -0.1564
   80MOL   H18716145   6.988   5.029   0.726  0.0327  0.2270  2.5364
   80MOL   H18816146   6.993   5.202   0.734 -2.9248  1.5612 -1.0374
   80MOL   H18916147   7.017   5.159   0.500 -0.1522  0.5368 -0.7224
   80MOL   H19016148   6.893   5.055   0.489  1.0417 -0.2309 -0.2842
   80MOL   H19116149   6.737   5.263   0.546 -0.7805 -2.6193 -1.1589
   80MOL   C19216150   6.865   5.369   0.438 -0.1026 -0.2481 -0.3755
   80MOL   O19316151   6.971   5.381   0.393 -0.8123  0.3076  0.2373
   80MOL   C19416152   6.756   5.475   0.423  0.0308  0.1832  0.6448
   80MOL   C19516153   6.614   5.447   0.502  0.1325  0.1281 -0.1105
   80MOL   N19616154   6.545   5.331   0.448 -0.5109  0.0671  0.2509
   80MOL   H19716155   6.793   5.567   0.467 -1.3857  1.3668 -0.5640
   80MOL   H19816156   6.749   5.502   0.317  0.3610 -0.9605  0.3216
   80MOL   H19916157   6.632   5.443   0.610 -1.5383 -2.3237  0.1048
   80MOL   H20016158   6.547   5.531   0.486  0.1385 -0.0519 -1.1007
   80MOL   H20116159   6.525   5.355   0.352 -1.2027 -0.2875  0.3007
   80MOL   H20216160   6.452   5.317   0.486  0.3298  0.6540  2.6174
   81MOL     C116161   3.171   1.131   5.734  0.7799  1.1402  0.0290
   81MOL     O216162   3.133   1.059   5.828 -0.0513  0.1436 -0.6386
   81MOL     C316163   3.071   1.228   5.667 -0.1138 -0.4696 -0.5860
   81MOL     C416164   3.065   1.210   5.513 -0.1079 -0.9432 -0.1573
   81MOL     N516165   3.185   1.262   5.457 -0.7191  0.0372 -0.2782
   81MOL     H616166   3.085   1.326   5.712 -1.6219 -0.0815 -0.9296
   81MOL     H716167   2.975   1.210   5.715  0.2276  0.6932  0.5733
   81MOL     H816168   2.975   1.260   5.476 -1.3130 -1.5236  1.8998
   81MOL     H916169   3.045   1.110   5.473 -0.0467 -1.0423  0.0563
   81MOL    H1016170   3.191   1.362   5.444  0.2186 -0.0388 -0.4189
   81MOL    H1116171   3.272   1.139   5.693  0.5580 -1.2793 -1.0265
   81MOL    C1216172   3.283   1.186   5.402  0.1932 -0.4976  0.1774
   81MOL    O1316173   3.281   1.067   5.427 -0.0558  0.1284 -0.0851
   81MOL    C1416174   3.384   1.240   5.296 -0.4955  0.2909 -0.0565
   81MOL    C1516175   3.449   1.132   5.204 -0.0578 -0.1627  0.4689
   81MOL    N1616176   3.547   1.192   5.116 -0.5141  0.2888  0.2999
   81MOL    H1716177   3.459   1.281   5.362 -0.9624  0.5866  0.2965
   81MOL    H1816178   3.330   1.315   5.239 -0.2433 -0.2162 -0.9806
   81MOL    H1916179   3.495   1.059   5.271 -0.5749  0.5498  1.6241
   81MOL    H2016180   3.369   1.079   5.152  0.0712 -0.4526  0.5676
   81MOL    H2116181   3.562   1.292   5.110 -1.0739  0.3703  0.2703
   81MOL    C2216182   3.600   1.113   5.020  0.2711  0.2437  0.2711
   81MOL    O2316183   3.556   1.002   4.996  0.2212  0.0668  0.2622
   81MOL    C2416184   3.709   1.167   4.937 -0.5919 -0.0338  0.9917
   81MOL    C2516185   3.821   1.064   4.946 -0.7588  1.1039  0.5690
   81MOL    N2616186   3.948   1.124   4.909  0.3449 -0.1274  0.1887
   81MOL    H2716187   3.742   1.269   4.961  1.8166 -0.5303  0.0183
   81MOL    H2816188   3.667   1.165   4.837 -1.1677  3.8224  1.0808
   81MOL    H2916189   3.835   1.020   5.044 -0.5977 -0.5511 -0.1716
   81MOL    H3016190   3.803   0.983   4.875 -1.4797  0.0482  1.9408
   81MOL    H3116191   3.970   1.112   4.811 -0.2771 -0.4388  0.0847
   81MOL    C3216192   4.040   1.170   4.995 -0.2057 -0.3993 -0.5915
   81MOL    O3316193   4.012   1.177   5.115 -0.0452 -0.3758  0.0558
   81MOL    C3416194   4.177   1.212   4.940  0.6367  0.2952 -0.5265
   81MOL    C3516195   4.174   1.360   4.904 -0.2895 -0.1377 -0.3482
   81MOL    N3616196   4.155   1.453   5.020  0.2068 -0.1870  0.1950
   81MOL    H3716197   4.198   1.157   4.848 -1.1853 -3.3116  1.0783
   81MOL    H3816198   4.251   1.188   5.016 -0.4762  1.1936  0.8714
   81MOL    H3916199   4.270   1.373   4.853  1.7314 -2.5756  2.6319
   81MOL    H4016200   4.096   1.385   4.832 -0.6821  0.3728  0.2488
   81MOL    H4116201   4.227   1.458   5.091  1.2853  2.7178 -1.0630
   81MOL    C4216202   4.043   1.521   5.039 -0.3788  0.1783 -0.2474
   81MOL    O4316203   3.951   1.539   4.959 -0.4212 -0.3515  0.1581
   81MOL    C4416204   4.046   1.586   5.180 -0.4422 -0.0190 -0.5295
   81MOL    C4516205   4.021   1.480   5.289  0.1073  0.1980 -0.0425
   81MOL    N4616206   4.000   1.538   5.418 -0.0247 -0.5035  0.4055
   81MOL    H4716207   4.146   1.628   5.195 -0.7874  0.7585 -0.3876
   81MOL    H4816208   3.961   1.654   5.178 -0.5662 -0.1329  0.7058
   81MOL    H4916209   3.932   1.419   5.273 -0.0877 -0.4031  3.1746
   81MOL    H5016210   4.100   1.405   5.289 -0.7604 -0.7271  0.0340
   81MOL    H5116211   4.001   1.639   5.422  1.5119 -0.5255  1.2804
   81MOL    C5216212   3.979   1.478   5.536 -0.6762  0.5926  0.6454
   81MOL    O5316213   3.964   1.351   5.535 -0.3132  0.4078  0.1123
   81MOL    C5416214   3.977   1.550   5.662  0.3418 -0.8394 -0.2203
   81MOL    C5516215   4.071   1.486   5.772 -0.0400  0.1399  0.3863
   81MOL    N5616216   4.206   1.534   5.762 -0.3862 -0.0901 -0.2634
   81MOL    H5716217   3.994   1.658   5.658  2.0171 -1.0134  1.2184
   81MOL    H5816218   3.872   1.542   5.688  0.4468 -0.4677  0.3324
   81MOL    H5916219   4.068   1.377   5.764  0.9657  0.1069  0.3781
   81MOL    H6016220   4.032   1.509   5.871  0.2409  0.2709  0.4663
   81MOL    H6116221   4.260   1.509   5.681 -1.2341  0.3459 -0.9688
   81MOL    C6216222   4.288   1.587   5.853 -0.8419 -0.3025 -0.3500
   81MOL    O6316223   4.248   1.607   5.970  0.4897  0.4455  0.4488
   81MOL    C6416224   4.435   1.607   5.805 -0.1941  0.3166  0.1684
   81MOL    C6516225   4.529   1.666   5.911 -0.0050  0.1568 -0.3629
   81MOL    N6616226   4.487   1.795   5.967  0.3484 -0.3860  0.2727
   81MOL    H6716227   4.476   1.510   5.779 -4.2134 -0.9340 -2.0117
   81MOL    H6816228   4.430   1.674   5.718 -2.1321 -0.6250 -0.4810
   81MOL    H6916229   4.533   1.596   5.995  1.7438 -1.6378 -1.8977
   81MOL    H7016230   4.629   1.673   5.868 -0.6026  0.0806 -1.7882
   81MOL    H7116231   4.430   1.850   5.903 -3.3493 -0.4212  3.3294
   81MOL    C7216232   4.519   1.843   6.086 -0.4243  0.2189 -0.2930
   81MOL    O7316233   4.593   1.794   6.167 -0.3382  0.1971 -0.3013
   81MOL    C7416234   4.458   1.974   6.126 -0.3947  0.3136 -0.2727
   81MOL    C7516235   4.558   2.077   6.174 -0.5400 -0.0941 -0.1062
   81MOL    N7616236   4.652   2.117   6.076 -0.4263 -0.6758  0.2259
   81MOL    H7716237   4.389   2.016   6.053 -0.1908 -1.1295 -1.2925
   81MOL    H7816238   4.404   1.930   6.210  1.7531 -2.2184 -0.1807
   81MOL    H7916239   4.511   2.164   6.220  0.5674  0.8258 -0.6935
   81MOL    H8016240   4.624   2.056   6.258 -0.9272  2.6720  0.9763
   81MOL    H8116241   4.662   2.044   6.006 -0.3520  0.2893 -0.7814
   81MOL    C8216242   4.732   2.223   6.066 -0.4696 -0.2153  0.6462
   81MOL    O8316243   4.719   2.320   6.138 -0.4168 -0.7822 -0.1590
   81MOL    C8416244   4.833   2.232   5.946 -0.3315  0.0262 -0.2144
   81MOL    C8516245   4.897   2.367   5.916  0.8255 -0.3758  0.1517
   81MOL    N8616246   5.021   2.394   5.992 -0.4308  0.1127 -0.2271
   81MOL    H8716247   4.912   2.158   5.961  1.7914  1.8476 -1.9688
   81MOL    H8816248   4.788   2.205   5.851 -0.4781  2.4480 -0.8428
   81MOL    H8916249   4.928   2.361   5.812 -0.3625 -0.9735 -0.1732
   81MOL    H9016250   4.828   2.450   5.934  1.6915  0.0247  1.6830
   81MOL    H9116251   5.104   2.372   5.938 -0.9566 -0.1899 -0.9132
   81MOL    C9216252   5.038   2.484   6.086 -0.0197 -0.3590 -0.2340
   81MOL    O9316253   4.946   2.558   6.117  0.1232  0.2907 -0.5278
   81MOL    C9416254   5.169   2.503   6.155 -0.8422 -0.2304 -0.0516
   81MOL    C9516255   5.185   2.639   6.233 -0.1182  0.5538 -0.5924
   81MOL    N9616256   5.090   2.634   6.340  0.4279 -0.2188 -0.8751
   81MOL    H9716257   5.193   2.413   6.212 -0.0973  0.0008  0.0020
   81MOL    H9816258   5.247   2.508   6.078 -0.1134 -1.9597  0.5485
   81MOL    H9916259   5.285   2.663   6.267  0.8800 -4.3734  0.2371
   81MOL   H10016260   5.145   2.715   6.165 -2.7620  0.9036  1.2789
   81MOL   H10116261   5.015   2.567   6.327 -0.7946  0.4125  2.2737
   81MOL   C10216262   5.079   2.717   6.447  0.4616  0.1849  0.3845
   81MOL   O10316263   5.157   2.810   6.463  0.5228  0.8909 -0.1368
   81MOL   C10416264   4.966   2.690   6.551  0.0023  0.0864  0.4514
   81MOL   C10516265   4.912   2.803   6.641  0.2729  0.4638  0.1572
   81MOL   N10616266   4.997   2.825   6.759 -0.1128 -0.2402 -0.0616
   81MOL   H10716267   5.018   2.617   6.614  0.8525 -1.2217 -1.7015
   81MOL   H10816268   4.885   2.640   6.498  0.3593  0.6096 -0.6205
   81MOL   H10916269   4.912   2.898   6.587 -2.1053 -1.1791 -2.9342
   81MOL   H11016270   4.810   2.778   6.669  0.6311 -0.2843  0.7981
   81MOL   H11116271   5.062   2.751   6.781  0.0417 -0.4585 -1.2370
   81MOL   C11216272   4.990   2.932   6.843  0.1774 -0.0275 -0.5990
   81MOL   O11316273   4.909   3.022   6.823 -0.0293  0.0919 -0.0425
   81MOL   C11416274   5.099   2.927   6.956 -0.0533  0.7094  0.2983
   81MOL   C11516275   5.065   2.999   7.085 -0.2349 -0.2427 -0.8505
   81MOL   N11616276   5.096   3.140   7.072 -0.2252 -0.0473  0.2570
   81MOL   H11716277   5.198   2.958   6.924 -0.3161  2.5933  1.2034
   81MOL   H11816278   5.099   2.824   6.990  1.6665  0.2891 -0.9435
   81MOL   H11916279   4.962   2.975   7.113  0.6633 -3.3581 -0.0086
   81MOL   H12016280   5.127   2.956   7.164 -1.6003  0.4981  0.6666
   81MOL   H12116281   5.020   3.203   7.052 -1.4341 -1.8524 -0.9835
   81MOL   C12216282   5.219   3.189   7.083 -0.1539 -0.2973 -0.0341
   81MOL   O12316283   5.319   3.116   7.088  0.2391  0.3453 -0.4000
   81MOL   C12416284   5.240   3.340   7.083  0.3204  0.9235 -0.6835
   81MOL   C12516285   5.307   3.394   6.962  0.9982  0.5876 -0.0701
   81MOL   N12616286   5.329   3.539   6.975  0.2822  0.4717  0.1546
   81MOL   H12716287   5.286   3.366   7.178  1.2269  1.7570 -1.3335
   81MOL   H12816288   5.142   3.387   7.088  0.9127  2.4142 -2.3608
   81MOL   H12916289   5.395   3.334   6.937  0.8627 -0.1367  1.1616
   81MOL   H13016290   5.254   3.379   6.868  1.6653 -0.1099 -0.3400
   81MOL   H13116291   5.267   3.584   7.042 -0.8126 -1.5014  0.4969
   81MOL   C13216292   5.439   3.603   6.930 -0.7484  0.6213  0.2091
   81MOL   O13316293   5.527   3.539   6.865 -0.4738  0.1850  0.0174
   81MOL   C13416294   5.465   3.753   6.974  0.0034  0.7997  0.1284
   81MOL   C13516295   5.600   3.810   6.927 -0.3047 -1.0534 -0.1056
   81MOL   N13616296   5.611   3.807   6.779 -0.5916 -0.4324  0.6835
   81MOL   H13716297   5.474   3.754   7.083 -0.2477 -0.3055  0.1622
   81MOL   H13816298   5.386   3.824   6.952 -0.9218 -0.5397 -0.9514
   81MOL   H13916299   5.613   3.912   6.962 -1.1421 -0.7531 -0.6651
   81MOL   H14016300   5.684   3.750   6.964  1.1362  0.1506 -1.3448
   81MOL   H14116301   5.602   3.713   6.743 -0.6546  0.3664 -1.4226
   81MOL   C14216302   5.651   3.913   6.700 -0.0480  0.2642  0.4563
   81MOL   O14316303   5.690   4.021   6.740 -0.2485  0.0405 -0.6001
   81MOL   C14416304   5.646   3.904   6.546  0.2219  0.7090  0.0223
   81MOL   C14516305   5.786   3.888   6.487 -0.2363  0.3509  0.1288
   81MOL   N14616306   5.821   3.744   6.473  0.3533  0.1640 -0.3409
   81MOL   H14716307   5.597   3.994   6.510 -1.5880 -0.7893 -1.3842
   81MOL   H14816308   5.577   3.822   6.527 -0.7546  1.2733  1.0599
   81MOL   H14916309   5.790   3.917   6.382  2.2613  0.8405  0.3383
   81MOL   H15016310   5.851   3.951   6.547  0.7271  0.8073 -1.3596
   81MOL   H15116311   5.774   3.704   6.394  1.0024  0.2774 -0.7870
   81MOL   C15216312   5.897   3.670   6.557 -0.1287 -0.0769 -0.5852
   81MOL   O15316313   5.962   3.722   6.648  0.2391  0.5707 -0.0409
   81MOL   C15416314   5.920   3.525   6.525 -0.2827  0.0509  0.2096
   81MOL   C15516315   6.070   3.489   6.520  0.5383  0.4392 -1.1810
   81MOL   N15616316   6.146   3.589   6.450  0.5165 -0.0425 -0.3997
   81MOL   H15716317   5.890   3.500   6.423  0.7321  0.2112 -0.1317
   81MOL   H15816318   5.871   3.461   6.599 -0.4215  2.3653  2.1763
   81MOL   H15916319   6.112   3.478   6.620  0.7022  1.1458 -1.1675
   81MOL   H16016320   6.082   3.393   6.469 -0.3820 -0.1714 -0.2669
   81MOL   H16116321   6.198   3.648   6.513 -0.7632  1.2017 -0.4737
   81MOL   C16216322   6.174   3.597   6.321  0.3443  0.0283  0.2362
   81MOL   O16316323   6.147   3.513   6.233 -0.2663 -0.5873  0.5150
   81MOL   C16416324   6.251   3.721   6.273 -0.1544  0.1895 -0.6962
   81MOL   C16516325   6.314   3.711   6.137 -0.0739 -0.2722 -0.2343
   81MOL   N16616326   6.384   3.832   6.101  0.0456 -0.5345 -0.1579
   81MOL   H16716327   6.328   3.734   6.350 -1.9106  1.1585  0.9330
   81MOL   H16816328   6.194   3.813   6.281  0.0748  0.3365 -0.7460
   81MOL   H16916329   6.383   3.627   6.147 -1.3588 -1.2469  0.7468
   81MOL   H17016330   6.232   3.694   6.067  0.9512 -0.5002 -1.4084
   81MOL   H17116331   6.327   3.899   6.051  0.0447  1.0767  1.9152
   81MOL   C17216332   6.519   3.840   6.110 -0.6318  0.0558  0.2273
   81MOL   O17316333   6.582   3.744   6.155  0.1192 -0.1720  0.7610
   81MOL   C17416334   6.583   3.973   6.069  0.5563 -0.1073  0.3807
   81MOL   C17516335   6.722   3.958   6.001  0.2745 -0.0510  0.1379
   81MOL   N17616336   6.819   4.057   6.058 -0.2133 -0.1412 -0.9616
   81MOL   H17716337   6.598   4.051   6.145  2.2809 -1.2032  1.1811
   81MOL   H17816338   6.513   4.020   6.000  0.4572 -0.6077  0.1458
   81MOL   H17916339   6.772   3.862   5.991  2.1578  0.7204  1.7683
   81MOL   H18016340   6.712   4.001   5.901  0.6944  1.5114  0.7510
   81MOL   H18116341   6.798   4.094   6.150 -0.6089  2.5957 -2.0885
   81MOL   C18216342   6.938   4.093   6.005 -0.7617  0.1686 -0.2684
   81MOL   O18316343   6.977   4.042   5.898 -0.0644  0.0672  0.1138
   81MOL   C18416344   7.032   4.192   6.081  0.5603 -0.3557 -1.0774
   81MOL   C18516345   7.093   4.292   5.978  0.3030  0.8364  0.2704
   81MOL   N18616346   7.164   4.408   6.031  1.0278 -0.1108 -0.4874
   81MOL   H18716347   7.114   4.138   6.129 -0.6237 -1.0268  0.1961
   81MOL   H18816348   6.988   4.253   6.159 -0.9314 -1.9779 -0.6173
   81MOL   H18916349   7.156   4.247   5.901  0.6244  0.5687  0.6921
   81MOL   H19016350   7.008   4.336   5.924  0.6228  0.3642 -0.6261
   81MOL   H19116351   7.108   4.482   6.071 -1.6210 -2.7164  0.8550
   81MOL   C19216352   7.292   4.409   6.077 -0.6899 -0.1152  0.2351
   81MOL   O19316353   7.366   4.309   6.069 -0.0085 -0.1181 -0.2544
   81MOL   C19416354   7.346   4.535   6.143  0.2991  0.0197  0.0850
   81MOL   C19516355   7.470   4.514   6.230  0.2738  0.1184 -0.0785
   81MOL   N19616356   7.591   4.503   6.145  0.6902  0.0878  0.3320
   81MOL   H19716357   7.342   4.611   6.065 -1.1626 -0.0453  0.0795
   81MOL   H19816358   7.268   4.577   6.207  1.0889  0.7999  0.5529
   81MOL   H19916359   7.500   4.603   6.285  1.2770  0.1655 -0.6816
   81MOL   H20016360   7.464   4.424   6.292  2.5588  1.0452  1.5684
   81MOL   H20116361   7.561   4.428   6.085  0.2729 -0.4771  1.2282
   81MOL   H20216362   7.658   4.460   6.207  0.8295  1.5285  1.1890
   82MOL     C116363   1.865   6.721   2.021  0.1155  0.1563  0.3052
   82MOL     O216364   1.793   6.729   1.922 -0.6395  0.2585 -0.1070
   82MOL     C316365   1.914   6.581   2.063  0.6980 -0.1770 -0.0137
   82MOL     C416366   1.989   6.497   1.958 -0.1740 -0.8031 -0.8791
   82MOL     N516367   2.122   6.465   1.993  0.3645  0.2320 -0.2805
   82MOL     H616368   1.832   6.525   2.108  0.0282  1.6225  1.0615
   82MOL     H716369   1.983   6.586   2.147  0.3684 -0.5537  0.2807
   82MOL     H816370   1.993   6.556   1.867 -1.4119  0.7692  0.0617
   82MOL     H916371   1.944   6.401   1.931  0.9447 -1.8015  0.6641
   82MOL    H1016372   2.192   6.515   1.941 -0.0075  1.9298  0.8284
   82MOL    H1116373   1.894   6.808   2.079 -0.2323  0.1530  0.4868
   82MOL    C1216374   2.172   6.370   2.075 -0.1998 -0.1688  0.0871
   82MOL    O1316375   2.097   6.301   2.143  0.5669  0.1732  0.1853
   82MOL    C1416376   2.324   6.349   2.066  0.3519 -0.6268  0.2383
   82MOL    C1516377   2.381   6.327   2.218  0.4163  0.1668  0.3932
   82MOL    N1616378   2.348   6.201   2.288 -0.1090  0.1658  0.0306
   82MOL    H1716379   2.380   6.439   2.038 -0.1954 -0.2484  0.3559
   82MOL    H1816380   2.356   6.270   1.999  2.0420  0.4860 -0.3149
   82MOL    H1916381   2.489   6.340   2.221  0.3557  0.6209  0.6264
   82MOL    H2016382   2.345   6.413   2.275 -2.9620 -0.4346 -0.6855
   82MOL    H2116383   2.290   6.133   2.241  2.6118 -1.9493 -0.4164
   82MOL    C2216384   2.390   6.163   2.408  0.2476 -0.2560  0.0947
   82MOL    O2316385   2.475   6.229   2.473 -0.1912  0.0094  0.4505
   82MOL    C2416386   2.321   6.048   2.475 -0.1023  0.1008  0.0100
   82MOL    C2516387   2.416   5.963   2.565 -0.2375  0.4488 -0.3910
   82MOL    N2616388   2.354   5.876   2.665 -0.1803 -0.4523 -0.3332
   82MOL    H2716389   2.279   5.982   2.400  0.4837  1.1015 -1.2125
   82MOL    H2816390   2.239   6.099   2.526  1.9919  3.4098  0.2674
   82MOL    H2916391   2.487   5.903   2.507 -2.8487 -2.0469 -1.1300
   82MOL    H3016392   2.491   6.028   2.609 -0.8708 -0.4271  2.0266
   82MOL    H3116393   2.254   5.886   2.664 -0.2328 -0.8711 -2.6131
   82MOL    C3216394   2.411   5.794   2.755 -0.4655 -0.9793  0.2581
   82MOL    O3316395   2.532   5.760   2.752 -0.2693 -0.1378 -0.1091
   82MOL    C3416396   2.336   5.744   2.875 -0.1058 -0.6843 -0.2027
   82MOL    C3516397   2.383   5.609   2.944  0.2985 -0.3419  0.2164
   82MOL    N3616398   2.335   5.498   2.860  0.3444  0.4785 -0.5969
   82MOL    H3716399   2.231   5.725   2.851 -0.3648  0.1424  0.2703
   82MOL    H3816400   2.325   5.829   2.942  0.3235  0.7835 -1.9373
   82MOL    H3916401   2.491   5.604   2.955  0.5670  1.8189 -1.2396
   82MOL    H4016402   2.328   5.605   3.039 -2.5332  0.6242 -1.3185
   82MOL    H4116403   2.397   5.484   2.781  1.2224 -1.1085  0.3618
   82MOL    C4216404   2.214   5.441   2.873 -0.1262 -0.2493  0.7036
   82MOL    O4316405   2.133   5.482   2.954  0.1026  0.3696 -0.5674
   82MOL    C4416406   2.180   5.337   2.768 -0.5566 -0.4013 -0.3320
   82MOL    C4516407   2.105   5.208   2.810  0.0917  0.1022 -0.0606
   82MOL    N4616408   1.967   5.234   2.850 -0.1156 -0.0378  0.4637
   82MOL    H4716409   2.128   5.397   2.693 -2.0585 -0.7693  0.4080
   82MOL    H4816410   2.269   5.305   2.713 -0.3042 -1.0367  0.4408
   82MOL    H4916411   2.095   5.147   2.721  0.3359 -0.5894  0.3765
   82MOL    H5016412   2.159   5.137   2.873  1.5338 -0.2942 -1.7265
   82MOL    H5116413   1.934   5.315   2.800  0.5528 -0.5541 -0.8169
   82MOL    C5216414   1.890   5.159   2.925  0.9408 -0.8346 -0.9199
   82MOL    O5316415   1.928   5.065   2.997 -0.4028 -0.4022  0.3937
   82MOL    C5416416   1.743   5.195   2.932 -0.0750  0.3356  0.1318
   82MOL    C5516417   1.657   5.090   2.858 -0.2122  0.6636 -0.3623
   82MOL    N5616418   1.513   5.110   2.886  0.7357 -0.2106 -0.2357
   82MOL    H5716419   1.705   5.200   3.034 -3.6016  1.3979 -1.1453
   82MOL    H5816420   1.729   5.293   2.887  0.0312  0.1155 -0.3920
   82MOL    H5916421   1.680   4.990   2.893  1.6834  1.6117  1.1879
   82MOL    H6016422   1.680   5.082   2.752 -0.1814  1.5305 -0.4283
   82MOL    H6116423   1.492   5.106   2.985 -0.6025  1.9759 -0.3972
   82MOL    C6216424   1.417   5.085   2.797  0.2773  0.2697 -0.1515
   82MOL    O6316425   1.440   5.052   2.682  0.3298 -1.1726  0.0760
   82MOL    C6416426   1.279   5.081   2.853 -0.1520  0.0855  0.8713
   82MOL    C6516427   1.168   5.038   2.761  0.3045  0.2037  0.1022
   82MOL    N6616428   1.108   5.156   2.685 -0.2402 -0.0181  0.2852
   82MOL    H6716429   1.267   5.013   2.937  1.3550 -1.3554 -0.0721
   82MOL    H6816430   1.262   5.183   2.887  1.4200  1.6181 -2.6513
   82MOL    H6916431   1.197   4.965   2.686  0.0477 -0.1652  0.3613
   82MOL    H7016432   1.091   4.986   2.817  1.6115 -1.4254  0.4400
   82MOL    H7116433   1.076   5.232   2.743 -0.4095  1.4795 -1.7416
   82MOL    C7216434   1.055   5.156   2.565  0.3533  0.4995 -0.0288
   82MOL    O7316435   1.082   5.068   2.478 -0.5147  0.1476 -0.5768
   82MOL    C7416436   0.983   5.282   2.504 -0.0864 -0.0593 -0.0937
   82MOL    C7516437   1.062   5.383   2.417  0.9946  0.3640 -1.0005
   82MOL    N7616438   1.180   5.429   2.494 -0.5157 -0.2953  1.3995
   82MOL    H7716439   0.910   5.234   2.440 -2.8859  2.7805  0.8603
   82MOL    H7816440   0.927   5.332   2.583  1.0355 -0.4290  0.9544
   82MOL    H7916441   1.096   5.351   2.319  0.5824  1.6934 -1.5937
   82MOL    H8016442   0.992   5.467   2.411  0.5048  0.1094  0.7571
   82MOL    H8116443   1.163   5.474   2.583 -2.0960  3.1868 -0.5772
   82MOL    C8216444   1.307   5.394   2.477  0.0509 -0.4829  0.3967
   82MOL    O8316445   1.346   5.328   2.377 -0.9150 -0.0232 -0.6849
   82MOL    C8416446   1.402   5.440   2.591  0.0611 -0.5510  0.1249
   82MOL    C8516447   1.524   5.511   2.522 -0.5561  0.3803  0.3095
   82MOL    N8616448   1.619   5.412   2.473 -0.4008 -0.5082  0.4907
   82MOL    H8716449   1.359   5.511   2.661 -2.4063 -0.0043 -1.8997
   82MOL    H8816450   1.420   5.354   2.657 -0.9956  1.1801  2.7458
   82MOL    H8916451   1.501   5.575   2.436 -0.3695  1.7715  1.2762
   82MOL    H9016452   1.561   5.581   2.596  0.9856  0.2675 -0.3418
   82MOL    H9116453   1.580   5.349   2.405 -0.8368  0.2254  0.0451
   82MOL    C9216454   1.728   5.366   2.538  0.1800 -0.0586  0.2882
   82MOL    O9316455   1.769   5.417   2.642 -0.2796  0.8804 -0.2076
   82MOL    C9416456   1.799   5.248   2.469 -0.6345 -0.0446 -0.4269
   82MOL    C9516457   1.951   5.257   2.452 -0.3807 -0.3399 -0.1204
   82MOL    N9616458   2.011   5.120   2.443 -0.1642 -0.0599  0.5772
   82MOL    H9716459   1.780   5.160   2.531  0.8524 -0.4078 -0.4669
   82MOL    H9816460   1.754   5.220   2.374  1.3999  1.4880 -1.8678
   82MOL    H9916461   1.967   5.306   2.355  0.7155 -1.1638 -0.3735
   82MOL   H10016462   2.001   5.318   2.527 -0.2060  0.5594 -0.9428
   82MOL   H10116463   1.953   5.038   2.428  0.9434 -0.1798 -3.6675
   82MOL   C10216464   2.145   5.111   2.441  0.1599  0.3366 -0.4974
   82MOL   O10316465   2.217   5.206   2.464 -0.0047  0.1163  0.8001
   82MOL   C10416466   2.213   4.976   2.413  0.2495  0.8543 -0.4284
   82MOL   C10516467   2.217   4.955   2.260  0.7088  0.5912  0.4388
   82MOL   N10616468   2.096   4.887   2.211  0.2833 -0.3159  0.3010
   82MOL   H10716469   2.182   4.888   2.469  3.4763  0.1508  0.3458
   82MOL   H10816470   2.319   4.982   2.435  0.3270  0.3181 -0.6456
   82MOL   H10916471   2.242   5.047   2.207  2.7862  0.6835  1.5446
   82MOL   H11016472   2.298   4.885   2.237  0.0234 -1.0737  2.9462
   82MOL   H11116473   2.058   4.820   2.276  0.8670  0.6111  1.6095
   82MOL   C11216474   2.036   4.891   2.085 -0.2267 -0.4014  1.0133
   82MOL   O11316475   2.082   4.966   2.003  0.3915 -0.5617  0.0356
   82MOL   C11416476   1.923   4.785   2.055  0.0502 -0.6419 -0.2793
   82MOL   C11516477   1.851   4.798   1.923  0.2541 -0.6776 -0.8674
   82MOL   N11616478   1.791   4.937   1.895 -0.1617  0.6446 -0.0103
   82MOL   H11716479   1.849   4.794   2.134  0.8481  2.4089  0.1925
   82MOL   H11816480   1.969   4.688   2.074 -0.2235 -0.8608 -0.7346
   82MOL   H11916481   1.930   4.767   1.855  0.6214 -1.5588 -0.0541
   82MOL   H12016482   1.772   4.723   1.918 -1.0385  0.5322  0.5501
   82MOL   H12116483   1.864   5.004   1.877 -0.8711  1.7095  1.0357
   82MOL   C12216484   1.667   4.980   1.871 -0.2033  0.3792 -0.6806
   82MOL   O12316485   1.577   4.901   1.862 -0.0122  0.4295 -0.0543
   82MOL   C12416486   1.647   5.127   1.847 -0.6562  0.1235 -0.1039
   82MOL   C12516487   1.558   5.159   1.729  0.2058  0.3360  0.3124
   82MOL   N12616488   1.615   5.123   1.603 -0.9249  0.7146  0.2331
   82MOL   H12716489   1.743   5.177   1.830  0.3823 -1.9581 -0.5680
   82MOL   H12816490   1.607   5.179   1.934  0.7090 -1.3241  1.4165
   82MOL   H12916491   1.462   5.108   1.731  0.2623  0.1010 -1.8172
   82MOL   H13016492   1.535   5.266   1.725  0.5884  0.4567  1.2664
   82MOL   H13116493   1.710   5.090   1.595 -1.8916 -2.4035  1.1600
   82MOL   C13216494   1.569   5.152   1.482 -0.5054  0.1490  0.4343
   82MOL   O13316495   1.467   5.213   1.450 -0.4771 -0.3719  0.7745
   82MOL   C13416496   1.651   5.100   1.356 -0.1204  0.1151  0.6916
   82MOL   C13516497   1.660   5.201   1.236 -0.9013 -0.1948  0.2077
   82MOL   N13616498   1.750   5.318   1.265  0.2739  0.0644  0.0493
   82MOL   H13716499   1.609   5.004   1.328  1.3089 -0.6426  1.1236
   82MOL   H13816500   1.751   5.074   1.388 -0.3744 -0.6602  0.8669
   82MOL   H13916501   1.681   5.154   1.140 -1.1356  1.0863 -0.4813
   82MOL   H14016502   1.569   5.258   1.223 -0.7145  0.1886  0.5727
   82MOL   H14116503   1.708   5.404   1.297 -0.8399 -0.1283 -0.8381
   82MOL   C14216504   1.882   5.314   1.231  0.1820 -0.1676 -0.3197
   82MOL   O14316505   1.938   5.215   1.194 -0.6756 -0.1516  0.0984
   82MOL   C14416506   1.967   5.440   1.267 -0.0243  0.4586 -0.1236
   82MOL   C14516507   2.087   5.469   1.173 -0.6414  0.6741 -0.1377
   82MOL   N14616508   2.070   5.564   1.061 -0.1595  0.2860  0.4384
   82MOL   H14716509   2.008   5.421   1.366  2.9020  0.3048 -1.3208
   82MOL   H14816510   1.904   5.528   1.278 -2.4364 -1.1273 -0.8168
   82MOL   H14916511   2.162   5.513   1.239  0.2909 -1.1336  0.0387
   82MOL   H15016512   2.132   5.381   1.127 -0.8434 -0.4802  1.8533
   82MOL   H15116513   2.099   5.658   1.086  1.8331 -0.0263 -0.5950
   82MOL   C15216514   2.005   5.536   0.946  0.9572 -0.3674 -0.8546
   82MOL   O15316515   1.978   5.422   0.918 -0.1506 -0.3424 -0.7628
   82MOL   C15416516   1.979   5.656   0.855  0.5238 -0.3509 -0.0024
   82MOL   C15516517   1.951   5.624   0.712 -0.2813 -0.3581 -0.1666
   82MOL   N15616518   2.044   5.536   0.643  0.2813  0.0981 -0.2052
   82MOL   H15716519   2.065   5.722   0.861 -0.4922  0.9489  0.2889
   82MOL   H15816520   1.895   5.709   0.898 -0.0737  0.0481 -1.6279
   82MOL   H15916521   1.847   5.593   0.698 -0.7559 -0.4703  3.2392
   82MOL   H16016522   1.965   5.718   0.658 -2.0468  0.1576  0.2289
   82MOL   H16116523   2.135   5.508   0.675 -0.6321 -1.1968  1.3808
   82MOL   C16216524   2.006   5.462   0.542 -0.5319 -0.4994 -0.2408
   82MOL   O16316525   1.893   5.459   0.504  0.3728  0.1236  0.5292
   82MOL   C16416526   2.113   5.385   0.471  0.8049  0.5844  0.4000
   82MOL   C16516527   2.145   5.448   0.325 -0.4683  0.2041 -0.1254
   82MOL   N16616528   2.291   5.442   0.303 -0.8748 -0.0259  0.0686
   82MOL   H16716529   2.080   5.281   0.469  2.2217  0.0734  2.0348
   82MOL   H16816530   2.204   5.389   0.532  1.2883  0.6951 -0.3224
   82MOL   H16916531   2.100   5.393   0.242  1.1500 -0.8771 -0.3142
   82MOL   H17016532   2.107   5.549   0.311 -2.5234 -0.6739 -1.1097
   82MOL   H17116533   2.348   5.515   0.343 -0.4505  0.4546 -1.3672
   82MOL   C17216534   2.350   5.335   0.251 -0.4817 -0.2047 -0.1078
   82MOL   O17316535   2.290   5.231   0.218 -0.6816 -0.4556 -0.3447
   82MOL   C17416536   2.502   5.347   0.244 -0.0686  0.3337  0.2061
   82MOL   C17516537   2.551   5.265   0.117  0.0423 -0.1407 -0.6685
   82MOL   N17616538   2.656   5.164   0.147 -0.4587  0.0251  0.1588
   82MOL   H17716539   2.553   5.312   0.334 -0.2577 -1.3579 -0.3140
   82MOL   H17816540   2.518   5.454   0.229 -0.2840  0.0043 -2.7895
   82MOL   H17916541   2.472   5.231   0.051 -3.3991  2.2231  2.0685
   82MOL   H18016542   2.598   5.327   0.040  0.1308  0.3252 -0.2432
   82MOL   H18116543   2.672   5.147   0.245  1.8493  0.2678 -0.1498
   82MOL   C18216544   2.725   5.095   0.055 -0.0339 -0.2155 -0.4181
   82MOL   O18316545   2.721   5.115   7.709 -0.3822 -0.2819  0.4120
   82MOL   C18416546   2.831   5.007   0.117 -0.1999 -0.1196 -0.0159
   82MOL   C18516547   2.786   4.887   0.207 -0.2742  0.6362 -0.2789
   82MOL   N18616548   2.818   4.912   0.348 -0.2127 -0.1506 -0.3335
   82MOL   H18716549   2.916   5.060   0.160  1.5137 -3.2115  0.5886
   82MOL   H18816550   2.885   4.961   0.034 -1.2659 -1.2309 -0.1021
   82MOL   H18916551   2.678   4.871   0.199 -0.3349  1.6258 -1.6804
   82MOL   H19016552   2.833   4.796   0.171 -0.2297  0.1068  1.1036
   82MOL   H19116553   2.880   4.839   0.381 -0.2176 -0.8797 -1.8676
   82MOL   C19216554   2.752   4.982   0.443  0.6669 -0.1332 -0.2749
   82MOL   O19316555   2.667   5.064   0.414  0.3288 -0.2239  0.2634
   82MOL   C19416556   2.795   4.964   0.590 -0.4060  0.5279  0.3992
   82MOL   C19516557   2.676   4.911   0.679 -1.0219 -0.5994  0.0999
   82MOL   N19616558   2.636   4.773   0.647 -0.4835  0.4668  0.2891
   82MOL   H19716559   2.873   4.889   0.593 -0.1688  0.6782 -1.2707
   82MOL   H19816560   2.835   5.061   0.620 -1.0934  1.3821 -1.3379
   82MOL   H19916561   2.697   4.913   0.786  1.7750  0.1968 -0.4313
   82MOL   H20016562   2.593   4.982   0.676  1.0326  1.7701 -2.2473
   82MOL   H20116563   2.725   4.730   0.622 -0.8920 -1.6091  2.2140
   82MOL   H20216564   2.616   4.734   0.738  1.9197  2.1156  1.5916
   83MOL     C116565   7.758   0.240   5.539 -0.1520 -0.0151  0.0690
   83MOL     O216566   7.650   0.209   5.495  0.5892  0.2258  0.2983
   83MOL     C316567   0.115   0.209   5.475 -1.4769  0.0719 -0.1846
   83MOL     C416568   0.184   0.324   5.406 -0.3378 -0.8915  0.2276
   83MOL     N516569   0.185   0.448   5.480  0.0035 -1.0881 -0.4716
   83MOL     H616570   0.112   0.128   5.403 -0.1439  1.5759 -1.9464
   83MOL     H716571   0.177   0.169   5.556 -1.3133  0.5718 -0.0643
   83MOL     H816572   0.139   0.341   5.309 -1.1253 -0.5808  0.6363
   83MOL     H916573   0.288   0.298   5.389  0.2796  0.0135  2.4613
   83MOL    H1016574   0.179   0.445   5.581  1.1744  1.2106 -0.3027
   83MOL    H1116575   7.763   0.292   5.634  1.2741 -1.2510  0.6888
   83MOL    C1216576   0.210   0.567   5.422 -0.3067 -0.5373 -0.2111
   83MOL    O1316577   0.243   0.578   5.306  0.2368 -0.3453  0.2194
   83MOL    C1416578   0.210   0.690   5.509  0.1463  0.1241 -0.4039
   83MOL    C1516579   0.343   0.709   5.586 -0.3197  0.2398 -0.2858
   83MOL    N1616580   0.330   0.704   5.725 -0.4408 -0.0992 -0.9924
   83MOL    H1716581   0.126   0.688   5.578 -0.8685  1.8392 -1.5565
   83MOL    H1816582   0.190   0.764   5.432  1.0772 -0.7209 -1.4668
   83MOL    H1916583   0.427   0.642   5.567 -0.1382  0.7220 -1.2214
   83MOL    H2016584   0.375   0.806   5.547  1.5907 -1.1377 -2.2601
   83MOL    H2116585   0.358   0.789   5.772  1.8490 -0.2557 -1.9774
   83MOL    C2216586   0.283   0.596   5.793  0.3999  1.0208 -0.2469
   83MOL    O2316587   0.254   0.492   5.738  0.0766 -0.0008  0.3764
   83MOL    C2416588   0.263   0.615   5.944 -0.0345  0.3203  0.3777
   83MOL    C2516589   0.218   0.484   6.012  0.5380  0.5542  0.4767
   83MOL    N2616590   0.152   0.493   6.139  0.4088  0.5305 -0.1046
   83MOL    H2716591   0.181   0.686   5.951  0.2880  0.6969  0.3788
   83MOL    H2816592   0.345   0.660   6.001 -2.0560  1.7203  2.2463
   83MOL    H2916593   0.142   0.428   5.956  0.6999 -0.0779  0.8840
   83MOL    H3016594   0.304   0.418   6.025  1.8489  2.2501  0.5426
   83MOL    H3116595   0.051   0.488   6.136  0.3476  1.7918 -4.6150
   83MOL    C3216596   0.214   0.504   6.258 -0.6773 -0.0205  0.4559
   83MOL    O3316597   0.335   0.481   6.271  0.2225  0.2281 -0.0122
   83MOL    C3416598   0.131   0.534   6.383 -0.4651  0.1695 -0.4506
   83MOL    C3516599   0.198   0.636   6.473  0.5437 -0.2999  0.0148
   83MOL    N3616600   0.273   0.580   6.582 -0.1355 -0.4616 -0.0495
   83MOL    H3716601   0.122   0.445   6.446 -3.0242 -0.1925 -1.2551
   83MOL    H3816602   0.026   0.561   6.367 -1.1948 -0.8899  2.2956
   83MOL    H3916603   0.265   0.700   6.416 -0.8588  0.5983 -0.6344
   83MOL    H4016604   0.115   0.689   6.519  0.9607 -0.4938  1.0103
   83MOL    H4116605   0.291   0.480   6.582 -1.1137 -0.6539 -1.6281
   83MOL    C4216606   0.329   0.652   6.680  0.0398  0.4210 -0.0455
   83MOL    O4316607   0.305   0.775   6.681  0.1847 -0.1028  0.1289
   83MOL    C4416608   0.394   0.579   6.798 -0.4324 -0.3051  0.1387
   83MOL    C4516609   0.544   0.606   6.805  0.2488  0.3428  0.8370
   83MOL    N4616610   0.582   0.747   6.802  0.0949  0.7928 -0.2976
   83MOL    H4716611   0.355   0.612   6.895 -1.2561 -2.1735  0.4700
   83MOL    H4816612   0.382   0.472   6.781 -0.1240 -0.8391  3.0130
   83MOL    H4916613   0.586   0.563   6.897  1.0412  0.6284  0.6084
   83MOL    H5016614   0.591   0.548   6.726 -0.6162  1.2214 -0.3302
   83MOL    H5116615   0.522   0.809   6.749 -1.1767 -0.5504 -0.4504
   83MOL    C5216616   0.703   0.801   6.837 -0.6842 -1.0369 -0.5635
   83MOL    O5316617   0.795   0.736   6.885 -0.1268 -0.0212  0.2281
   83MOL    C5416618   0.711   0.954   6.816 -0.0392 -0.0396  0.2297
   83MOL    C5516619   0.821   1.023   6.892 -0.0074 -0.1098  0.4228
   83MOL    N5616620   0.819   1.170   6.876  0.8563 -0.9003  0.0157
   83MOL    H5716621   0.722   0.966   6.708  0.8999 -1.3921  0.1546
   83MOL    H5816622   0.617   0.988   6.858 -0.4751  0.2161 -0.9207
   83MOL    H5916623   0.916   0.977   6.866  0.7651  1.2959  0.6942
   83MOL    H6016624   0.815   1.023   7.001 -0.3943 -1.2270  0.4135
   83MOL    H6116625   0.817   1.220   6.964 -0.3568  0.1587 -0.5909
   83MOL    C6216626   0.859   1.237   6.768  0.1092  0.2360 -0.2476
   83MOL    O6316627   0.897   1.179   6.668  0.1665  0.2458  0.6881
   83MOL    C6416628   0.865   1.392   6.776 -0.6767 -0.6224 -0.2365
   83MOL    C6516629   0.965   1.456   6.675 -0.4953 -0.5981  0.0095
   83MOL    N6616630   0.936   1.598   6.648  0.3592 -0.0344 -0.2783
   83MOL    H6716631   0.765   1.430   6.755 -0.6780  1.5592  3.3886
   83MOL    H6816632   0.881   1.411   6.881  1.8902  4.0845 -1.3765
   83MOL    H6916633   1.069   1.437   6.701  0.2320  2.2249 -0.6070
   83MOL    H7016634   0.956   1.412   6.576  0.9127  0.2813 -0.5180
   83MOL    H7116635   0.844   1.621   6.614 -0.6202 -0.5662  1.9281
   83MOL    C7216636   1.012   1.705   6.691  0.0982  0.9407  0.1006
   83MOL    O7316637   1.120   1.693   6.750 -0.0702 -0.3556  0.6034
   83MOL    C7416638   0.952   1.838   6.663  0.2338 -0.5895 -0.0817
   83MOL    C7516639   1.002   1.902   6.539  0.0883 -0.1596 -0.0468
   83MOL    N7616640   1.142   1.959   6.537 -0.4244  0.7134  0.2903
   83MOL    H7716641   0.843   1.837   6.665  0.1674 -0.9831 -2.1332
   83MOL    H7816642   0.989   1.904   6.742 -0.7422  0.2716 -0.3248
   83MOL    H7916643   0.983   1.837   6.453  1.2585  0.3819 -0.7314
   83MOL    H8016644   0.932   1.983   6.519  1.1766  0.6317 -0.7178
   83MOL    H8116645   1.184   1.964   6.628 -0.3255 -0.0132  0.2866
   83MOL    C8216646   1.200   2.016   6.437 -0.5879 -0.7770  0.4130
   83MOL    O8316647   1.161   2.019   6.319  0.0111  0.2197 -0.1461
   83MOL    C8416648   1.327   2.095   6.463 -0.4701  0.4292 -0.0446
   83MOL    C8516649   1.453   2.039   6.396  0.0963 -0.0940  0.4165
   83MOL    N8616650   1.471   2.068   6.250  0.5213 -0.0298 -0.6264
   83MOL    H8716651   1.299   2.195   6.430 -0.2508  1.2742  2.2067
   83MOL    H8816652   1.356   2.100   6.568  0.0760 -1.3557 -0.0960
   83MOL    H8916653   1.546   2.080   6.437  0.9615  1.9521 -3.3166
   83MOL    H9016654   1.463   1.931   6.411  3.3822  0.0569 -0.1960
   83MOL    H9116655   1.492   2.166   6.236  1.5924 -0.6967 -4.4596
   83MOL    C9216656   1.467   1.983   6.146  0.3868  0.2310  0.8035
   83MOL    O9316657   1.450   1.864   6.160 -0.6012  0.6350  0.4230
   83MOL    C9416658   1.474   2.052   6.006 -0.5232  0.0748  0.4824
   83MOL    C9516659   1.560   1.974   5.909 -0.5412 -0.0669 -0.4140
   83MOL    N9616660   1.513   1.843   5.864  0.5939  0.0010 -0.3182
   83MOL    H9716661   1.374   2.067   5.966  0.1291 -1.0695 -1.6769
   83MOL    H9816662   1.510   2.154   6.019  0.2454 -0.2239  0.7768
   83MOL    H9916663   1.578   2.046   5.830  1.9508 -0.8986 -0.6621
   83MOL   H10016664   1.656   1.956   5.957 -1.1264  0.8807  1.1605
   83MOL   H10116665   1.473   1.776   5.928 -0.8181  1.2112  0.0659
   83MOL   C10216666   1.522   1.806   5.736  0.0629  0.4556 -0.3891
   83MOL   O10316667   1.554   1.877   5.642  0.4438 -0.0390  0.0513
   83MOL   C10416668   1.465   1.665   5.707 -0.2984 -0.8213 -0.2597
   83MOL   C10516669   1.506   1.614   5.565  0.6814 -0.2198 -0.1630
   83MOL   N10616670   1.500   1.467   5.549 -0.1063  0.0469  0.2718
   83MOL   H10716671   1.356   1.671   5.713 -0.2963 -0.4239 -0.5349
   83MOL   H10816672   1.515   1.606   5.784 -2.4323 -0.9462  1.0648
   83MOL   H10916673   1.458   1.658   5.477 -1.0256 -1.6739  0.0006
   83MOL   H11016674   1.604   1.649   5.536 -0.2452  0.5355 -2.4764
   83MOL   H11116675   1.504   1.417   5.637  0.5720  0.7893  0.6729
   83MOL   C11216676   1.446   1.404   5.449  0.9631  0.2081  0.4242
   83MOL   O11316677   1.406   1.452   5.342  0.7550  0.0921 -0.0541
   83MOL   C11416678   1.427   1.254   5.469 -0.5434 -0.0341  0.4898
   83MOL   C11516679   1.506   1.172   5.371 -0.6868 -0.5145 -0.0026
   83MOL   N11616680   1.453   1.042   5.354  0.3466  0.0328 -0.0540
   83MOL   H11716681   1.319   1.244   5.460 -0.1940 -1.2572 -3.2947
   83MOL   H11816682   1.458   1.217   5.567  0.6657 -0.2435  0.0313
   83MOL   H11916683   1.531   1.211   5.272 -2.6912 -1.1287 -0.7686
   83MOL   H12016684   1.601   1.182   5.424 -0.4497 -0.9759 -0.3368
   83MOL   H12116685   1.374   1.026   5.414  0.2797  1.0671  0.1389
   83MOL   C12216686   1.493   0.939   5.275 -0.4272 -0.7164 -0.3602
   83MOL   O12316687   1.593   0.954   5.204  0.5286 -0.1745  0.7388
   83MOL   C12416688   1.405   0.820   5.284  0.3950  0.0354 -0.4142
   83MOL   C12516689   1.412   0.716   5.175  0.5489  0.1214  0.3250
   83MOL   N12616690   1.517   0.618   5.188 -0.2121  0.3378  0.2760
   83MOL   H12716691   1.310   0.873   5.274  0.6818  0.4248 -1.1430
   83MOL   H12816692   1.410   0.777   5.384 -0.6732  0.1869 -0.2872
   83MOL   H12916693   1.313   0.671   5.172  0.0996  1.0032  1.5275
   83MOL   H13016694   1.426   0.764   5.077  0.6630 -0.5174  0.0258
   83MOL   H13116695   1.571   0.619   5.273  0.3429  1.2009 -0.0753
   83MOL   C13216696   1.543   0.536   5.090  1.3332 -0.6128  0.4541
   83MOL   O13316697   1.478   0.540   4.983 -0.5958 -0.2295 -0.5614
   83MOL   C13416698   1.669   0.438   5.099  0.3860  0.1413 -0.2008
   83MOL   C13516699   1.626   0.286   5.098 -0.2112 -0.7650 -1.3832
   83MOL   N13616700   1.559   0.250   4.974 -0.5097 -0.1297 -0.1802
   83MOL   H13716701   1.741   0.458   5.179 -1.2350 -1.1288  1.6386
   83MOL   H13816702   1.720   0.453   5.004  1.3762  1.0714  0.4573
   83MOL   H13916703   1.712   0.224   5.121  0.7677  0.9599 -0.2515
   83MOL   H14016704   1.564   0.263   5.185  2.2488 -2.3491 -0.0085
   83MOL   H14116705   1.512   0.321   4.919 -1.8981 -1.9181 -1.3791
   83MOL   C14216706   1.530   0.128   4.928  0.8520  0.3299 -0.2532
   83MOL   O14316707   1.564   0.023   4.981  0.0812  0.1920 -0.9377
   83MOL   C14416708   1.439   0.134   4.803  0.2055 -0.1728  0.1032
   83MOL   C14516709   1.462   0.029   4.687 -0.2119  0.0479  0.3383
   83MOL   N14616710   1.586   0.028   4.613 -0.1851 -0.3688 -0.2042
   83MOL   H14716711   1.457   0.235   4.768  1.7163  0.6944  3.1500
   83MOL   H14816712   1.334   0.118   4.824 -0.1259  0.2741 -1.2043
   83MOL   H14916713   1.452   7.714   4.739 -0.9290  1.1957  2.3640
   83MOL   H15016714   1.384   0.034   4.611 -1.1327 -0.1249  1.2417
   83MOL   H15116715   1.652   7.732   4.620  0.2712  0.0715  0.2475
   83MOL   C15216716   1.615   0.107   4.507  0.0347 -0.5969  0.6131
   83MOL   O15316717   1.548   0.204   4.482  0.8941  0.9973  0.3494
   83MOL   C15416718   1.743   0.077   4.437  0.5042 -0.1874 -0.0488
   83MOL   C15516719   1.712   0.056   4.284  0.1601 -0.2403  0.2089
   83MOL   N15616720   1.708   0.183   4.209  0.2407  0.2679 -0.0963
   83MOL   H15716721   1.795   7.769   4.475 -0.2610 -0.4584  0.3727
   83MOL   H15816722   1.821   0.153   4.449 -0.4608  1.0183 -1.1880
   83MOL   H15916723   1.802   0.006   4.248 -0.3144  0.6802 -2.3474
   83MOL   H16016724   1.629   7.768   4.262  0.7989 -1.4193  1.4431
   83MOL   H16116725   1.800   0.221   4.191 -0.3652  1.1471 -1.3597
   83MOL   C16216726   1.594   0.232   4.159  0.2484  0.4071 -0.0908
   83MOL   O16316727   1.480   0.184   4.170  0.1524  0.3815 -0.4649
   83MOL   C16416728   1.613   0.350   4.060 -0.0655  0.2804  0.5812
   83MOL   C16516729   1.558   0.479   4.120 -0.5009  0.2209 -0.2072
   83MOL   N16616730   1.598   0.506   4.254 -0.8736 -0.1973 -0.1410
   83MOL   H16716731   1.565   0.330   3.965 -0.5877  1.1033  0.6635
   83MOL   H16816732   1.714   0.368   4.024 -1.0927  2.4659 -1.3200
   83MOL   H16916733   1.575   0.561   4.051 -2.1706 -1.0699 -2.2407
   83MOL   H17016734   1.450   0.476   4.134 -0.4623 -0.6345 -0.0734
   83MOL   H17116735   1.598   0.430   4.321 -1.6230 -1.8269 -1.9459
   83MOL   C17216736   1.570   0.623   4.303  0.4017  0.0795  0.1487
   83MOL   O17316737   1.540   0.717   4.233 -0.6613 -0.0490  0.3492
   83MOL   C17416738   1.572   0.635   4.458 -0.6568 -0.9239 -0.0740
   83MOL   C17516739   1.662   0.756   4.497  0.3312 -0.0562  0.0448
   83MOL   N17616740   1.725   0.740   4.627 -0.3328 -0.0083  0.1403
   83MOL   H17716741   1.612   0.541   4.497  2.1216  0.2504  0.0449
   83MOL   H17816742   1.471   0.638   4.497 -1.7295 -2.1806 -2.6522
   83MOL   H17916743   1.744   0.770   4.427 -0.2644  2.9489 -0.1467
   83MOL   H18016744   1.612   0.852   4.482  1.0632  0.0837 -1.6141
   83MOL   H18116745   1.743   0.645   4.657 -0.7169  0.8274  3.2191
   83MOL   C18216746   1.746   0.840   4.711 -0.4211  0.5047 -0.5164
   83MOL   O18316747   1.742   0.951   4.666  0.1337 -0.0997 -0.3484
   83MOL   C18416748   1.761   0.801   4.862 -0.3275 -0.5530  0.2440
   83MOL   C18516749   1.906   0.813   4.915 -0.4654  0.1637 -0.0749
   83MOL   N18616750   1.968   0.948   4.897 -0.2673 -0.2085 -0.0500
   83MOL   H18716751   1.739   0.694   4.862  2.7782 -1.2886 -2.2046
   83MOL   H18816752   1.701   0.854   4.936 -2.7208  0.0517 -2.0927
   83MOL   H18916753   1.915   0.776   5.017  0.5637 -0.6038 -0.4300
   83MOL   H19016754   1.960   0.741   4.853 -2.0587 -0.1302 -1.1514
   83MOL   H19116755   1.921   1.016   4.839 -2.4746  0.6904  2.6904
   83MOL   C19216756   2.087   0.987   4.939 -0.1497 -0.2129  0.1936
   83MOL   O19316757   2.151   0.910   5.014  0.1814 -0.2992 -0.5339
   83MOL   C19416758   2.136   1.131   4.896 -0.1374  0.4828  0.0721
   83MOL   C19516759   2.265   1.176   4.963 -0.5346 -0.3572 -0.9280
   83MOL   N19616760   2.264   1.178   5.113  0.1319 -0.8773 -0.0889
   83MOL   H19716761   2.154   1.144   4.789  3.0971  1.5761  0.6986
   83MOL   H19816762   2.054   1.199   4.921  0.5699  1.1805  0.5211
   83MOL   H19916763   2.348   1.110   4.938  0.8404  0.5555  0.9930
   83MOL   H20016764   2.304   1.269   4.921  1.3756 -0.4820  0.4888
   83MOL   H20116765   2.352   1.207   5.153 -0.5428  1.5401 -0.2679
   83MOL   H20216766   2.237   1.090   5.153  0.3851 -0.8276  0.1901
   84MOL     C116767   2.399   1.768   4.178 -0.2560 -0.5661 -0.3885
   84MOL     O216768   2.517   1.804   4.185 -0.0219  0.5953 -0.1313
   84MOL     C316769   2.309   1.824   4.069 -0.4023  0.5152  0.5214
   84MOL     C416770   2.307   1.982   4.052 -0.4613  0.1030  0.1179
   84MOL     N516771   2.242   2.049   4.164  0.0789  0.3260 -0.2010
   84MOL     H616772   2.204   1.794   4.075 -1.0469  2.4564 -0.7744
   84MOL     H716773   2.358   1.774   3.986 -2.8464 -0.0772 -0.6022
   84MOL     H816774   2.262   2.011   3.957 -1.0865  1.5752  0.8491
   84MOL     H916775   2.410   2.018   4.052 -1.1135  1.9982 -0.4490
   84MOL    H1016776   2.299   2.074   4.243 -0.2827 -0.4427  0.3097
   84MOL    H1116777   2.341   1.708   4.248 -3.7097 -0.8112 -3.2791
   84MOL    C1216778   2.110   2.066   4.179 -0.2168 -0.5221  0.2485
   84MOL    O1316779   2.032   2.028   4.090 -0.2258 -0.2582 -0.0215
   84MOL    C1416780   2.066   2.134   4.311  0.4424  0.8890 -0.5414
   84MOL    C1516781   1.935   2.215   4.277 -0.7648 -0.1121  0.0230
   84MOL    N1616782   1.963   2.358   4.250  0.1719 -0.1114  0.6101
   84MOL    H1716783   2.150   2.196   4.342  0.5956  0.6716 -0.5162
   84MOL    H1816784   2.051   2.061   4.391 -1.1213  0.6787 -0.9999
   84MOL    H1916785   1.885   2.179   4.188 -0.9256 -0.0347  0.0829
   84MOL    H2016786   1.862   2.201   4.357 -0.8054  0.3071  0.0612
   84MOL    H2116787   1.995   2.374   4.156 -0.6756 -1.1142  0.1522
   84MOL    C2216788   1.946   2.453   4.345 -0.3102  0.5481  0.0237
   84MOL    O2316789   1.897   2.430   4.452  0.0854  0.1027  0.0013
   84MOL    C2416790   1.995   2.600   4.311  0.2520  0.4720  0.5193
   84MOL    C2516791   1.899   2.711   4.288  0.2232 -0.0083 -0.3953
   84MOL    N2616792   1.870   2.705   4.148 -0.3829  0.1236  0.8597
   84MOL    H2716793   2.061   2.579   4.226  0.1365 -0.7982  0.7226
   84MOL    H2816794   2.060   2.617   4.397  0.6848 -3.6505  1.1150
   84MOL    H2916795   1.807   2.696   4.345 -0.2492 -0.3705 -1.2468
   84MOL    H3016796   1.931   2.813   4.309 -2.4533  0.9220 -0.6614
   84MOL    H3116797   1.944   2.673   4.088  0.9468  1.4967  1.7213
   84MOL    C3216798   1.757   2.753   4.093 -0.2401 -0.2873 -0.3243
   84MOL    O3316799   1.666   2.799   4.161  0.5880 -0.1075  0.0953
   84MOL    C3416800   1.748   2.757   3.943  0.1464 -0.1804  0.1079
   84MOL    C3516801   1.693   2.885   3.881  0.3342  0.1348  0.0240
   84MOL    N3616802   1.550   2.893   3.905  0.0568  0.4030  0.0236
   84MOL    H3716803   1.687   2.671   3.915  0.7534 -0.6699  0.2920
   84MOL    H3816804   1.844   2.731   3.898 -0.0145 -1.5663  0.5387
   84MOL    H3916805   1.752   2.968   3.921 -0.9104  0.9534  0.1815
   84MOL    H4016806   1.695   2.884   3.772 -3.2112 -0.9481 -0.0817
   84MOL    H4116807   1.504   2.803   3.910  0.2694  0.2228 -1.0271
   84MOL    C4216808   1.485   2.995   3.964  0.2707  0.0712  0.7537
   84MOL    O4316809   1.528   3.112   3.965 -0.0281 -0.2827  0.0479
   84MOL    C4416810   1.359   2.945   4.025  0.1374 -0.2257 -0.2809
   84MOL    C4516811   1.350   2.981   4.177 -0.9774 -0.3436  0.4003
   84MOL    N4616812   1.458   2.927   4.255 -0.3882  0.0357  0.2440
   84MOL    H4716813   1.272   2.987   3.975 -0.7677  0.1222  1.5454
   84MOL    H4816814   1.355   2.836   4.018 -0.8421 -0.2220  0.1655
   84MOL    H4916815   1.374   3.087   4.192  1.3970 -0.6589 -0.9519
   84MOL    H5016816   1.250   2.970   4.217 -0.3841 -1.0427  1.7465
   84MOL    H5116817   1.536   2.890   4.203 -1.7605  0.6755 -2.3597
   84MOL    C5216818   1.459   2.951   4.382  0.0026  0.7171 -0.3958
   84MOL    O5316819   1.370   3.003   4.449 -0.0703 -0.3699 -0.5795
   84MOL    C5416820   1.587   2.917   4.460  0.8486 -0.2907 -0.1906
   84MOL    C5516821   1.685   3.033   4.459  0.6790  0.9117 -0.0282
   84MOL    N5616822   1.755   3.046   4.334  0.3929  0.1326 -0.0547
   84MOL    H5716823   1.563   2.886   4.562 -2.4206  4.0290  0.5000
   84MOL    H5816824   1.632   2.822   4.430  1.2532  0.0465 -0.6459
   84MOL    H5916825   1.755   3.012   4.540  0.2052 -1.0498 -0.1049
   84MOL    H6016826   1.627   3.124   4.474  1.0259  1.1159  0.0918
   84MOL    H6116827   1.757   2.962   4.277 -1.2568  0.5713 -0.7948
   84MOL    C6216828   1.821   3.151   4.287  0.1295 -0.0041 -0.4929
   84MOL    O6316829   1.827   3.257   4.347  0.5471  0.2101  0.0929
   84MOL    C6416830   1.888   3.125   4.148  0.4779 -0.7260  0.0966
   84MOL    C6516831   1.901   3.243   4.052 -0.6846  0.4093  1.3346
   84MOL    N6616832   1.773   3.282   3.987 -0.2146 -0.1841  0.2669
   84MOL    H6716833   1.983   3.083   4.181  0.8890  0.8151  0.9051
   84MOL    H6816834   1.841   3.041   4.097 -0.8105 -0.1209  0.2715
   84MOL    H6916835   1.945   3.328   4.104  1.1521  0.2236  0.1260
   84MOL    H7016836   1.971   3.227   3.970  1.9162  1.9372  3.2049
   84MOL    H7116837   1.702   3.213   3.966 -1.6521  0.6497  2.2515
   84MOL    C7216838   1.749   3.410   3.950  1.0228 -0.0058  0.5379
   84MOL    O7316839   1.833   3.495   3.954 -0.2678 -0.3360  0.2202
   84MOL    C7416840   1.610   3.437   3.904  0.2404  0.2570  0.1175
   84MOL    C7516841   1.592   3.428   3.749 -0.0270 -0.0198  0.1406
   84MOL    N7616842   1.565   3.292   3.709 -0.5356 -0.3248 -0.1946
   84MOL    H7716843   1.546   3.363   3.950 -0.1696 -0.3711 -1.4463
   84MOL    H7816844   1.571   3.536   3.926 -0.3892  0.4380 -1.6805
   84MOL    H7916845   1.499   3.480   3.727 -0.1205 -0.3801 -0.3328
   84MOL    H8016846   1.678   3.474   3.698 -0.7819  0.2642 -0.8968
   84MOL    H8116847   1.517   3.230   3.773  1.7574 -2.3341 -0.3690
   84MOL    C8216848   1.581   3.258   3.581  0.8570  0.1109 -0.6414
   84MOL    O8316849   1.631   3.328   3.496 -0.0242 -0.2900  0.1288
   84MOL    C8416850   1.536   3.121   3.546 -0.0567  0.0711  0.4560
   84MOL    C8516851   1.397   3.106   3.488  0.1263  0.2143  0.4515
   84MOL    N8616852   1.287   3.100   3.582  0.1392  0.0881  0.3735
   84MOL    H8716853   1.605   3.086   3.469  1.0443 -0.8099  1.8155
   84MOL    H8816854   1.550   3.049   3.627  2.1096  0.0678  0.1279
   84MOL    H8916855   1.384   3.195   3.427  0.1949  2.3698  3.4563
   84MOL    H9016856   1.400   3.022   3.418 -0.7297 -0.0860  0.7757
   84MOL    H9116857   1.292   3.149   3.671  0.9464  0.4146  0.1477
   84MOL    C9216858   1.173   3.032   3.558 -0.3173  0.1126 -0.6423
   84MOL    O9316859   1.146   2.963   3.464  0.0225 -0.0558  0.1266
   84MOL    C9416860   1.060   3.058   3.661  0.3671  0.7675 -0.6787
   84MOL    C9516861   1.009   2.920   3.719 -0.4442  0.1190 -0.2276
   84MOL    N9616862   0.963   2.925   3.854  0.1952  0.3319 -1.0446
   84MOL    H9716863   1.108   3.121   3.736  0.7381 -1.6883  1.2101
   84MOL    H9816864   0.974   3.110   3.619 -0.4206 -0.1375 -0.2340
   84MOL    H9916865   0.945   2.870   3.646  0.5308  2.8437 -3.0876
   84MOL   H10016866   1.092   2.850   3.712 -1.2707 -0.8208 -0.6621
   84MOL   H10116867   1.019   2.873   3.919 -1.4700  0.6456  0.6761
   84MOL   C10216868   0.859   2.996   3.901 -0.1210 -0.9200 -0.0720
   84MOL   O10316869   0.802   3.084   3.830 -0.4789  0.0320 -0.1735
   84MOL   C10416870   0.813   2.989   4.046  0.2053  0.4256 -0.3964
   84MOL   C10516871   0.940   2.983   4.142 -0.1877 -0.9536  0.4863
   84MOL   N10616872   0.964   2.848   4.199  0.1228  0.2454 -0.0306
   84MOL   H10716873   0.754   2.900   4.067 -1.2182  1.8458  1.8231
   84MOL   H10816874   0.750   3.074   4.071  0.0453 -0.2231  1.4909
   84MOL   H10916875   1.032   3.031   4.107  0.3854 -2.1715  0.3117
   84MOL   H11016876   0.928   3.030   4.240 -0.5132  1.5123 -0.6864
   84MOL   H11116877   0.916   2.825   4.285 -1.4114 -0.2823 -1.0094
   84MOL   C11216878   1.041   2.756   4.142  0.4040  0.3180  0.2938
   84MOL   O11316879   1.090   2.791   4.032 -0.5477  0.1518 -0.7388
   84MOL   C11416880   1.078   2.624   4.210  0.8962  0.7739  0.3667
   84MOL   C11516881   1.235   2.607   4.218 -0.2364  0.4755  0.5638
   84MOL   N11616882   1.274   2.475   4.271  0.3787  0.4771 -0.4091
   84MOL   H11716883   1.036   2.551   4.141 -0.5844  0.7101  1.3146
   84MOL   H11816884   1.029   2.608   4.307 -1.9400  1.7232 -0.8510
   84MOL   H11916885   1.274   2.624   4.117 -0.9524 -2.7180 -0.3051
   84MOL   H12016886   1.280   2.680   4.286  0.1810 -0.3965  1.2367
   84MOL   H12116887   1.216   2.431   4.340  0.9444  1.3263  0.6286
   84MOL   C12216888   1.386   2.412   4.245  0.7526 -0.0566 -0.2030
   84MOL   O12316889   1.396   2.299   4.295 -0.6411  0.0890  0.6953
   84MOL   C12416890   1.502   2.476   4.172 -0.1367  0.7479  0.6112
   84MOL   C12516891   1.586   2.372   4.088  0.2318 -0.1505 -0.9368
   84MOL   N12616892   1.512   2.304   3.984 -0.6068 -0.7455 -0.0671
   84MOL   H12716893   1.568   2.535   4.237  1.5927 -0.4520 -0.0099
   84MOL   H12816894   1.464   2.542   4.094 -1.5402  2.4247  2.6615
   84MOL   H12916895   1.677   2.417   4.049 -0.3881 -0.2142 -2.4834
   84MOL   H13016896   1.623   2.299   4.160  0.5107  0.3784 -0.5361
   84MOL   H13116897   1.432   2.249   4.012  0.2914 -1.6457  0.7982
   84MOL   C13216898   1.542   2.300   3.854 -0.1803  0.4991 -0.9412
   84MOL   O13316899   1.619   2.380   3.799 -0.2950  0.9711  0.5746
   84MOL   C13416900   1.470   2.195   3.768  0.3969  0.3618  0.2694
   84MOL   C13516901   1.493   2.211   3.616  0.1983  0.1811  1.6049
   84MOL   N13616902   1.405   2.127   3.524 -0.3109 -0.3411 -0.1370
   84MOL   H13716903   1.369   2.227   3.793 -0.0625 -1.5485  0.9532
   84MOL   H13816904   1.477   2.099   3.819  2.9091 -0.6634 -1.9305
   84MOL   H13916905   1.489   2.316   3.589  0.1611  0.3740  2.3433
   84MOL   H14016906   1.599   2.185   3.607  0.0711  0.1938 -0.0078
   84MOL   H14116907   1.431   2.031   3.509  0.2004 -0.4037  1.0837
   84MOL   C14216908   1.295   2.167   3.465 -0.1169 -0.0063  0.1636
   84MOL   O14316909   1.248   2.280   3.479  0.4773 -0.2394  0.2064
   84MOL   C14416910   1.222   2.057   3.383 -0.7926 -0.5173 -0.2508
   84MOL   C14516911   1.135   2.122   3.269  0.2889  0.6526 -0.3462
   84MOL   N14616912   1.052   2.025   3.194 -0.1240 -0.1485 -0.5992
   84MOL   H14716913   1.154   2.007   3.452 -0.7137 -1.3309 -0.7619
   84MOL   H14816914   1.293   1.985   3.343 -0.9272 -1.7684  1.6668
   84MOL   H14916915   1.062   2.186   3.318  0.8879 -0.9129  2.7476
   84MOL   H15016916   1.202   2.166   3.196  1.2608 -0.1438  0.0517
   84MOL   H15116917   0.962   2.006   3.235 -0.6220  2.8481 -0.2109
   84MOL   C15216918   1.086   1.957   3.085 -0.1314  0.3328 -0.3202
   84MOL   O15316919   1.197   1.965   3.034  0.1512  0.1135  0.4060
   84MOL   C15416920   0.982   1.860   3.035  0.5137 -0.5506  0.2559
   84MOL   C15516921   0.926   1.898   2.896  0.5094 -0.1856  0.5932
   84MOL   N15616922   0.795   1.952   2.904  0.4782  0.1614  0.5887
   84MOL   H15716923   0.903   1.841   3.108 -2.8135  0.6902 -2.8336
   84MOL   H15816924   1.049   1.776   3.020  1.1764  0.0174  0.0375
   84MOL   H15916925   0.997   1.956   2.837  1.5145 -1.0745  0.9025
   84MOL   H16016926   0.902   1.806   2.842 -1.0364  0.8907 -0.5735
   84MOL   H16116927   0.736   1.902   2.968 -0.8127 -0.6195 -1.1844
   84MOL   C16216928   0.740   2.049   2.825  0.7780 -0.2855  0.4960
   84MOL   O16316929   0.805   2.115   2.745  0.4610  0.2372 -0.4462
   84MOL   C16416930   0.586   2.063   2.826  0.4366 -0.5754  0.4708
   84MOL   C16516931   0.520   2.203   2.800 -0.2576  0.0495  0.3616
   84MOL   N16616932   0.517   2.289   2.921 -0.1202 -0.7057 -0.0613
   84MOL   H16716933   0.554   2.017   2.919  1.0071  1.0169  1.4823
   84MOL   H16816934   0.558   2.001   2.741  2.8922 -0.3283 -0.5758
   84MOL   H16916935   0.570   2.247   2.713  0.1802 -1.6736 -0.2662
   84MOL   H17016936   0.421   2.174   2.765  0.1632 -0.4934 -0.4043
   84MOL   H17116937   0.590   2.274   2.990 -1.0241  4.0260  2.1318
   84MOL   C17216938   0.412   2.362   2.954  0.7601  0.5128  0.1472
   84MOL   O17316939   0.312   2.370   2.880 -0.1721  0.5052 -0.0774
   84MOL   C17416940   0.428   2.431   3.090  0.1674  0.4734 -0.8100
   84MOL   C17516941   0.470   2.578   3.081  0.6806 -0.1271 -0.9390
   84MOL   N17616942   0.358   2.665   3.038 -0.2029  0.1388  0.5600
   84MOL   H17716943   0.503   2.382   3.151  1.3364  1.3796 -1.5026
   84MOL   H17816944   0.334   2.413   3.142  0.5697  2.0691  0.5097
   84MOL   H17916945   0.493   2.623   3.177  0.1154 -0.8373 -0.4617
   84MOL   H18016946   0.563   2.595   3.026  1.7642  0.2843  0.9614
   84MOL   H18116947   0.271   2.616   3.020  0.0243 -0.5886  1.3616
   84MOL   C18216948   0.366   2.794   3.017 -0.1418  0.5938 -0.0310
   84MOL   O18316949   0.473   2.856   3.034  0.0732 -0.3375  0.2002
   84MOL   C18416950   0.243   2.871   2.976 -0.3756  0.1708 -0.3471
   84MOL   C18516951   0.192   2.963   3.087 -0.4849  0.2962 -0.0421
   84MOL   N18616952   0.082   2.903   3.162  0.5676 -0.0898 -0.4097
   84MOL   H18716953   0.164   2.799   2.956  0.2270 -0.9300  1.1112
   84MOL   H18816954   0.255   2.925   2.882 -0.5730 -1.6537 -1.4432
   84MOL   H18916955   0.261   2.976   3.171 -1.8806  0.1268  1.1714
   84MOL   H19016956   0.170   3.062   3.048 -1.8434 -0.5716 -1.5143
   84MOL   H19116957   0.092   2.808   3.195  2.0585  0.4079  0.5950
   84MOL   C19216958   7.729   2.948   3.157 -0.4344  0.6473 -0.6873
   84MOL   O19316959   7.698   3.055   3.101  0.0757  0.4948  0.4715
   84MOL   C19416960   7.618   2.871   3.230 -0.0348  0.1596  0.0790
   84MOL   C19516961   7.530   2.775   3.143  0.0298 -0.4546  0.0345
   84MOL   N19616962   7.392   2.813   3.119 -0.8489 -0.1716  0.1449
   84MOL   H19716963   7.674   2.820   3.308  2.7844 -0.7426 -2.4535
   84MOL   H19816964   7.562   2.947   3.285 -0.5392  0.1427 -0.4070
   84MOL   H19916965   7.577   2.774   3.045  0.2128  0.5062  0.1105
   84MOL   H20016966   7.528   2.675   3.188 -0.5852 -0.0493  0.9412
   84MOL   H20116967   7.361   2.760   3.039  1.0654 -0.4505 -0.4480
   84MOL   H20216968   7.338   2.770   3.192  1.6266 -1.5364  1.2130
   85MOL     C116969   6.612   2.908   5.987  0.0016  0.6268  0.3672
   85MOL     O216970   6.675   3.002   5.941  0.2808 -0.3296 -0.7053
   85MOL     C316971   6.501   2.842   5.917 -0.0242 -0.3130 -0.1294
   85MOL     C416972   6.451   2.908   5.791 -0.1032  0.7913  0.0993
   85MOL     N516973   6.528   2.846   5.681  0.1530  0.4337  0.2774
   85MOL     H616974   6.422   2.831   5.992  2.3493 -2.4277  2.1706
   85MOL     H716975   6.545   2.744   5.898  1.3434 -0.1875  2.2166
   85MOL     H816976   6.452   3.017   5.794 -0.6733  0.8188 -0.7844
   85MOL     H916977   6.345   2.890   5.776 -0.1112  0.3415  0.6677
   85MOL    H1016978   6.588   2.767   5.703 -1.7629 -0.6630  1.7620
   85MOL    H1116979   6.636   2.840   6.068 -1.3646  0.6243  0.7883
   85MOL    C1216980   6.535   2.894   5.559  0.4350  0.4019  0.0453
   85MOL    O1316981   6.620   2.841   5.486  0.7073  0.3259  0.1164
   85MOL    C1416982   6.431   2.992   5.507  0.1195  0.3145 -0.5283
   85MOL    C1516983   6.385   2.962   5.363 -0.8530  0.0801 -0.1601
   85MOL    N1616984   6.243   2.940   5.355 -0.1850  0.1013  0.5722
   85MOL    H1716985   6.468   3.093   5.525 -2.2254  0.8134  1.7867
   85MOL    H1816986   6.338   2.991   5.564 -0.0600 -2.3691 -0.8005
   85MOL    H1916987   6.420   3.034   5.289  0.6167  0.0241  0.4625
   85MOL    H2016988   6.424   2.862   5.347 -0.8056  0.2326 -1.0002
   85MOL    H2116989   6.201   2.854   5.387  2.2055 -0.6114  1.9022
   85MOL    C2216990   6.161   3.020   5.294 -0.2224  0.8424 -0.2101
   85MOL    O2316991   6.191   3.133   5.253  0.5797 -0.1818 -0.3624
   85MOL    C2416992   6.016   2.967   5.280 -0.0281  0.1465  0.2933
   85MOL    C2516993   5.915   3.075   5.231  0.2898  0.4947 -0.0927
   85MOL    N2616994   5.933   3.112   5.090  1.0552 -0.2885  0.0725
   85MOL    H2716995   5.991   2.935   5.381 -1.8723 -0.4752 -0.3400
   85MOL    H2816996   6.025   2.883   5.211  1.6521  0.7640 -0.2666
   85MOL    H2916997   5.811   3.042   5.236  0.0816  0.8282 -2.0632
   85MOL    H3016998   5.911   3.158   5.302 -0.8934  1.1228 -0.8768
   85MOL    H3116999   5.924   3.211   5.074  0.5235 -0.1088  1.4473
   85MOL    C3217000   5.926   3.029   4.982  0.5885 -0.3470  0.2254
   85MOL    O3317001   5.930   2.909   4.988  0.2841 -0.1994 -0.5076
   85MOL    C3417002   5.901   3.096   4.840 -0.2173  0.3369 -0.1670
   85MOL    C3517003   5.766   3.050   4.776 -0.2380 -0.1194 -0.3277
   85MOL    N3617004   5.647   3.125   4.810 -0.1734 -0.1663  0.1439
   85MOL    H3717005   5.987   3.064   4.782 -0.3956  0.9387 -0.7687
   85MOL    H3817006   5.902   3.205   4.844 -1.1734  0.3592 -0.4234
   85MOL    H3917007   5.779   3.066   4.669  0.0944  2.4373  0.0651
   85MOL    H4017008   5.760   2.942   4.790  1.3052 -0.2606 -0.6220
   85MOL    H4117009   5.575   3.091   4.872 -0.8682  0.4193 -0.3347
   85MOL    C4217010   5.617   3.259   4.794 -0.0055  0.0447 -0.4297
   85MOL    O4317011   5.693   3.337   4.735 -0.7321 -0.4513  0.4222
   85MOL    C4417012   5.490   3.306   4.862  0.2418 -0.5458  0.6665
   85MOL    C4517013   5.421   3.435   4.806 -0.0258  0.8052  0.2276
   85MOL    N4617014   5.326   3.405   4.700 -0.0376 -0.3614  0.0186
   85MOL    H4717015   5.421   3.222   4.871  1.3043 -1.6678 -1.1665
   85MOL    H4817016   5.523   3.320   4.965  0.4994  0.2043  0.4874
   85MOL    H4917017   5.384   3.493   4.891 -1.2170  0.2873  0.0669
   85MOL    H5017018   5.496   3.494   4.752  1.6901 -1.2422  0.3221
   85MOL    H5117019   5.268   3.323   4.714 -1.5618  0.3937 -1.6121
   85MOL    C5217020   5.307   3.487   4.598  0.9090 -0.3684  0.1418
   85MOL    O5317021   5.371   3.595   4.576  0.4628  0.6213  0.1791
   85MOL    C5417022   5.200   3.444   4.496 -0.8509  0.2906 -0.8473
   85MOL    C5517023   5.231   3.476   4.348  0.1973 -0.3173  0.1089
   85MOL    N5617024   5.158   3.602   4.301  0.0928  0.2006 -0.0119
   85MOL    H5717025   5.184   3.338   4.510  4.5300 -0.6244 -0.6242
   85MOL    H5817026   5.115   3.501   4.536 -0.1881  2.3606 -2.2638
   85MOL    H5917027   5.213   3.384   4.294 -1.3668 -0.8545  1.5166
   85MOL    H6017028   5.331   3.511   4.320 -0.5998  1.0384 -1.1706
   85MOL    H6117029   5.136   3.676   4.366 -0.2523 -0.4468  0.6255
   85MOL    C6217030   5.128   3.629   4.174  0.9460 -1.1600 -0.0758
   85MOL    O6317031   5.163   3.558   4.079  0.0305 -0.2470 -0.0683
   85MOL    C6417032   5.058   3.765   4.146  0.0123 -0.6100 -0.0129
   85MOL    C6517033   4.923   3.752   4.075  0.4338  0.0318 -0.0987
   85MOL    N6617034   4.946   3.726   3.930 -0.3788  0.0171 -0.0259
   85MOL    H6717035   5.050   3.821   4.239 -0.7898  1.3722 -1.2401
   85MOL    H6817036   5.134   3.818   4.087 -3.5643  0.6186 -3.7690
   85MOL    H6917037   4.864   3.676   4.128 -2.2697  2.9264  1.2025
   85MOL    H7017038   4.866   3.844   4.075  3.2800  1.8451  0.6280
   85MOL    H7117039   5.021   3.784   3.897 -1.0451  1.6038  1.1907
   85MOL    C7217040   4.864   3.649   3.856 -0.2413 -0.3429  0.4274
   85MOL    O7317041   4.772   3.587   3.912  0.1175 -0.6842  0.1923
   85MOL    C7417042   4.878   3.655   3.707  0.2085 -0.3750 -0.8571
   85MOL    C7517043   4.905   3.525   3.639 -0.4699  0.1618 -0.2299
   85MOL    N7617044   5.038   3.469   3.648 -0.4588  0.1706 -0.5597
   85MOL    H7717045   4.785   3.689   3.661 -0.9357 -0.4936  1.3013
   85MOL    H7817046   4.943   3.732   3.667 -0.6070 -0.0454 -1.5603
   85MOL    H7917047   4.832   3.445   3.654  1.4465 -1.0353  3.0513
   85MOL    H8017048   4.900   3.545   3.532 -1.5428 -2.6093 -0.7531
   85MOL    H8117049   5.116   3.516   3.606  0.5164  0.1661  1.1983
   85MOL    C8217050   5.066   3.352   3.710 -0.0009 -0.5203  0.0919
   85MOL    O8317051   4.986   3.283   3.771 -0.2388  0.3962 -0.0103
   85MOL    C8417052   5.208   3.310   3.703  0.5054  0.1374 -0.4450
   85MOL    C8517053   5.259   3.268   3.835  0.6101 -0.6030  0.3931
   85MOL    N8617054   5.333   3.375   3.899  0.3143 -0.2112  0.2054
   85MOL    H8717055   5.201   3.229   3.631  0.2743  1.9377 -2.4737
   85MOL    H8817056   5.260   3.388   3.648 -1.8512 -0.9479 -4.3564
   85MOL    H8917057   5.181   3.239   3.906 -0.5442  1.5231  0.0478
   85MOL    H9017058   5.333   3.190   3.822  0.9498 -0.3333  0.6996
   85MOL    H9117059   5.290   3.466   3.908  3.7378  1.4472  0.4480
   85MOL    C9217060   5.444   3.361   3.970  0.5202  0.1881  0.4295
   85MOL    O9317061   5.495   3.251   3.972  0.3138 -0.1489 -0.3636
   85MOL    C9417062   5.495   3.486   4.043 -0.7682 -0.1104 -0.2909
   85MOL    C9517063   5.647   3.511   4.043  0.2984  0.1449 -0.1546
   85MOL    N9617064   5.699   3.499   3.911 -0.0040 -0.3882 -0.0706
   85MOL    H9717065   5.441   3.573   4.005 -0.8888 -0.1883 -0.2961
   85MOL    H9817066   5.466   3.464   4.146 -1.4224 -1.3717 -0.7350
   85MOL    H9917067   5.650   3.618   4.067 -1.9971  0.5689 -1.6433
   85MOL   H10017068   5.697   3.454   4.122 -1.7871 -1.7179 -0.1390
   85MOL   H10117069   5.656   3.555   3.839  0.0244 -1.5835 -1.0376
   85MOL   C10217070   5.795   3.420   3.870 -0.0364  0.3971 -0.4619
   85MOL   O10317071   5.851   3.344   3.953  0.1142 -0.5838  0.4594
   85MOL   C10417072   5.845   3.413   3.724  0.2967 -0.4857  0.0836
   85MOL   C10517073   5.986   3.358   3.692 -0.4056 -0.5516 -0.0673
   85MOL   N10617074   6.074   3.453   3.622 -0.2185 -0.0424 -0.3645
   85MOL   H10717075   5.825   3.509   3.675  0.7789 -0.5927 -0.3248
   85MOL   H10817076   5.771   3.355   3.669  0.5873 -0.8844  0.1139
   85MOL   H10917077   6.051   3.332   3.776 -0.5155 -0.9551 -0.1027
   85MOL   H11017078   5.971   3.262   3.643 -1.2334  0.4447 -1.8099
   85MOL   H11117079   6.135   3.515   3.674  0.4929 -0.5348 -0.6214
   85MOL   C11217080   6.087   3.472   3.492 -0.6686 -0.7750  0.5381
   85MOL   O11317081   6.018   3.400   3.419  0.0562  0.0334 -0.2153
   85MOL   C11417082   6.198   3.564   3.431  0.8435  0.3809 -0.2708
   85MOL   C11517083   6.139   3.667   3.340 -0.6311 -1.1024 -0.2293
   85MOL   N11617084   6.101   3.618   3.204  0.5319 -0.0078  0.2063
   85MOL   H11717085   6.274   3.507   3.378 -0.0490 -0.5944 -0.5129
   85MOL   H11817086   6.261   3.604   3.511 -0.2365  3.3077 -0.8465
   85MOL   H11917087   6.045   3.701   3.385 -0.2338 -1.9645  1.2954
   85MOL   H12017088   6.216   3.743   3.330  0.4230 -2.0573  0.5406
   85MOL   H12117089   6.141   3.530   3.175  0.3701 -0.2833  0.8127
   85MOL   C12217090   5.989   3.647   3.133  0.1735 -0.2067 -0.6564
   85MOL   O12317091   5.911   3.738   3.166 -0.0015  0.8139  0.3511
   85MOL   C12417092   5.959   3.546   3.023 -0.1703  0.3143  0.2824
   85MOL   C12517093   5.839   3.451   3.044  0.0949 -0.7940 -0.5384
   85MOL   N12617094   5.808   3.426   3.187  0.4831  0.1331 -0.7511
   85MOL   H12717095   6.043   3.479   3.001  0.6442  1.9895 -1.8876
   85MOL   H12817096   5.931   3.601   2.933 -0.9125 -0.4089  0.0649
   85MOL   H12917097   5.748   3.504   3.017  0.9261 -0.7601 -3.4593
   85MOL   H13017098   5.844   3.356   2.990 -1.7523  0.0423 -2.2571
   85MOL   H13117099   5.843   3.483   3.263  0.5604  1.3293 -1.6630
   85MOL   C13217100   5.714   3.343   3.223  0.6470 -0.2837 -0.1522
   85MOL   O13317101   5.676   3.257   3.148  0.6092  0.0044  0.6624
   85MOL   C13417102   5.663   3.366   3.366  0.5474  0.1726 -0.0020
   85MOL   C13517103   5.522   3.305   3.389 -0.3680 -0.0795 -0.2456
   85MOL   N13617104   5.420   3.383   3.323  0.2279 -0.5423 -0.8318
   85MOL   H13717105   5.669   3.468   3.401 -0.8830 -0.7653  3.1267
   85MOL   H13817106   5.727   3.309   3.434  1.5866 -0.8790 -1.8061
   85MOL   H13917107   5.536   3.200   3.364 -0.2904  0.2003 -1.3926
   85MOL   H14017108   5.499   3.294   3.495 -0.7668 -0.2705 -0.3504
   85MOL   H14117109   5.441   3.481   3.309 -0.1934 -0.6817 -2.6966
   85MOL   C14217110   5.307   3.321   3.277  0.2138 -0.8404 -0.1543
   85MOL   O14317111   5.285   3.202   3.301  0.2542 -0.5152 -0.5901
   85MOL   C14417112   5.220   3.403   3.180  0.1332 -0.2193  0.4285
   85MOL   C14517113   5.304   3.459   3.063 -0.5688 -0.3219 -0.0192
   85MOL   N14617114   5.208   3.511   2.961  0.0181 -0.2255 -0.3057
   85MOL   H14717115   5.171   3.487   3.228 -0.8644  0.0406 -1.0263
   85MOL   H14817116   5.146   3.332   3.143 -0.1250 -1.1762  2.6880
   85MOL   H14917117   5.379   3.532   3.097  0.8506 -2.1243  0.8577
   85MOL   H15017118   5.361   3.376   3.021 -1.0519 -1.0273  0.7092
   85MOL   H15117119   5.172   3.433   2.907 -0.2893 -0.0643 -0.3382
   85MOL   C15217120   5.185   3.640   2.928 -0.2266  0.7001  0.2046
   85MOL   O15317121   5.253   3.733   2.976 -0.1540 -0.4010  0.1013
   85MOL   C15417122   5.097   3.662   2.801  0.0654  0.4381 -0.7096
   85MOL   C15517123   5.152   3.773   2.707 -0.1083  0.4310 -0.2669
   85MOL   N15617124   5.094   3.777   2.569  0.3046 -0.6828  0.5016
   85MOL   H15717125   5.000   3.678   2.849  0.9236  1.1604  0.8358
   85MOL   H15817126   5.090   3.565   2.752  1.3980  0.4409 -0.9112
   85MOL   H15917127   5.156   3.873   2.749 -2.2298  1.0875 -1.5996
   85MOL   H16017128   5.258   3.750   2.698  0.6640  3.1337  1.3440
   85MOL   H16117129   5.124   3.711   2.499  2.6819  0.3951  0.4493
   85MOL   C16217130   4.998   3.860   2.531  0.3403  0.4652 -0.1324
   85MOL   O16317131   4.943   3.938   2.607  0.5758 -0.0272  0.2801
   85MOL   C16417132   4.946   3.840   2.384 -0.5582 -0.8097 -0.0023
   85MOL   C16517133   4.935   3.971   2.295  0.1808  0.1225  0.1719
   85MOL   N16617134   5.063   4.019   2.233  0.1589 -0.3186  0.4315
   85MOL   H16717135   4.845   3.800   2.387 -1.0517  0.1857 -2.2588
   85MOL   H16817136   5.000   3.762   2.332  1.4813  0.4198  0.2322
   85MOL   H16917137   4.868   3.963   2.209 -0.9074  1.2095  0.8849
   85MOL   H17017138   4.901   4.052   2.361  2.1634  0.9302  0.2226
   85MOL   H17117139   5.114   3.944   2.188  3.8459  1.6793  1.0344
   85MOL   C17217140   5.117   4.142   2.234 -0.3948  0.2493  0.3931
   85MOL   O17317141   5.070   4.232   2.300  0.0263 -0.4946  0.0910
   85MOL   C17417142   5.243   4.169   2.154 -0.2489  0.3980  0.0868
   85MOL   C17517143   5.243   4.308   2.083 -0.4056 -0.7084 -0.0230
   85MOL   N17617144   5.143   4.335   1.991 -0.1632 -0.0163 -1.1120
   85MOL   H17717145   5.261   4.085   2.086  1.3155 -1.2712  2.4743
   85MOL   H17817146   5.333   4.174   2.215  0.6583  1.0304 -1.2706
   85MOL   H17917147   5.235   4.391   2.153 -0.4343  1.0908 -2.1047
   85MOL   H18017148   5.341   4.322   2.036  0.0375  0.1537  1.1472
   85MOL   H18117149   5.058   4.376   2.025  1.3646  1.6635  0.8245
   85MOL   C18217150   5.142   4.281   1.870  0.1162 -0.4631 -0.1317
   85MOL   O18317151   5.244   4.231   1.824 -0.1098 -0.0628 -0.1088
   85MOL   C18417152   5.019   4.279   1.787  0.1992 -0.1598  0.2818
   85MOL   C18517153   4.995   4.156   1.696  0.2694  0.1912 -0.3222
   85MOL   N18617154   4.929   4.045   1.770 -0.2033 -0.7570 -0.2692
   85MOL   H18717155   5.022   4.368   1.724  0.9775 -0.6506 -0.3870
   85MOL   H18817156   4.928   4.298   1.843 -0.5859  1.6507 -1.5428
   85MOL   H18917157   4.943   4.181   1.603  2.9026  2.5427 -1.2519
   85MOL   H19017158   5.087   4.116   1.653  0.8033  0.5323  0.4830
   85MOL   H19117159   4.987   3.963   1.783  2.1672  1.1730  1.9545
   85MOL   C19217160   4.806   4.035   1.822 -0.2243  0.4041 -0.2204
   85MOL   O19317161   4.723   4.125   1.808  0.1510 -0.0599  0.3079
   85MOL   C19417162   4.780   3.907   1.905 -0.8153  0.7632  0.2306
   85MOL   C19517163   4.642   3.905   1.966  0.5152  0.0342  0.0155
   85MOL   N19617164   4.612   3.780   2.021 -0.1102 -0.3721 -0.5213
   85MOL   H19717165   4.794   3.820   1.841 -1.0171  2.0509 -1.6130
   85MOL   H19817166   4.855   3.893   1.983 -0.4876 -1.0994 -0.3971
   85MOL   H19917167   4.644   3.985   2.039  1.4314  1.0796 -1.1220
   85MOL   H20017168   4.561   3.927   1.896  0.2982  0.3828  0.3725
   85MOL   H20117169   4.603   3.717   1.942  0.7782 -0.6649 -0.3927
   85MOL   H20217170   4.518   3.775   2.058 -0.1672  1.2423 -0.4208
   86MOL     C117171   6.097   3.853   5.340 -0.1041  0.7540 -0.5356
   86MOL     O217172   6.032   3.782   5.265  0.4812  0.2290  0.8375
   86MOL     C317173   6.214   3.943   5.293  0.1471  0.6057 -0.2992
   86MOL     C417174   6.329   3.857   5.255  0.6442  0.0836 -0.1776
   86MOL     N517175   6.452   3.929   5.255  0.2281  0.1674 -0.6727
   86MOL     H617176   6.228   4.017   5.371  0.4529  0.3041 -0.0674
   86MOL     H717177   6.184   4.004   5.207 -3.4726 -1.2592 -0.4465
   86MOL     H817178   6.299   3.816   5.159 -0.1468  2.7829 -1.1368
   86MOL     H917179   6.334   3.769   5.319 -2.8669 -1.2611 -1.5734
   86MOL    H1017180   6.507   3.924   5.339  0.6033 -1.5568 -1.0019
   86MOL    H1117181   6.071   3.864   5.446 -0.3133  0.0117 -0.5020
   86MOL    C1217182   6.507   3.985   5.142 -0.4737  0.5895 -1.1215
   86MOL    O1317183   6.462   3.972   5.028 -0.1197  0.0901 -1.1141
   86MOL    C1417184   6.646   4.056   5.162 -0.5594  0.2078  0.3133
   86MOL    C1517185   6.645   4.190   5.086  0.4806 -0.0962 -0.4107
   86MOL    N1617186   6.732   4.285   5.158  0.0537  0.0624  0.3614
   86MOL    H1717187   6.734   3.995   5.143  0.5500  1.8240  0.1081
   86MOL    H1817188   6.641   4.081   5.268 -0.9167  1.7628 -0.0440
   86MOL    H1917189   6.678   4.180   4.982  0.9539 -1.9170 -0.1145
   86MOL    H2017190   6.549   4.241   5.077  0.3018 -0.6909 -2.1701
   86MOL    H2117191   6.821   4.305   5.113  0.3529  2.7190  2.0406
   86MOL    C2217192   6.710   4.375   5.255 -0.4966  0.1292 -0.0266
   86MOL    O2317193   6.606   4.373   5.324  0.1562  0.6243  0.0899
   86MOL    C2417194   6.822   4.474   5.288 -0.3064  0.2507  0.3526
   86MOL    C2517195   6.776   4.611   5.316  0.1649 -0.1065  0.6730
   86MOL    N2617196   6.847   4.681   5.424 -0.6119  0.1774  0.2798
   86MOL    H2717197   6.906   4.469   5.219 -0.9612 -1.3859 -0.3299
   86MOL    H2817198   6.856   4.438   5.386  1.1424  0.6336  0.0099
   86MOL    H2917199   6.796   4.685   5.238  1.7294  2.2216  3.1735
   86MOL    H3017200   6.670   4.615   5.338  0.2519 -1.4633  1.3338
   86MOL    H3117201   6.944   4.705   5.406 -0.4526  0.0705  0.9764
   86MOL    C3217202   6.806   4.690   5.550 -0.1617  0.5706 -0.0560
   86MOL    O3317203   6.692   4.676   5.591 -0.4252  0.1319 -0.0412
   86MOL    C3417204   6.907   4.760   5.644  1.0333  0.3365  0.0588
   86MOL    C3517205   6.972   4.673   5.750  0.4630  0.4783  0.2745
   86MOL    N3617206   7.092   4.603   5.715 -0.0384 -1.1242  0.0304
   86MOL    H3717207   6.857   4.847   5.686  0.1103  0.6604 -1.6553
   86MOL    H3817208   6.985   4.800   5.581  1.9825  1.2314  1.7587
   86MOL    H3917209   6.991   4.742   5.832  4.4197  1.8001 -1.6348
   86MOL    H4017210   6.902   4.597   5.784  1.8696 -1.6209 -1.3382
   86MOL    H4117211   7.085   4.508   5.680  2.1357 -0.9533 -0.9356
   86MOL    C4217212   7.206   4.664   5.693 -0.2062  0.4782  0.3837
   86MOL    O4317213   7.217   4.782   5.732  0.4320 -0.1634 -0.3202
   86MOL    C4417214   7.320   4.591   5.622 -1.0474 -1.2733 -0.5549
   86MOL    C4517215   7.366   4.664   5.497  0.1133 -0.3707 -0.1811
   86MOL    N4617216   7.311   4.605   5.380  0.2386  0.3187  0.1817
   86MOL    H4717217   7.402   4.581   5.694  1.3210 -0.3607 -3.0250
   86MOL    H4817218   7.276   4.494   5.601  1.0836 -1.8419 -2.6413
   86MOL    H4917219   7.354   4.772   5.509  0.1199 -0.1809 -1.8282
   86MOL    H5017220   7.474   4.658   5.479 -0.1580 -0.8411 -1.6422
   86MOL    H5117221   7.347   4.511   5.368 -1.5877 -0.6277  1.8593
   86MOL    C5217222   7.212   4.651   5.299 -0.0227  0.2178 -0.2250
   86MOL    O5317223   7.160   4.759   5.313 -0.2675  0.0572 -0.1522
   86MOL    C5417224   7.183   4.554   5.183 -0.1062 -0.2347  0.6285
   86MOL    C5517225   7.097   4.623   5.072 -0.7564 -0.7014  0.3108
   86MOL    N5617226   7.173   4.720   4.988  0.3168 -0.0445  0.1466
   86MOL    H5717227   7.275   4.516   5.139 -0.5134 -0.7396  0.2046
   86MOL    H5817228   7.135   4.465   5.224 -0.9673 -2.0283 -3.9770
   86MOL    H5917229   7.023   4.679   5.129  0.5899  1.4001  0.0531
   86MOL    H6017230   7.048   4.558   4.999 -0.8598  1.8696 -2.0395
   86MOL    H6117231   7.156   4.819   4.996  0.6357  0.1944 -1.9042
   86MOL    C6217232   7.244   4.685   4.882 -0.0866  0.7415  0.0838
   86MOL    O6317233   7.258   4.572   4.842 -0.1428  0.3087 -0.1758
   86MOL    C6417234   7.297   4.798   4.798 -0.3070 -0.1352  0.8349
   86MOL    C6517235   7.421   4.758   4.710  0.5607 -0.3545 -0.2387
   86MOL    N6617236   7.546   4.725   4.784  0.2753 -0.5061  0.5195
   86MOL    H6717237   7.219   4.834   4.731  0.1743 -0.6844 -0.0419
   86MOL    H6817238   7.327   4.880   4.863  2.5855 -1.4438  1.2392
   86MOL    H6917239   7.374   4.681   4.648 -2.1472  0.4616  0.7253
   86MOL    H7017240   7.446   4.840   4.643  1.2920 -0.2956  0.1012
   86MOL    H7117241   7.541   4.726   4.885 -1.5802  1.1176  0.4379
   86MOL    C7217242   7.667   4.696   4.738  0.4943  0.2306 -0.5624
   86MOL    O7317243   7.684   4.686   4.615 -0.3279  0.0236 -0.0472
   86MOL    C7417244   0.001   4.658   4.832  0.6776  0.0998 -0.8514
   86MOL    C7517245   0.139   4.715   4.798 -0.0471  0.3088 -0.7221
   86MOL    N7617246   0.172   4.830   4.880 -0.0598  0.7450 -0.2749
   86MOL    H7717247   7.758   4.687   4.935  0.6427 -2.5822 -0.0585
   86MOL    H7817248   0.002   4.549   4.831  0.2886  0.1010 -1.9458
   86MOL    H7917249   0.216   4.638   4.804  0.7992  0.9845 -2.5712
   86MOL    H8017250   0.136   4.741   4.693  0.8024 -4.2774 -1.9953
   86MOL    H8117251   0.158   4.916   4.829 -1.4978 -0.6320 -2.2790
   86MOL    C8217252   0.238   4.845   4.999 -0.1783 -0.1361 -0.3419
   86MOL    O8317253   0.254   4.751   5.070  0.1633 -0.2341 -0.1219
   86MOL    C8417254   0.267   4.985   5.049  0.0064 -0.9705 -0.2837
   86MOL    C8517255   0.305   5.007   5.200 -0.7673  0.1760  0.1711
   86MOL    N8617256   0.444   5.055   5.211 -0.4529  0.3305 -0.5093
   86MOL    H8717257   0.336   5.042   4.987 -0.2833  1.0261  1.1726
   86MOL    H8817258   0.177   5.042   5.024  0.1847 -0.4670  0.2146
   86MOL    H8917259   0.241   5.085   5.241 -1.5677  0.5117 -1.6872
   86MOL    H9017260   0.303   4.920   5.265  2.9974  1.1660  1.7897
   86MOL    H9117261   0.488   5.089   5.127  0.7319  1.7402  0.6476
   86MOL    C9217262   0.501   5.065   5.330 -0.3207  0.6460 -0.4358
   86MOL    O9317263   0.448   5.039   5.439 -0.3707  0.2008 -0.1593
   86MOL    C9417264   0.641   5.124   5.317  0.4695  0.0209 -0.1367
   86MOL    C9517265   0.700   5.166   5.452 -0.3369  0.0477  0.4923
   86MOL    N9617266   0.613   5.259   5.525 -0.3599 -0.2564 -0.5377
   86MOL    H9717267   0.720   5.059   5.277  0.7179  0.8659 -1.0356
   86MOL    H9817268   0.632   5.211   5.252 -2.0184 -0.4248 -0.4535
   86MOL    H9917269   0.718   5.075   5.509  0.4132 -1.1907 -1.6651
   86MOL   H10017270   0.794   5.217   5.431  0.3296 -1.3028  0.1533
   86MOL   H10117271   0.540   5.314   5.482 -1.1883 -1.0854 -0.2252
   86MOL   C10217272   0.615   5.271   5.655  0.5352 -0.0062  0.5429
   86MOL   O10317273   0.691   5.209   5.732  0.1646 -0.1588  0.9091
   86MOL   C10417274   0.512   5.365   5.716 -0.2382  0.0548  0.0534
   86MOL   C10517275   0.405   5.310   5.806 -0.5707  0.3420 -1.0303
   86MOL   N10617276   0.304   5.227   5.735  0.1515 -0.6704 -0.3124
   86MOL   H10717277   0.467   5.432   5.643  1.4093  1.2116  0.0804
   86MOL   H10817278   0.571   5.436   5.774  1.6951 -1.0741 -0.5011
   86MOL   H10917279   0.448   5.256   5.890  0.0036 -0.2705 -1.7170
   86MOL   H11017280   0.349   5.393   5.850 -0.4016  0.6188 -1.3334
   86MOL   H11117281   0.283   5.140   5.782 -0.1643 -0.3529  0.1328
   86MOL   C11217282   0.247   5.255   5.610 -0.1285 -0.3731 -1.1414
   86MOL   O11317283   0.269   5.362   5.550 -0.2246  0.1033 -0.4494
   86MOL   C11417284   0.165   5.146   5.555  0.3643  0.1385 -0.0187
   86MOL   C11517285   0.058   5.192   5.450  0.8637  0.1393  0.2303
   86MOL   N11617286   7.760   5.071   5.417 -0.6122  0.2281 -0.0249
   86MOL   H11717287   0.130   5.080   5.635  0.8264  0.1189  0.1658
   86MOL   H11817288   0.232   5.079   5.501  3.0176  1.1619  1.9497
   86MOL   H11917289   7.773   5.260   5.505  1.2408  1.0139 -0.3966
   86MOL   H12017290   0.088   5.243   5.359 -0.4262  0.3090 -0.1048
   86MOL   H12117291   7.739   5.011   5.495  2.0463  0.5943  1.0232
   86MOL   C12217292   7.712   5.044   5.294  0.9336  0.0417  0.3543
   86MOL   O12317293   7.751   5.103   5.193 -0.7667  0.5804  0.0866
   86MOL   C12417294   7.605   4.927   5.293  0.2119  0.2533 -0.2686
   86MOL   C12517295   7.481   4.937   5.209 -0.1905  0.6228 -0.1730
   86MOL   N12617296   7.364   4.990   5.286 -0.1005 -0.0750 -0.0626
   86MOL   H12717297   7.580   4.890   5.392  3.5841 -0.8762  0.2001
   86MOL   H12817298   7.666   4.848   5.249 -0.8386 -0.6039 -0.2185
   86MOL   H12917299   7.502   4.995   5.119 -1.0249 -1.0058 -1.4195
   86MOL   H13017300   7.449   4.837   5.184  1.8681 -0.7039  2.2202
   86MOL   H13117301   7.290   4.933   5.326  0.8240  0.2826  2.2871
   86MOL   C13217302   7.352   5.117   5.325  0.4206 -0.2084  0.3897
   86MOL   O13317303   7.441   5.202   5.307 -0.3276 -0.1450  0.3240
   86MOL   C13417304   7.220   5.162   5.397 -0.0784  0.1746 -0.2476
   86MOL   C13517305   7.182   5.308   5.362  0.5171  0.1658  0.1582
   86MOL   N13617306   7.046   5.338   5.413  0.3934 -0.6262 -0.7711
   86MOL   H13717307   7.231   5.153   5.505 -1.7656 -0.2093 -0.0826
   86MOL   H13817308   7.139   5.098   5.362  0.5226 -0.4197 -0.5595
   86MOL   H13917309   7.239   5.388   5.410  2.4413 -1.3034  0.4230
   86MOL   H14017310   7.146   5.324   5.261 -0.1229  1.0182  0.5096
   86MOL   H14117311   6.977   5.264   5.421  0.7045 -0.8226  0.2387
   86MOL   C14217312   7.001   5.455   5.457  0.7850  0.7855 -0.0453
   86MOL   O14317313   7.075   5.550   5.460 -0.4805 -0.6038  0.0841
   86MOL   C14417314   6.857   5.456   5.495  0.4176  0.1841  0.0071
   86MOL   C14517315   6.842   5.470   5.652 -0.0694 -0.1553  0.8389
   86MOL   N14617316   6.702   5.495   5.692 -0.2211  0.0541  0.2493
   86MOL   H14717317   6.816   5.357   5.473 -1.0816 -0.0025  3.2248
   86MOL   H14817318   6.786   5.525   5.451 -0.8976 -0.5031  0.9983
   86MOL   H14917319   6.867   5.370   5.687 -0.2026  0.2470  2.1191
   86MOL   H15017320   6.897   5.551   5.701 -0.3331  0.2552  0.4587
   86MOL   H15117321   6.642   5.542   5.626 -1.0834 -0.7802  0.4165
   86MOL   C15217322   6.647   5.443   5.801  0.2861 -0.8880  0.4740
   86MOL   O15317323   6.707   5.373   5.881 -0.0880  0.3163  0.1999
   86MOL   C15417324   6.495   5.448   5.818 -0.3772 -0.0274 -0.3423
   86MOL   C15517325   6.447   5.586   5.854 -0.1628 -0.2958 -0.7061
   86MOL   N15617326   6.352   5.643   5.760  0.0054 -0.7701 -0.0678
   86MOL   H15717327   6.448   5.373   5.883 -0.1372  0.1298  0.0137
   86MOL   H15817328   6.454   5.414   5.723 -0.4704 -0.1703 -0.2520
   86MOL   H15917329   6.387   5.574   5.944  2.4211 -1.9927  0.8132
   86MOL   H16017330   6.524   5.659   5.877 -0.1300 -0.5570  0.0390
   86MOL   H16117331   6.289   5.580   5.712  1.5349 -1.2680 -1.4794
   86MOL   C16217332   6.356   5.772   5.728 -0.2160 -0.6611  0.3618
   86MOL   O16317333   6.447   5.843   5.762  0.1427 -0.2070 -0.0017
   86MOL   C16417334   6.228   5.823   5.656 -0.8026  0.5833 -0.0386
   86MOL   C16517335   6.188   5.958   5.718 -0.4441 -0.6620  0.5085
   86MOL   N16617336   6.045   5.979   5.708 -0.1315  0.4227  0.8745
   86MOL   H16717337   6.149   5.749   5.670 -0.6224  0.2249 -0.9097
   86MOL   H16817338   6.263   5.827   5.553  0.5973  0.3736  0.4097
   86MOL   H16917339   6.214   5.961   5.824  1.6704  0.3091  0.0029
   86MOL   H17017340   6.229   6.052   5.679 -1.0759 -0.3664  0.5591
   86MOL   H17117341   6.008   6.032   5.630 -0.6875 -1.2831 -0.0406
   86MOL   C17217342   5.949   5.926   5.785 -0.0592 -0.2107 -0.1079
   86MOL   O17317343   5.975   5.865   5.887 -0.2400 -0.1361 -0.3410
   86MOL   C17417344   5.809   5.919   5.727  0.2561 -0.5473 -0.0797
   86MOL   C17517345   5.721   6.034   5.778 -0.2372  0.1050  0.1988
   86MOL   N17617346   5.740   6.167   5.727  0.2162 -0.0735  0.8517
   86MOL   H17717347   5.763   5.821   5.742  1.4661 -1.2729 -0.9261
   86MOL   H17817348   5.820   5.934   5.620  1.7816  3.1429  0.5200
   86MOL   H17917349   5.619   6.005   5.751 -0.8401  1.7461  0.6644
   86MOL   H18017350   5.721   6.030   5.887 -4.5004 -0.6557  0.2550
   86MOL   H18117351   5.757   6.253   5.777 -0.9031  1.2227 -0.9027
   86MOL   C18217352   5.704   6.213   5.607  0.7151 -1.2470  0.5983
   86MOL   O18317353   5.645   6.152   5.519 -0.3947 -0.4580 -0.3629
   86MOL   C18417354   5.729   6.361   5.581 -0.7826 -0.3158  0.0103
   86MOL   C18517355   5.826   6.385   5.467 -0.5528  0.0609 -0.3954
   86MOL   N18617356   5.851   6.526   5.451 -0.4957  0.0753  0.3604
   86MOL   H18717357   5.770   6.423   5.661  0.2793  0.6045 -1.2165
   86MOL   H18817358   5.629   6.399   5.559 -0.3634  0.9423  0.2263
   86MOL   H18917359   5.926   6.344   5.479 -0.5013  0.4435  0.5441
   86MOL   H19017360   5.797   6.332   5.376  2.3551 -3.0721  0.3953
   86MOL   H19117361   5.856   6.587   5.531 -0.3739  1.8885 -0.9989
   86MOL   C19217362   5.882   6.574   5.333 -0.4691 -0.0602  0.5423
   86MOL   O19317363   5.892   6.514   5.229 -0.7499  0.4987 -0.1540
   86MOL   C19417364   5.914   6.725   5.334 -0.4851  0.1514  0.8303
   86MOL   C19517365   5.854   6.817   5.443  0.6421 -0.0475 -0.0141
   86MOL   N19617366   5.901   6.789   5.575 -0.0426  0.6054  0.5595
   86MOL   H19717367   6.022   6.738   5.342 -0.6561  1.7665  0.6161
   86MOL   H19817368   5.869   6.765   5.244  2.0327  1.8531  0.2859
   86MOL   H19917369   5.877   6.922   5.424  2.0041 -0.5160 -0.9704
   86MOL   H20017370   5.745   6.810   5.446  0.8491 -3.2140  2.1365
   86MOL   H20117371   5.869   6.863   5.636  0.8564  1.4089  0.0834
   86MOL   H20217372   5.994   6.823   5.559  0.4723 -0.9754  0.1143
   87MOL     C117373   0.279   6.663   3.490  0.0612  0.2975  0.1522
   87MOL     O217374   0.249   6.630   3.374 -0.2988  0.5761 -0.0007
   87MOL     C317375   0.425   6.677   3.539 -0.1302 -0.5356 -0.2064
   87MOL     C417376   0.481   6.537   3.584 -0.3477 -0.2967 -0.3897
   87MOL     N517377   0.537   6.454   3.484 -0.8750  0.0990  0.0052
   87MOL     H617378   0.440   6.752   3.616  0.2521  0.7162 -1.4745
   87MOL     H717379   0.491   6.706   3.457 -0.4695 -1.9990 -1.0178
   87MOL     H817380   0.413   6.472   3.640 -1.0779  0.2571 -0.6258
   87MOL     H917381   0.565   6.554   3.651 -0.9894  0.8809  0.1465
   87MOL    H1017382   0.545   6.496   3.393  0.4992  1.2282  0.6252
   87MOL    H1117383   0.199   6.669   3.564 -0.5858 -1.8337 -0.3217
   87MOL    C1217384   0.577   6.324   3.495 -0.1412 -0.3904  0.0360
   87MOL    O1317385   0.570   6.267   3.599  0.4386 -0.0129 -0.0084
   87MOL    C1417386   0.646   6.263   3.367  0.2561 -0.9400 -0.5028
   87MOL    C1517387   0.590   6.121   3.347  0.1155  0.2242  0.5271
   87MOL    N1617388   0.662   6.047   3.252 -0.7586  0.6617  0.3728
   87MOL    H1717389   0.755   6.255   3.370  0.3295  0.0380 -0.2141
   87MOL    H1817390   0.631   6.319   3.275  2.4080 -0.3542 -0.5171
   87MOL    H1917391   0.583   6.067   3.442 -1.5146 -0.5856 -0.0412
   87MOL    H2017392   0.485   6.128   3.317  0.1338  0.3325  0.4857
   87MOL    H2117393   0.674   5.950   3.278 -0.6065  0.5739 -0.0115
   87MOL    C2217394   0.666   6.053   3.118 -0.0199 -0.7422 -0.1335
   87MOL    O2317395   0.611   6.143   3.060  0.4137  0.3669  0.3178
   87MOL    C2417396   0.744   5.946   3.043  0.1534  0.0948  0.6882
   87MOL    C2517397   0.675   5.811   3.022  0.3154  0.0893  0.3234
   87MOL    N2617398   0.672   5.736   3.145 -0.2241  0.6119 -0.3304
   87MOL    H2717399   0.843   5.923   3.083  0.1851  0.0215  0.5683
   87MOL    H2817400   0.748   5.998   2.947 -2.7690  0.8948  0.9600
   87MOL    H2917401   0.574   5.820   2.981  0.5373 -1.4655 -0.6269
   87MOL    H3017402   0.721   5.748   2.945  0.0621 -0.0667  0.3000
   87MOL    H3117403   0.760   5.696   3.173  0.0274  1.3831 -0.0257
   87MOL    C3217404   0.557   5.703   3.212 -0.3818  0.5458 -0.5144
   87MOL    O3317405   0.447   5.737   3.169 -0.0781 -0.7547 -0.2431
   87MOL    C3417406   0.557   5.611   3.339  0.3421 -0.0419 -0.2620
   87MOL    C3517407   0.464   5.652   3.457  0.3867  0.6337  0.9902
   87MOL    N3617408   0.505   5.595   3.580  0.1635 -0.3609 -0.0582
   87MOL    H3717409   0.659   5.611   3.377  0.3582 -0.4812 -0.3025
   87MOL    H3817410   0.531   5.510   3.306 -1.2696 -0.2099  1.4743
   87MOL    H3917411   0.478   5.759   3.470 -3.4375  1.5880 -1.5935
   87MOL    H4017412   0.358   5.627   3.444  1.0801 -1.0692 -2.0421
   87MOL    H4117413   0.491   5.496   3.591 -1.7747 -0.2031 -1.0013
   87MOL    C4217414   0.570   5.670   3.678 -0.4102  0.3409  0.6441
   87MOL    O4317415   0.583   5.789   3.679 -0.1123 -0.0681  0.7644
   87MOL    C4417416   0.635   5.600   3.795  0.4594  0.3221  0.4978
   87MOL    C4517417   0.552   5.585   3.915  0.4548  0.3400  0.1819
   87MOL    N4617418   0.559   5.700   4.011  0.0112 -0.3042  0.4413
   87MOL    H4717419   0.680   5.510   3.753 -0.1509  0.2883 -0.0933
   87MOL    H4817420   0.727   5.651   3.822  0.4864  1.0776 -0.9897
   87MOL    H4917421   0.447   5.577   3.886  0.6716 -0.1956 -0.4804
   87MOL    H5017422   0.571   5.485   3.954  0.5443  0.9321  1.6885
   87MOL    H5117423   0.514   5.788   3.990 -2.5227 -1.3677  1.1989
   87MOL    C5217424   0.635   5.705   4.120  0.4266 -0.2556  0.0403
   87MOL    O5317425   0.709   5.610   4.150  0.2244  0.2574  0.4598
   87MOL    C5417426   0.641   5.834   4.200  0.8920  0.3864  0.5360
   87MOL    C5517427   0.530   5.851   4.302 -0.1010 -0.3529 -0.4699
   87MOL    N5617428   0.523   5.742   4.398 -0.0434  0.0398 -0.2410
   87MOL    H5717429   0.744   5.835   4.238  2.3687  1.9975 -3.2918
   87MOL    H5817430   0.652   5.908   4.121 -2.9953 -0.1705 -0.6231
   87MOL    H5917431   0.437   5.844   4.246 -0.7496 -0.5920  0.6518
   87MOL    H6017432   0.534   5.956   4.333  0.1781  0.1914 -2.2504
   87MOL    H6117433   0.455   5.671   4.375 -2.1790  1.8265  0.3589
   87MOL    C6217434   0.607   5.734   4.509  0.7557  0.0004  0.7510
   87MOL    O6317435   0.680   5.827   4.540  0.2274 -0.2637 -0.6533
   87MOL    C6417436   0.625   5.600   4.570 -0.1228 -0.0160  0.8251
   87MOL    C6517437   0.752   5.525   4.525 -0.0109  0.4428  0.4849
   87MOL    N6617438   0.871   5.577   4.581  0.3869 -0.1803  0.6234
   87MOL    H6717439   0.607   5.612   4.677 -2.5592  0.0919  0.4368
   87MOL    H6817440   0.543   5.538   4.535 -0.4121  0.5945  0.4090
   87MOL    H6917441   0.748   5.426   4.569  0.5322  0.8382  1.4347
   87MOL    H7017442   0.761   5.509   4.417  0.6658  0.9209  0.4712
   87MOL    H7117443   0.876   5.581   4.682 -0.7755 -1.6011  0.7627
   87MOL    C7217444   0.991   5.601   4.522  0.0102 -0.2980  0.2711
   87MOL    O7317445   1.014   5.576   4.406 -0.2238  0.6093  0.2298
   87MOL    C7417446   1.085   5.677   4.606  0.0055  0.0019  0.4067
   87MOL    C7517447   1.076   5.828   4.628 -0.1443 -0.2385  0.1091
   87MOL    N7617448   0.949   5.873   4.678 -0.1909 -0.0496  0.3456
   87MOL    H7717449   1.093   5.629   4.704  0.8369  0.0420  0.3545
   87MOL    H7817450   1.186   5.658   4.572  0.4005  2.6237  0.0669
   87MOL    H7917451   1.162   5.870   4.678  0.5667  1.7124 -2.6241
   87MOL    H8017452   1.088   5.875   4.531  2.2462 -0.8431  0.0970
   87MOL    H8117453   0.865   5.841   4.632 -0.1247  0.0217  0.1734
   87MOL    C8217454   0.943   5.962   4.778  0.0141  0.3768  0.1273
   87MOL    O8317455   1.037   6.012   4.842  0.0059 -0.7476 -0.4021
   87MOL    C8417456   0.802   5.993   4.828  0.0488 -0.1426 -0.0115
   87MOL    C8517457   0.792   5.965   4.979  0.1775  0.0323  0.8931
   87MOL    N8617458   0.654   5.964   5.020 -0.3411  0.4037 -1.0069
   87MOL    H8717459   0.795   6.099   4.804 -1.5292 -0.0401  0.8270
   87MOL    H8817460   0.731   5.932   4.772  1.0815 -0.4656 -0.9868
   87MOL    H8917461   0.842   5.870   5.001 -1.8059 -0.8996  1.4550
   87MOL    H9017462   0.836   6.046   5.037  0.3147  1.6749 -1.4029
   87MOL    H9117463   0.619   6.057   5.040 -0.9698  0.0477 -0.3974
   87MOL    C9217464   0.561   5.876   4.988 -0.3554 -0.4387 -0.1003
   87MOL    O9317465   0.585   5.763   4.955 -0.5943  0.2692  0.1169
   87MOL    C9417466   0.417   5.929   4.991 -0.3380  0.5440  0.1856
   87MOL    C9517467   0.352   5.907   4.857 -0.1981  0.1380  0.8045
   87MOL    N9617468   0.391   6.011   4.757  0.4980  0.4677 -0.0302
   87MOL    H9717469   0.353   5.896   5.073 -1.0768  3.7085  0.9220
   87MOL    H9817470   0.412   6.035   5.014 -2.8512  0.6817 -0.9107
   87MOL    H9917471   0.357   5.808   4.811  0.5178  0.5904 -0.1107
   87MOL   H10017472   0.248   5.929   4.879 -0.5166  0.7713 -1.1643
   87MOL   H10117473   0.475   5.982   4.710 -0.3094 -1.2459 -0.4751
   87MOL   C10217474   0.336   6.129   4.735 -0.4491 -1.2560 -0.5262
   87MOL   O10317475   0.235   6.158   4.796  0.0427 -0.6627 -0.0867
   87MOL   C10417476   0.408   6.225   4.640  0.2065  0.9470  0.4981
   87MOL   C10517477   0.412   6.177   4.497 -0.7671  0.0162  0.1553
   87MOL   N10617478   0.284   6.166   4.434 -0.4191  0.5776  0.3150
   87MOL   H10717479   0.506   6.242   4.683  0.6569 -0.4949  0.0371
   87MOL   H10817480   0.363   6.325   4.648  1.5702  1.5403  0.7731
   87MOL   H10917481   0.478   6.245   4.444  1.1622  0.4828  3.0419
   87MOL   H11017482   0.464   6.083   4.486  1.5506  1.3614 -0.6481
   87MOL   H11117483   0.231   6.082   4.453 -0.8250  0.8227  0.2651
   87MOL   C11217484   0.217   6.251   4.350  0.0756  0.0132  0.8825
   87MOL   O11317485   0.268   6.356   4.315 -0.0634 -0.1069 -0.0642
   87MOL   C11417486   0.079   6.223   4.287 -0.3707 -0.2598  0.0595
   87MOL   C11517487   0.070   6.263   4.136 -0.1614 -0.1271  0.1464
   87MOL   N11617488   7.733   6.221   4.067 -0.3886 -0.0469  0.7360
   87MOL   H11717489   0.007   6.275   4.350  1.4072  1.5760  0.6232
   87MOL   H11817490   0.061   6.116   4.303  0.8382 -0.7500 -1.7613
   87MOL   H11917491   0.073   6.371   4.121 -0.7284 -0.2927 -1.1945
   87MOL   H12017492   0.157   6.218   4.088  0.1180  1.1438 -0.5765
   87MOL   H12117493   7.679   6.288   4.015  1.2027  0.7773  0.1288
   87MOL   C12217494   7.707   6.089   4.039 -0.3704  0.3191  0.4426
   87MOL   O12317495   7.779   5.994   4.077 -0.6561 -0.4971 -0.0543
   87MOL   C12417496   7.589   6.058   3.946 -0.3065 -0.1088 -0.3743
   87MOL   C12517497   7.639   5.994   3.812  0.2847 -0.0654  0.4518
   87MOL   N12617498   7.525   5.937   3.726  0.0851  0.0613  0.1009
   87MOL   H12717499   7.541   6.152   3.923  0.8833  0.5210 -0.3356
   87MOL   H12817500   7.516   5.997   4.000  0.1319  0.8669  1.3632
   87MOL   H12917501   7.686   6.081   3.765 -0.2925 -0.1521 -0.2927
   87MOL   H13017502   7.711   5.913   3.824 -0.4935 -0.7992  0.1935
   87MOL   H13117503   7.428   5.957   3.744 -0.4529 -1.0286 -1.4930
   87MOL   C13217504   7.552   5.847   3.626  0.0644  0.2972 -0.6617
   87MOL   O13317505   7.664   5.826   3.592 -0.3044 -0.1751  0.6005
   87MOL   C13417506   7.436   5.779   3.554  0.5884 -0.0802  0.2335
   87MOL   C13517507   7.468   5.666   3.453  0.0863 -0.2400  0.2261
   87MOL   N13617508   7.422   5.701   3.317  0.3707 -0.3004 -0.7481
   87MOL   H13717509   7.373   5.862   3.521  1.2756 -0.5695 -2.3597
   87MOL   H13817510   7.368   5.739   3.630  0.7709  0.6425  0.7895
   87MOL   H13917511   7.574   5.647   3.441  0.4112  1.5653  0.0974
   87MOL   H14017512   7.445   5.567   3.492  0.5422 -1.2164 -1.8581
   87MOL   H14117513   7.475   5.774   3.272  0.4495  0.6375  0.8363
   87MOL   C14217514   7.310   5.661   3.252 -0.0657 -0.0424 -0.0646
   87MOL   O14317515   7.233   5.577   3.302  0.0156 -0.0934 -0.2498
   87MOL   C14417516   7.283   5.720   3.112  0.3115 -1.0053  0.1493
   87MOL   C14517517   7.132   5.731   3.076 -0.5812 -0.3774  0.1869
   87MOL   N14617518   7.108   5.774   2.939  0.1163 -0.0623  0.5293
   87MOL   H14717519   7.341   5.673   3.032 -1.7677 -0.5135 -1.7043
   87MOL   H14817520   7.323   5.821   3.114  0.9687 -1.2894  2.8306
   87MOL   H14917521   7.089   5.631   3.083 -0.2988 -0.4945  0.2627
   87MOL   H15017522   7.079   5.805   3.136  1.1935  1.4668 -0.4497
   87MOL   H15117523   7.112   5.875   2.932  3.4496 -0.2122 -0.5311
   87MOL   C15217524   7.079   5.701   2.829  0.6699 -0.5068 -0.3642
   87MOL   O15317525   7.079   5.578   2.824  0.4607  0.4302  0.1846
   87MOL   C15417526   7.035   5.780   2.701 -0.3671 -0.0298 -0.2594
   87MOL   C15517527   7.120   5.754   2.570 -0.5433  0.4412  0.7157
   87MOL   N15617528   7.261   5.798   2.571  0.2011 -0.6043  0.0565
   87MOL   H15717529   7.037   5.888   2.714 -0.4580 -0.0811  0.1906
   87MOL   H15817530   6.930   5.750   2.699  0.5209 -3.3734  0.2628
   87MOL   H15917531   7.117   5.645   2.571 -2.2176  0.4811  2.0415
   87MOL   H16017532   7.062   5.780   2.482  1.4848  0.9101 -0.5017
   87MOL   H16117533   7.301   5.834   2.657  2.1409 -1.1654 -0.6076
   87MOL   C16217534   7.343   5.790   2.469 -0.6514  0.4162 -0.5942
   87MOL   O16317535   7.300   5.759   2.358 -0.4280 -0.1847  0.0884
   87MOL   C16417536   7.483   5.836   2.478  0.4485 -0.2681 -0.0323
   87MOL   C16517537   7.577   5.757   2.383 -0.3207  0.2876 -0.4644
   87MOL   N16617538   7.592   5.614   2.414  0.4784 -0.2611  0.7019
   87MOL   H16717539   7.513   5.838   2.583 -1.1188 -2.3477  0.4885
   87MOL   H16817540   7.488   5.941   2.447  1.5570 -0.8378 -1.8241
   87MOL   H16917541   7.555   5.774   2.278  1.5807  0.9217 -0.7931
   87MOL   H17017542   7.676   5.803   2.391 -0.3131  0.1632  0.2487
   87MOL   H17117543   7.567   5.590   2.509 -1.1226 -0.3857  0.2703
   87MOL   C17217544   7.630   5.520   2.325 -0.5297 -0.2395 -0.0108
   87MOL   O17317545   7.656   5.544   2.210  0.6236  0.5471  1.1600
   87MOL   C17417546   7.645   5.383   2.373 -1.2922 -0.1527 -0.2560
   87MOL   C17517547   7.514   5.313   2.389 -0.1229  0.1626 -0.2340
   87MOL   N17617548   7.453   5.263   2.265 -0.5104 -0.2683  0.0402
   87MOL   H17717549   7.698   5.390   2.468 -0.5050  1.4965 -0.8018
   87MOL   H17817550   7.720   5.325   2.318 -0.3203  2.3125 -1.6118
   87MOL   H17917551   7.535   5.235   2.462  1.9258  1.7724  0.9481
   87MOL   H18017552   7.440   5.369   2.445  0.9009  2.0221 -0.6871
   87MOL   H18117553   7.506   5.231   2.184  0.4689  1.7277 -0.1257
   87MOL   C18217554   7.323   5.235   2.252  0.5981  0.6432 -0.5809
   87MOL   O18317555   7.246   5.278   2.337  0.2563 -0.1735  0.2130
   87MOL   C18417556   7.275   5.157   2.132 -0.6512 -0.3860  0.5481
   87MOL   C18517557   7.154   5.219   2.058  0.4011 -0.7859 -0.2827
   87MOL   N18617558   7.025   5.173   2.118  0.0382 -0.7546 -0.0509
   87MOL   H18717559   7.242   5.059   2.166 -0.0578 -1.3847 -1.6673
   87MOL   H18817560   7.353   5.122   2.064  2.0386  1.1557  2.7119
   87MOL   H18917561   7.160   5.328   2.052 -0.5971 -0.8015 -1.6314
   87MOL   H19017562   7.171   5.184   1.956  2.7253  0.4347 -0.3608
   87MOL   H19117563   7.015   5.075   2.141 -0.1397 -1.0747 -1.4746
   87MOL   C19217564   6.908   5.235   2.119 -0.2936 -0.4782  0.1306
   87MOL   O19317565   6.893   5.348   2.074  0.4685 -0.4512 -0.2983
   87MOL   C19417566   6.785   5.164   2.182  0.8969 -0.7392 -0.8164
   87MOL   C19517567   6.656   5.247   2.201  0.2754  1.1276 -0.2875
   87MOL   N19617568   6.660   5.361   2.298 -0.1189 -0.5759 -0.2222
   87MOL   H19717569   6.759   5.092   2.105  0.7530 -1.0556 -0.4765
   87MOL   H19817570   6.805   5.113   2.277 -0.1137  1.7980  0.8293
   87MOL   H19917571   6.622   5.283   2.104  0.6220 -0.6956 -1.0970
   87MOL   H20017572   6.573   5.184   2.234  0.9402  0.7551  0.7112
   87MOL   H20117573   6.588   5.427   2.273  1.2359  0.6724 -0.9360
   87MOL   H20217574   6.746   5.412   2.279 -0.2660 -1.5519 -3.8578
   88MOL     C117575   6.935   2.222   4.910 -0.0902 -0.0957 -0.3865
   88MOL     O217576   6.980   2.104   4.926 -0.4812 -0.0987  0.1808
   88MOL     C317577   7.018   2.342   4.856  0.1183 -0.3147  0.5832
   88MOL     C417578   6.932   2.456   4.823 -0.3764  0.0270  0.3013
   88MOL     N517579   6.932   2.553   4.926  0.2495 -0.1024 -0.4384
   88MOL     H617580   7.060   2.315   4.758 -0.0864  2.0602 -0.1802
   88MOL     H717581   7.103   2.354   4.922  1.2337 -0.7338 -0.7497
   88MOL     H817582   6.831   2.421   4.800 -0.6314  0.2873  1.0038
   88MOL     H917583   6.976   2.515   4.742 -1.4823 -1.9318 -1.8004
   88MOL    H1017584   7.019   2.582   4.969 -0.6343 -0.9733  2.0555
   88MOL    H1117585   6.832   2.239   4.939 -0.7021  0.1061 -2.5744
   88MOL    C1217586   6.826   2.630   4.956  0.5582 -0.1094  0.1516
   88MOL    O1317587   6.709   2.602   4.910 -0.3900 -0.2800 -0.8298
   88MOL    C1417588   6.844   2.745   5.052 -1.1520  0.8745 -0.1257
   88MOL    C1517589   6.705   2.792   5.115  0.6192  0.3945  0.4232
   88MOL    N1617590   6.722   2.915   5.194  0.0121  0.5594  0.0677
   88MOL    H1717591   6.892   2.823   4.993  0.0374 -0.2196 -0.6330
   88MOL    H1817592   6.912   2.705   5.128  0.4213 -1.2452 -2.5478
   88MOL    H1917593   6.622   2.809   5.046 -0.3959  0.0459  1.5327
   88MOL    H2017594   6.667   2.712   5.179 -1.0934  2.3073  1.8686
   88MOL    H2117595   6.736   2.904   5.294 -1.3945  0.2298  0.2342
   88MOL    C2217596   6.716   3.042   5.151 -0.2318 -0.3679  0.5294
   88MOL    O2317597   6.691   3.061   5.033 -0.1561 -0.4224 -0.0661
   88MOL    C2417598   6.750   3.160   5.243  0.1105 -0.5173  0.0942
   88MOL    C2517599   6.860   3.261   5.191 -0.1403 -0.7602  0.0572
   88MOL    N2617600   7.003   3.242   5.231  0.0422  0.1544  0.3108
   88MOL    H2717601   6.781   3.122   5.340 -0.1666 -2.0929 -0.4294
   88MOL    H2817602   6.660   3.211   5.279 -0.0709 -1.6753  1.3146
   88MOL    H2917603   6.843   3.274   5.084 -0.8499  1.1414  0.3770
   88MOL    H3017604   6.828   3.361   5.221 -0.6576 -0.4173 -1.5487
   88MOL    H3117605   7.036   3.156   5.273 -1.3152 -1.3972 -1.7245
   88MOL    C3217606   7.093   3.342   5.240  0.2823 -0.0387 -0.1759
   88MOL    O3317607   7.072   3.454   5.192 -0.0877 -0.2811 -0.4031
   88MOL    C3417608   7.221   3.312   5.321 -0.5166 -0.2376  0.1923
   88MOL    C3517609   7.210   3.365   5.464 -0.2080  0.3142 -0.2485
   88MOL    N3617610   7.119   3.280   5.546 -0.2516  0.0111  0.5483
   88MOL    H3717611   7.295   3.366   5.263  0.2063 -0.8084  0.5816
   88MOL    H3817612   7.253   3.208   5.319  0.0473 -0.0396 -1.5758
   88MOL    H3917613   7.303   3.359   5.522 -0.4377  0.4734  0.1336
   88MOL    H4017614   7.189   3.471   5.471 -0.1736  0.3311 -0.3812
   88MOL    H4117615   7.163   3.198   5.586 -1.1032 -1.9885 -2.4591
   88MOL    C4217616   6.996   3.317   5.579  0.8283  0.0654 -0.6939
   88MOL    O4317617   6.946   3.416   5.532 -0.1341  0.3529 -0.4117
   88MOL    C4417618   6.926   3.241   5.700 -0.5293  0.1958 -0.0138
   88MOL    C4517619   6.826   3.140   5.637  0.0468  0.0330  0.0550
   88MOL    N4617620   6.890   3.014   5.628  0.4327 -0.0751 -0.0770
   88MOL    H4717621   7.006   3.198   5.760  1.4836  2.8399 -0.7381
   88MOL    H4817622   6.874   3.309   5.768 -0.7061  0.9777 -0.9182
   88MOL    H4917623   6.727   3.133   5.682  0.3260 -0.7718  0.5580
   88MOL    H5017624   6.805   3.178   5.537  0.0559  2.5652  0.9880
   88MOL    H5117625   6.869   2.942   5.697 -0.0560  0.5012  0.3853
   88MOL    C5217626   6.968   2.966   5.532 -0.7563  0.0767  0.7827
   88MOL    O5317627   7.009   3.033   5.438 -0.2677 -0.4088  0.4738
   88MOL    C5417628   7.013   2.813   5.542  0.6568 -0.4251 -0.2153
   88MOL    C5517629   6.969   2.741   5.418 -0.0508  0.5395  0.1802
   88MOL    N5617630   7.063   2.634   5.398  0.1117  0.0489  0.0193
   88MOL    H5717631   7.120   2.796   5.555  0.4319 -0.6338  1.4606
   88MOL    H5817632   6.972   2.762   5.629 -0.1628  0.3712 -0.1251
   88MOL    H5917633   6.987   2.802   5.329 -0.2438 -1.7214 -1.4552
   88MOL    H6017634   6.866   2.705   5.418  0.3463 -0.6437  1.2055
   88MOL    H6117635   7.163   2.650   5.401  0.2690 -0.8942 -0.0619
   88MOL    C6217636   7.048   2.515   5.342 -0.0183  0.5669 -0.4684
   88MOL    O6317637   6.935   2.471   5.323 -0.4532  0.0638  0.2322
   88MOL    C6417638   7.171   2.432   5.301 -0.5408  0.5937  0.3173
   88MOL    C6517639   7.131   2.301   5.231  0.3534 -0.1485 -0.3633
   88MOL    N6617640   7.131   2.179   5.312  0.0213 -0.5330 -0.0955
   88MOL    H6717641   7.231   2.499   5.240  0.7634  0.2525  1.2051
   88MOL    H6817642   7.237   2.406   5.383  0.7804 -1.8741 -1.4414
   88MOL    H6917643   7.037   2.305   5.177  0.6257  0.4094 -0.8026
   88MOL    H7017644   7.195   2.283   5.144 -0.1343 -0.8893 -0.5674
   88MOL    H7117645   7.047   2.178   5.368 -0.8504  1.3132 -1.3120
   88MOL    C7217646   7.225   2.089   5.314 -0.4755 -0.3984 -0.0776
   88MOL    O7317647   7.326   2.094   5.244  0.4316  1.0063  0.2369
   88MOL    C7417648   7.212   1.976   5.413 -0.4727 -0.1718 -0.9295
   88MOL    C7517649   7.226   1.836   5.363 -0.0003 -0.2249 -0.3817
   88MOL    N7617650   7.113   1.785   5.283 -0.0058  0.3859 -0.0162
   88MOL    H7717651   7.296   1.999   5.479 -0.8103  0.0361 -0.5657
   88MOL    H7817652   7.119   1.985   5.469  0.1959 -0.9997  0.3512
   88MOL    H7917653   7.317   1.833   5.303 -0.3054 -0.5802 -0.8288
   88MOL    H8017654   7.254   1.769   5.444 -0.9374 -0.9010 -0.6077
   88MOL    H8117655   7.115   1.780   5.182  0.0390 -1.3562  0.0605
   88MOL    C8217656   7.005   1.724   5.343 -0.2136 -0.1753  0.1457
   88MOL    O8317657   7.005   1.688   5.459  0.8605 -0.2779 -0.2939
   88MOL    C8417658   6.873   1.700   5.261  0.5858 -0.5381 -0.1980
   88MOL    C8517659   6.755   1.649   5.344 -0.1728  0.3992 -0.5137
   88MOL    N8617660   6.627   1.679   5.282  0.2956 -0.3409  0.1213
   88MOL    H8717661   6.852   1.796   5.214  0.4259 -0.5203 -0.0894
   88MOL    H8817662   6.887   1.640   5.171  0.9788 -1.5587  0.5286
   88MOL    H8917663   6.753   1.547   5.384 -0.6911  1.2230  1.6789
   88MOL    H9017664   6.747   1.697   5.442 -0.1388 -1.7258  0.5635
   88MOL    H9117665   6.626   1.651   5.185  1.1295  0.8660 -0.2545
   88MOL    C9217666   6.512   1.727   5.344  0.0865  0.5323 -0.0424
   88MOL    O9317667   6.511   1.762   5.460 -0.5376  0.1598 -0.0112
   88MOL    C9417668   6.378   1.723   5.263  0.0690 -0.2859  0.6437
   88MOL    C9517669   6.251   1.706   5.344  0.3040 -0.0617  0.2005
   88MOL    N9617670   6.138   1.711   5.252  0.2762  0.2770  0.8644
   88MOL    H9717671   6.371   1.818   5.212 -3.3844  0.2035  1.9007
   88MOL    H9817672   6.384   1.646   5.185  2.2562  0.8680 -0.3418
   88MOL    H9917673   6.258   1.607   5.390 -1.3372  0.0334  0.6854
   88MOL   H10017674   6.243   1.780   5.424 -0.5532 -0.9390  0.9440
   88MOL   H10117675   6.155   1.693   5.154 -1.1488  1.3590  0.3990
   88MOL   C10217676   6.011   1.748   5.285  0.3223  0.3473  0.0259
   88MOL   O10317677   5.973   1.766   5.403  0.5918  0.3808  0.7284
   88MOL   C10417678   5.912   1.777   5.172  0.8539  0.3000  0.1673
   88MOL   C10517679   5.783   1.866   5.206 -0.4476  0.2274 -0.2844
   88MOL   N10617680   5.800   2.008   5.203  0.1781 -0.2246  0.6406
   88MOL   H10717681   5.853   1.698   5.126 -0.7701  0.6871  1.5202
   88MOL   H10817682   5.971   1.816   5.090 -0.2616 -2.5115 -2.0298
   88MOL   H10917683   5.715   1.844   5.124  0.8942 -0.9756 -1.0932
   88MOL   H11017684   5.730   1.837   5.297  0.2448 -3.3490 -0.9683
   88MOL   H11117685   5.890   2.044   5.176  0.4580  0.2972  2.2256
   88MOL   C11217686   5.719   2.100   5.262  0.2739  0.2791  0.5959
   88MOL   O11317687   5.618   2.059   5.323 -0.1985  0.4881  0.2155
   88MOL   C11417688   5.730   2.250   5.218  0.1592 -0.4100  0.2286
   88MOL   C11517689   5.777   2.351   5.331  0.3626  0.0748  0.1045
   88MOL   N11617690   5.699   2.360   5.453  0.8536  0.7058  0.1334
   88MOL   H11717691   5.637   2.280   5.171 -1.3464 -1.8254  2.2072
   88MOL   H11817692   5.791   2.255   5.128 -1.1862  1.7176 -0.5882
   88MOL   H11917693   5.879   2.335   5.364  0.2633  0.6123  0.6759
   88MOL   H12017694   5.759   2.451   5.292 -3.2152 -0.4684  0.1295
   88MOL   H12117695   5.628   2.291   5.473  0.6866  0.8988  0.2147
   88MOL   C12217696   5.705   2.463   5.542 -0.0998 -0.1474 -0.2176
   88MOL   O12317697   5.785   2.555   5.533  0.1651 -0.0989 -0.6588
   88MOL   C12417698   5.597   2.465   5.651 -0.4827  0.7467  0.6670
   88MOL   C12517699   5.487   2.563   5.622  0.7866 -0.7029 -0.0451
   88MOL   N12617700   5.415   2.552   5.501  0.0599  0.4817  0.4380
   88MOL   H12717701   5.653   2.488   5.742  0.3203 -1.0520  0.6485
   88MOL   H12817702   5.563   2.363   5.668 -0.1682  0.4363 -0.5006
   88MOL   H12917703   5.414   2.554   5.703 -1.4477 -0.9664 -2.0066
   88MOL   H13017704   5.526   2.664   5.628  0.8467 -0.7114 -0.2823
   88MOL   H13117705   5.400   2.636   5.447  0.4724 -1.6957 -3.2741
   88MOL   C13217706   5.363   2.444   5.446 -0.1098  0.4114  0.1260
   88MOL   O13317707   5.373   2.335   5.501  0.1413  0.3249  0.2845
   88MOL   C13417708   5.316   2.462   5.302  0.1790 -0.0052  0.1979
   88MOL   C13517709   5.298   2.345   5.216 -0.7096 -0.2039 -0.6837
   88MOL   N13617710   5.380   2.344   5.095 -0.1208 -0.3229  0.1788
   88MOL   H13717711   5.369   2.538   5.245 -0.1352 -0.3150 -0.5172
   88MOL   H13817712   5.218   2.507   5.320  0.7450  1.7820 -1.0459
   88MOL   H13917713   5.293   2.252   5.272  0.5514  0.4758  0.5761
   88MOL   H14017714   5.195   2.336   5.182 -1.8424 -0.3419  2.6368
   88MOL   H14117715   5.449   2.415   5.072  1.6169 -1.5716  1.3918
   88MOL   C14217716   5.387   2.243   5.001 -0.0111 -0.3205 -0.4592
   88MOL   O14317717   5.314   2.142   5.005 -0.1804 -0.0933  0.2985
   88MOL   C14417718   5.492   2.263   4.890  0.4921  0.2450 -0.0573
   88MOL   C14517719   5.436   2.323   4.762  0.5024 -0.2617  0.1284
   88MOL   N14617720   5.532   2.352   4.670  0.6788 -0.1203  0.3751
   88MOL   H14717721   5.534   2.164   4.873  0.5704 -0.2943  3.0798
   88MOL   H14817722   5.572   2.319   4.937 -0.2734  1.1206  0.2111
   88MOL   H14917723   5.360   2.262   4.714  1.2402 -0.8524 -0.3116
   88MOL   H15017724   5.386   2.416   4.787 -0.3085 -0.6749  0.0700
   88MOL   H15117725   5.620   2.348   4.720 -0.7383 -0.2201  2.9031
   88MOL   C15217726   5.510   2.442   4.572  1.1467  0.4153 -0.2506
   88MOL   O15317727   5.398   2.481   4.533  0.8838 -0.9611 -0.1893
   88MOL   C15417728   5.642   2.490   4.512  0.4895  0.1140  1.0918
   88MOL   C15517729   5.638   2.571   4.385  0.0587  0.6649 -0.4037
   88MOL   N15617730   5.757   2.660   4.378  0.6514 -0.6091  0.4434
   88MOL   H15717731   5.703   2.399   4.503 -0.0062 -0.0764 -0.5088
   88MOL   H15817732   5.693   2.541   4.594 -0.4276  2.7865  0.0561
   88MOL   H15917733   5.639   2.509   4.295 -1.2579  1.2150 -0.8127
   88MOL   H16017734   5.550   2.629   4.361 -1.0225 -0.6217  0.3874
   88MOL   H16117735   5.836   2.625   4.325  2.0690  3.6417 -0.4455
   88MOL   C16217736   5.781   2.772   4.450 -0.2253 -0.8415  0.9115
   88MOL   O16317737   5.698   2.819   4.528  0.4818  0.1635  0.1136
   88MOL   C16417738   5.904   2.852   4.426 -0.2456  0.8263 -0.2932
   88MOL   C16517739   5.993   2.866   4.555  0.2757 -0.4839  0.2894
   88MOL   N16617740   6.109   2.769   4.565  0.7885 -0.4625  0.6411
   88MOL   H16717741   5.877   2.950   4.386 -0.3616  1.0726  0.3781
   88MOL   H16817742   5.956   2.797   4.349 -1.4772 -0.8172  0.0112
   88MOL   H16917743   6.021   2.971   4.559 -3.2762  0.5558 -0.3398
   88MOL   H17017744   5.930   2.840   4.640 -1.4816 -0.7168 -1.0744
   88MOL   H17117745   6.204   2.804   4.562  0.5906  0.0823  0.6421
   88MOL   C17217746   6.091   2.635   4.594 -0.1637 -0.5199  0.0316
   88MOL   O17317747   5.981   2.585   4.619 -0.1264  0.6188  0.1076
   88MOL   C17417748   6.217   2.551   4.599  0.6500 -0.4403  0.5257
   88MOL   C17517749   6.242   2.473   4.471  0.0090  0.1307  0.2003
   88MOL   N17617750   6.205   2.539   4.344 -0.1918 -0.2320  0.0254
   88MOL   H17717751   6.222   2.486   4.685  2.3430 -0.4626  0.4139
   88MOL   H17817752   6.299   2.620   4.618 -0.2146  0.6908  0.2877
   88MOL   H17917753   6.345   2.438   4.463 -0.4750 -1.5946  1.2810
   88MOL   H18017754   6.186   2.381   4.458 -2.0271  1.5287 -1.2964
   88MOL   H18117755   6.119   2.521   4.294  0.4241  0.6678 -1.3680
   88MOL   C18217756   6.290   2.626   4.279  0.2877  0.0427 -0.6877
   88MOL   O18317757   6.401   2.650   4.327  0.1329  0.3349  0.0731
   88MOL   C18417758   6.241   2.689   4.151 -0.6574 -0.0697  0.1894
   88MOL   C18517759   6.280   2.841   4.145 -0.4769  0.1091 -0.5697
   88MOL   N18617760   6.244   2.895   4.013  0.7262 -0.1992  0.0251
   88MOL   H18717761   6.137   2.682   4.121 -0.4913 -1.8604 -0.0227
   88MOL   H18817762   6.298   2.642   4.070  1.8959  1.6836  0.9113
   88MOL   H18917763   6.209   2.891   4.210 -1.7954 -2.1516 -0.2258
   88MOL   H19017764   6.381   2.859   4.183 -0.5269 -1.2322  0.2178
   88MOL   H19117765   6.145   2.913   4.005  0.2068 -2.9525 -0.0528
   88MOL   C19217766   6.328   2.906   3.913 -0.2931 -0.0276  0.1822
   88MOL   O19317767   6.444   2.868   3.913  0.0687 -0.1856 -0.1449
   88MOL   C19417768   6.269   2.962   3.783  0.1184  0.5249 -0.9544
   88MOL   C19517769   6.115   2.947   3.761 -0.3916 -0.3723 -0.3996
   88MOL   N19617770   6.069   2.809   3.753 -0.2437 -0.4757 -0.0331
   88MOL   H19717771   6.302   3.062   3.754 -0.6593  0.4089 -2.3141
   88MOL   H19817772   6.305   2.901   3.700 -0.2055 -0.2796 -0.4993
   88MOL   H19917773   6.061   3.002   3.839 -0.5493 -1.4620  0.2687
   88MOL   H20017774   6.095   3.003   3.670  1.0329  0.8451  0.0058
   88MOL   H20117775   6.129   2.757   3.690  2.8398  1.5567  1.0799
   88MOL   H20217776   5.975   2.806   3.718 -0.5371  2.0017  0.4525
   89MOL     C117777   2.584   0.413   0.559 -0.3961  0.1338 -0.7675
   89MOL     O217778   2.662   0.410   0.656  0.0724  0.0420  0.3372
   89MOL     C317779   2.441   0.352   0.560 -0.4017 -0.1533  0.2176
   89MOL     C417780   2.442   0.201   0.605 -0.2581 -0.2563  0.0184
   89MOL     N517781   2.488   0.120   0.498 -0.4109  0.3618  0.1972
   89MOL     H617782   2.398   0.370   0.462 -0.9524 -0.8253  0.3278
   89MOL     H717783   2.386   0.407   0.636 -0.2594  0.2610  0.0222
   89MOL     H817784   2.337   0.185   0.630 -0.7876 -0.8338 -2.3967
   89MOL     H917785   2.509   0.179   0.687  2.1078  2.1588 -1.1937
   89MOL    H1017786   2.530   0.165   0.418 -0.2427 -1.5047 -0.7991
   89MOL    H1117787   2.617   0.463   0.468 -0.9825  0.7352 -0.6555
   89MOL    C1217788   2.483   7.764   0.497 -0.0796 -0.6121  0.0222
   89MOL    O1317789   2.438   7.699   0.584 -0.3840 -0.4581 -0.4889
   89MOL    C1417790   2.560   7.701   0.375 -0.8596  0.0503  0.2780
   89MOL    C1517791   2.516   7.554   0.345  0.1776 -0.0695  0.4109
   89MOL    N1617792   2.404   7.551   0.258  0.6779 -0.1791 -0.7057
   89MOL    H1717793   2.666   7.696   0.397 -0.8705 -1.3260  0.0977
   89MOL    H1817794   2.551   7.762   0.285  1.4667 -0.1611 -0.1194
   89MOL    H1917795   2.587   7.489   0.294 -1.1431 -0.6300 -0.7499
   89MOL    H2017796   2.486   7.509   0.439 -0.9523  1.2272  0.6962
   89MOL    H2117797   2.315   7.528   0.299  1.1937 -1.5197 -0.3116
   89MOL    C2217798   2.397   7.588   0.130 -0.5170  0.4016  0.6275
   89MOL    O2317799   2.497   7.627   0.058  0.5894  0.2238 -0.0205
   89MOL    C2417800   2.256   7.576   0.069 -0.4554  0.2441 -0.4087
   89MOL    C2517801   2.228   7.613   7.701 -0.4543 -0.0782  0.2186
   89MOL    N2617802   2.192   7.756   7.693 -0.0813  0.1105  0.2088
   89MOL    H2717803   2.183   7.611   0.142  0.8435  1.4410  0.3464
   89MOL    H2817804   2.232   7.471   0.088  1.2509 -0.0675  0.1212
   89MOL    H2917805   2.309   7.600   7.628  0.7726  1.7450  1.2310
   89MOL    H3017806   2.139   7.569   7.655 -0.2190 -0.6514  0.3021
   89MOL    H3117807   2.258   0.037   7.647 -0.4254 -1.3139 -2.3006
   89MOL    C3217808   2.074   0.021   7.718  0.3066  0.3799  0.3084
   89MOL    O3317809   1.993   7.721   7.770 -0.6326  0.1283 -0.4468
   89MOL    C3417810   2.040   0.166   7.683  0.0045 -0.1525  0.8874
   89MOL    C3517811   1.943   0.183   7.562  0.6413 -0.5264 -0.7791
   89MOL    N3617812   1.824   0.092   7.579 -0.1298 -0.5134  0.5479
   89MOL    H3717813   2.135   0.211   7.653 -0.4323 -0.2694 -0.6863
   89MOL    H3817814   2.003   0.218   7.771 -2.9324  0.2203 -0.4991
   89MOL    H3917815   1.911   0.287   7.551  0.1796 -0.6990 -1.0839
   89MOL    H4017816   1.992   0.159   7.468  0.8214  0.5370 -0.9711
   89MOL    H4117817   1.813   0.024   7.505  2.6281  0.8438 -1.2092
   89MOL    C4217818   1.724   0.103   7.665  0.3132 -0.6578  0.1110
   89MOL    O4317819   1.709   0.203   7.735  0.6986 -0.5984  0.3159
   89MOL    C4417820   1.623   7.771   7.667 -0.5058 -0.5404  0.5248
   89MOL    C4517821   1.477   0.030   7.702  0.5844  0.0877 -0.0791
   89MOL    N4617822   1.396   0.060   7.587  0.4482  0.0250 -0.1601
   89MOL    H4717823   1.621   7.717   7.572 -1.0230 -0.2887  0.3945
   89MOL    H4817824   1.652   7.697   7.741  0.6985 -2.0300 -1.3667
   89MOL    H4917825   1.445   7.723   7.758 -0.5832 -0.2131 -1.1975
   89MOL    H5017826   1.473   0.122   7.760  1.8931  0.0954  0.0179
   89MOL    H5117827   1.448   0.060   7.500 -0.2358  0.3228 -0.5736
   89MOL    C5217828   1.271   0.107   7.587 -1.1954 -0.0352  0.7754
   89MOL    O5317829   1.206   0.120   7.691  0.3490 -0.4439  0.3206
   89MOL    C5417830   1.214   0.151   7.456 -0.4796 -0.7986 -0.7569
   89MOL    C5517831   1.063   0.107   7.435  0.1714 -0.1371  0.4947
   89MOL    N5617832   1.050   7.763   7.360  0.1657 -0.0388 -0.4978
   89MOL    H5717833   1.214   0.260   7.454 -3.8598 -0.7114  1.0846
   89MOL    H5817834   1.278   0.121   7.372 -0.1449 -2.6654  0.1284
   89MOL    H5917835   1.013   0.186   7.379  1.7660  1.1073  0.7885
   89MOL    H6017836   1.011   0.093   7.530 -0.8565 -1.9523 -0.3128
   89MOL    H6117837   0.995   7.691   7.403  1.7001 -1.1124 -0.2924
   89MOL    C6217838   1.092   7.752   7.235  0.7530  0.1528  0.2910
   89MOL    O6317839   1.147   0.061   7.170 -0.2864 -0.0150  0.2983
   89MOL    C6417840   1.076   7.612   7.171 -0.4223  0.3756 -0.1489
   89MOL    C6517841   1.203   7.521   7.183 -0.3842  0.0963 -0.4365
   89MOL    N6617842   1.229   7.477   7.319 -0.0448  0.5303  0.2191
   89MOL    H6717843   0.987   7.571   7.217 -1.3215  1.9369 -0.4743
   89MOL    H6817844   1.041   7.621   7.068 -1.2155  1.2140  0.1925
   89MOL    H6917845   1.195   7.428   7.128 -0.2211  0.7055 -1.5053
   89MOL    H7017846   1.289   7.568   7.136 -0.9687  1.5064 -0.1165
   89MOL    H7117847   1.166   7.404   7.350  1.7566 -1.0936  0.1696
   89MOL    C7217848   1.324   7.516   7.399 -0.1556 -0.7122 -0.0118
   89MOL    O7317849   1.420   7.570   7.359  0.4694  0.3212 -0.1729
   89MOL    C7417850   1.314   7.467   7.547 -0.0758  0.0124  1.1272
   89MOL    C7517851   1.191   7.528   7.620 -0.5022 -0.0272  0.0384
   89MOL    N7617852   1.226   7.579   7.754 -0.0073  0.5466  0.4223
   89MOL    H7717853   1.305   7.358   7.547 -0.1723 -0.0778 -3.3504
   89MOL    H7817854   1.406   7.487   7.603  0.0710  1.1331  0.4928
   89MOL    H7917855   1.168   7.620   7.565 -0.7683 -0.4845 -0.6162
   89MOL    H8017856   1.109   7.457   7.620 -0.6073  0.0853 -1.0046
   89MOL    H8117857   1.286   7.659   7.768  1.7068 -1.2257  4.1337
   89MOL    C8217858   1.179   7.531   0.094 -0.0612  0.8442  0.6021
   89MOL    O8317859   1.126   7.419   0.097 -0.2599 -0.3213  0.1155
   89MOL    C8417860   1.195   7.616   0.213  0.1287 -0.1242 -0.6497
   89MOL    C8517861   1.084   7.600   0.320 -0.1775  0.0955 -0.2283
   89MOL    N8617862   1.019   7.728   0.347 -0.1682 -0.5186 -0.7912
   89MOL    H8717863   1.293   7.607   0.258 -0.7691  0.9071  1.6192
   89MOL    H8817864   1.191   7.720   0.179  1.0962  0.1514  0.0596
   89MOL    H8917865   1.017   7.518   0.295  1.0782 -1.6053  1.7607
   89MOL    H9017866   1.145   7.583   0.410  0.5675 -1.5492 -1.0091
   89MOL    H9117867   1.008   0.002   0.263 -2.9163 -0.4200 -0.3863
   89MOL    C9217868   0.977   0.006   0.462 -0.2583  0.3277  0.6199
   89MOL    O9317869   0.967   7.709   0.558 -0.0507 -0.0817 -0.4397
   89MOL    C9417870   0.932   0.155   0.456 -0.7631  0.1378  0.0282
   89MOL    C9517871   0.913   0.212   0.596  0.6582  0.4756  0.4748
   89MOL    N9617872   1.040   0.230   0.670 -0.0843  1.0254  0.3526
   89MOL    H9717873   1.014   0.211   0.410  0.6653 -0.7433  1.4541
   89MOL    H9817874   0.838   0.158   0.401 -1.1090  1.8683  0.6816
   89MOL    H9917875   0.864   0.309   0.582 -0.2943 -0.0698 -0.0219
   89MOL   H10017876   0.841   0.147   0.645  2.4684 -2.2521 -0.3704
   89MOL   H10117877   1.129   0.227   0.624  0.6281  0.1021  1.7312
   89MOL   C10217878   1.045   0.247   0.801 -0.3030 -0.1482 -0.1498
   89MOL   O10317879   0.942   0.242   0.868  0.6431  0.0447 -0.5918
   89MOL   C10417880   1.178   0.272   0.863 -0.2167 -0.4413 -0.4156
   89MOL   C10517881   1.176   0.387   0.960 -0.5897 -0.6483 -0.4680
   89MOL   N10617882   1.184   0.523   0.896 -0.2563 -0.2203 -0.4130
   89MOL   H10717883   1.248   0.276   0.779  2.5214 -1.9578  1.7019
   89MOL   H10817884   1.208   0.188   0.926 -0.1755 -0.3704 -0.3402
   89MOL   H10917885   1.101   0.373   1.038 -1.8014  3.2413 -0.8325
   89MOL   H11017886   1.267   0.379   1.020 -0.0137 -0.0838 -1.2506
   89MOL   H11117887   1.167   0.528   0.796 -2.8970  0.5609  0.0259
   89MOL   C11217888   1.181   0.651   0.947  0.2704  0.2344 -0.3086
   89MOL   O11317889   1.165   0.676   1.069 -0.2164  0.0178  0.4992
   89MOL   C11417890   1.189   0.765   0.849 -0.0666 -0.2884  0.5242
   89MOL   C11517891   1.219   0.902   0.910  0.8643 -0.3001 -0.4971
   89MOL   N11617892   1.241   1.005   0.814 -0.8038 -0.8251  0.1864
   89MOL   H11717893   1.093   0.770   0.797 -0.4634  2.5682  1.4540
   89MOL   H11817894   1.261   0.745   0.769 -0.2792 -0.7972  0.4542
   89MOL   H11917895   1.145   0.931   0.984 -0.5514 -1.3667 -1.4763
   89MOL   H12017896   1.319   0.895   0.954  0.5837  0.5920  0.2890
   89MOL   H12117897   1.168   1.020   0.746 -0.6302  1.9773  0.5769
   89MOL   C12217898   1.343   1.093   0.804 -0.5120  0.4920  0.1836
   89MOL   O12317899   1.446   1.086   0.879  0.1592  0.5764  0.6594
   89MOL   C12417900   1.334   1.181   0.683  0.0105 -0.4491 -0.5439
   89MOL   C12517901   1.264   1.312   0.707  0.0845  0.0195  0.3873
   89MOL   N12617902   1.128   1.307   0.767  0.2457  0.4967  0.2786
   89MOL   H12717903   1.280   1.130   0.604 -1.3435  0.6200 -0.3330
   89MOL   H12817904   1.430   1.187   0.632  0.0892  0.4684 -0.3018
   89MOL   H12917905   1.326   1.377   0.769  1.4900  0.4949 -1.4830
   89MOL   H13017906   1.284   1.380   0.624 -0.6833 -1.0505 -0.7002
   89MOL   H13117907   1.082   1.218   0.782  1.7279  0.0545  2.4416
   89MOL   C13217908   1.065   1.417   0.809 -0.9613  0.4714 -0.2597
   89MOL   O13317909   1.116   1.530   0.796 -0.4826 -0.3277 -0.1745
   89MOL   C13417910   0.921   1.396   0.862 -0.0245 -0.2166 -0.2933
   89MOL   C13517911   0.872   1.492   0.979 -0.2364  0.9665 -0.0786
   89MOL   N13617912   0.732   1.458   1.006 -0.6105 -0.0540 -0.4994
   89MOL   H13717913   0.925   1.298   0.911  2.4794 -0.1993 -0.4092
   89MOL   H13817914   0.853   1.395   0.776  1.2000 -1.5690 -1.2826
   89MOL   H13917915   0.924   1.472   1.073 -0.7168  0.9536  0.1874
   89MOL   H14017916   0.895   1.597   0.961 -0.3333  0.7358 -1.5444
   89MOL   H14117917   0.709   1.371   1.053 -0.8871 -0.0333 -0.5956
   89MOL   C14217918   0.630   1.519   0.944 -0.5935 -0.1943 -0.2970
   89MOL   O14317919   0.649   1.620   0.874 -0.2591 -0.3051  0.5652
   89MOL   C14417920   0.487   1.475   0.980 -0.1003  0.1116  0.0972
   89MOL   C14517921   0.416   1.391   0.871 -0.7682  0.6627 -0.1899
   89MOL   N14617922   0.283   1.343   0.923  0.3155 -0.0507 -0.2838
   89MOL   H14717923   0.433   1.564   1.011 -1.2263 -0.8142  0.8023
   89MOL   H14817924   0.496   1.413   1.069  2.4271  1.8006  1.0501
   89MOL   H14917925   0.408   1.449   0.779  0.4103 -0.2330 -0.8585
   89MOL   H15017926   0.476   1.305   0.843 -1.6948  0.1970 -0.7826
   89MOL   H15117927   0.287   1.324   1.022  3.4298 -0.7120 -0.4779
   89MOL   C15217928   0.182   1.311   0.840  0.1509  0.4510  0.1510
   89MOL   O15317929   0.189   1.328   0.721 -0.4487 -0.0575 -0.2721
   89MOL   C15417930   0.058   1.256   0.901  0.1132  0.1377  0.0264
   89MOL   C15517931   0.067   1.126   0.979  0.3278 -0.4497  0.3235
   89MOL   N15617932   0.066   0.999   0.900 -0.5157  0.1163  0.8087
   89MOL   H15717933   7.766   1.241   0.820  0.6181  1.0610 -0.6052
   89MOL   H15817934   0.011   1.330   0.965 -0.7447  0.1046 -0.5543
   89MOL   H15917935   0.144   1.123   1.056 -0.6091 -0.0590  1.2926
   89MOL   H16017936   7.753   1.125   1.033 -1.2110  2.9032 -2.1379
   89MOL   H16117937   0.130   0.929   0.935  0.9439 -0.1229 -2.1982
   89MOL   C16217938   7.749   0.943   0.830  0.0443 -0.4927 -0.5066
   89MOL   O16317939   7.644   1.003   0.792  0.2169 -0.5264  0.3845
   89MOL   C16417940   7.775   0.802   0.791  0.0366  0.1026 -0.5391
   89MOL   C16517941   7.654   0.730   0.726  0.6273 -0.1122 -0.4586
   89MOL   N16617942   7.635   0.759   0.588 -0.3210 -0.5365 -0.2415
   89MOL   H16717943   0.024   0.748   0.881 -1.3945 -1.2877 -0.8824
   89MOL   H16817944   0.087   0.803   0.733  0.6494  1.8092  0.4293
   89MOL   H16917945   7.657   0.623   0.747  4.0423  0.5195  3.0039
   89MOL   H17017946   7.568   0.752   0.789  1.5353 -1.6866  1.4274
   89MOL   H17117947   7.625   0.857   0.567  0.3918 -0.7769 -1.8191
   89MOL   C17217948   7.577   0.677   0.502 -0.2648  0.0034 -0.0049
   89MOL   O17317949   7.566   0.556   0.520  0.0951  0.2706 -0.3413
   89MOL   C17417950   7.499   0.746   0.392 -0.2039 -0.5146  0.2275
   89MOL   C17517951   7.457   0.658   0.274 -0.9051 -0.1809 -0.0149
   89MOL   N17617952   7.324   0.602   0.294  0.4159 -0.0433  0.1484
   89MOL   H17717953   7.570   0.822   0.360  0.0538 -0.3553  1.1725
   89MOL   H17817954   7.413   0.803   0.424  0.0877 -0.0163  0.1280
   89MOL   H17917955   7.461   0.698   0.173 -0.5766  1.2969  0.5594
   89MOL   H18017956   7.531   0.579   0.265  1.1319  1.7400 -0.6736
   89MOL   H18117957   7.297   0.592   0.391  0.7965  0.1806  0.2764
   89MOL   C18217958   7.227   0.584   0.207 -0.1090  0.0930  0.0176
   89MOL   O18317959   7.245   0.600   0.085  0.1549  0.4681 -0.5654
   89MOL   C18417960   7.087   0.558   0.261 -0.0132 -0.4649 -0.1599
   89MOL   C18517961   6.978   0.564   0.145  0.6751 -0.5116  0.3307
   89MOL   N18617962   6.846   0.583   0.202 -0.2883  0.6149 -0.1133
   89MOL   H18717963   7.067   0.636   0.334  1.3944 -0.3612  0.1304
   89MOL   H18817964   7.068   0.466   0.316  0.8757 -0.1125  0.7447
   89MOL   H18917965   6.997   0.640   0.069  0.6077 -1.4103 -0.5927
   89MOL   H19017966   6.976   0.476   0.081  0.5519  0.4937 -1.0640
   89MOL   H19117967   6.830   0.675   0.240  1.4968  0.6085  0.7179
   89MOL   C19217968   6.781   0.473   0.247 -0.1237 -0.2539  0.4875
   89MOL   O19317969   6.805   0.360   0.206 -0.4145 -0.0699 -0.3179
   89MOL   C19417970   6.655   0.492   0.333  0.3170 -0.0028  0.3054
   89MOL   C19517971   6.526   0.477   0.250  0.7158 -0.1502  0.2128
   89MOL   N19617972   6.484   0.600   0.185  1.0663 -0.0342  0.1736
   89MOL   H19717973   6.642   0.417   0.410 -2.0862  0.9472  0.8776
   89MOL   H19817974   6.665   0.587   0.385  0.8867 -0.3225  0.7827
   89MOL   H19917975   6.534   0.407   0.167  1.6867  1.3142 -0.9447
   89MOL   H20017976   6.447   0.438   0.314  1.0685  0.2149  0.8827
   89MOL   H20117977   6.403   0.589   0.126 -0.0348 -2.2212  2.0055
   89MOL   H20217978   6.463   0.667   0.257  1.7806  0.0767  0.2847
   90MOL     C117979   4.203   0.562   1.488  0.0932 -0.9632  0.0553
   90MOL     O217980   4.207   0.471   1.568  0.3055  0.2373  0.1754
   90MOL     C317981   4.332   0.636   1.437  0.2999 -0.2586 -0.1028
   90MOL     C417982   4.379   0.601   1.292 -0.2775  0.5381  0.3463
   90MOL     N517983   4.287   0.648   1.185  0.0739  0.3846 -0.0806
   90MOL     H617984   4.416   0.619   1.504 -0.2409 -0.1872  0.5929
   90MOL     H717985   4.305   0.741   1.444  0.5501 -0.1253 -1.0276
   90MOL     H817986   4.406   0.496   1.291  1.4438  0.9640  1.4253
   90MOL     H917987   4.474   0.652   1.281  0.4601 -0.8580  0.1825
   90MOL    H1017988   4.276   0.747   1.169  0.1411  0.3324 -0.4531
   90MOL    H1117989   4.109   0.599   1.449  0.1538 -1.6569 -0.7583
   90MOL    C1217990   4.205   0.569   1.120  0.2045  0.4234  0.5520
   90MOL    O1317991   4.197   0.445   1.128 -0.1372 -0.3824 -0.7285
   90MOL    C1417992   4.119   0.647   1.018  0.0821  0.1294  0.1363
   90MOL    C1517993   4.019   0.746   1.088 -0.3562 -0.1188  0.7828
   90MOL    N1617994   4.074   0.878   1.113 -0.3420 -0.3264 -0.2698
   90MOL    H1717995   4.073   0.564   0.964  0.7743 -0.7012  0.7866
   90MOL    H1817996   4.173   0.706   0.944 -1.2696  1.9613  0.5795
   90MOL    H1917997   3.926   0.748   1.031 -0.4662 -3.2914  0.7542
   90MOL    H2017998   3.975   0.702   1.178 -0.9918 -3.6035 -1.1148
   90MOL    H2117999   4.065   0.960   1.054 -1.6933  0.7752  1.3994
   90MOL    C2218000   4.108   0.915   1.242 -0.0646  0.8920 -0.3877
   90MOL    O2318001   4.115   0.838   1.336 -0.0933  0.2232  0.1204
   90MOL    C2418002   4.136   1.064   1.268  0.7296  0.4145  0.1490
   90MOL    C2518003   4.061   1.115   1.384 -0.0641 -0.5769 -0.0296
   90MOL    N2618004   4.144   1.151   1.499  0.0659 -0.2491  0.0791
   90MOL    H2718005   4.111   1.124   1.181 -0.9323  0.1429  0.4099
   90MOL    H2818006   4.241   1.073   1.293  0.2064 -1.0162  3.1895
   90MOL    H2918007   4.006   1.200   1.343 -0.0514 -2.0167 -3.1383
   90MOL    H3018008   3.989   1.044   1.424 -0.4581 -2.2272 -3.4816
   90MOL    H3118009   4.155   1.075   1.565  0.4346 -1.8894 -1.8291
   90MOL    C3218010   4.225   1.261   1.502  0.2510  0.1792  0.2167
   90MOL    O3318011   4.225   1.345   1.413 -0.3154  0.4248 -0.1398
   90MOL    C3418012   4.337   1.270   1.610  0.1405 -0.3041  0.6357
   90MOL    C3518013   4.473   1.210   1.549 -0.1578 -0.3523 -0.1514
   90MOL    N3618014   4.517   1.255   1.416  0.3805 -0.0305  0.1298
   90MOL    H3718015   4.309   1.211   1.698  0.5569 -2.5271 -0.6662
   90MOL    H3818016   4.342   1.369   1.653  0.8979  0.4057 -1.0467
   90MOL    H3918017   4.547   1.233   1.625  1.3041 -0.3874 -1.5535
   90MOL    H4018018   4.465   1.101   1.546  0.2282 -0.4373  1.3581
   90MOL    H4118019   4.463   1.332   1.379  1.3592  1.0043  0.8595
   90MOL    C4218020   4.624   1.219   1.353 -0.2362  0.1585  0.1624
   90MOL    O4318021   4.707   1.139   1.395 -0.1236 -0.2052 -0.1757
   90MOL    C4418022   4.651   1.300   1.227  0.4713 -0.0782  0.0602
   90MOL    C4518023   4.793   1.286   1.163 -0.2723 -0.2465 -0.2665
   90MOL    N4618024   4.805   1.340   1.025 -0.0297 -0.2650  0.6528
   90MOL    H4718025   4.570   1.271   1.161 -0.3071  0.3665  0.8119
   90MOL    H4818026   4.624   1.403   1.247 -2.1262 -0.8202  0.5802
   90MOL    H4918027   4.867   1.337   1.224  2.3924 -3.5440 -0.6119
   90MOL    H5018028   4.823   1.181   1.159  1.5167  0.2570 -0.3248
   90MOL    H5118029   4.797   1.441   1.028  0.9334 -0.1686  0.2689
   90MOL    C5218030   4.814   1.270   0.916  0.8199  0.6740 -0.1077
   90MOL    O5318031   4.823   1.148   0.916 -0.1742  0.1315  0.5211
   90MOL    C5418032   4.818   1.344   0.784  0.4925 -0.0738  0.1592
   90MOL    C5518033   4.854   1.258   0.661 -0.3896 -0.0160 -0.0717
   90MOL    N5618034   4.987   1.212   0.649  0.1479  0.1609  0.2093
   90MOL    H5718035   4.722   1.392   0.764  1.0878  1.0401 -0.0699
   90MOL    H5818036   4.887   1.427   0.797  0.1436  0.1280  0.7452
   90MOL    H5918037   4.833   1.310   0.567  0.5505 -0.0693 -0.3149
   90MOL    H6018038   4.795   1.167   0.671 -0.0530 -0.0796  1.4468
   90MOL    H6118039   5.003   1.121   0.689  2.1705  0.8211  0.9649
   90MOL    C6218040   5.090   1.286   0.604  0.8365 -0.0800 -0.4045
   90MOL    O6318041   5.074   1.400   0.546  0.1285 -0.9729 -0.3627
   90MOL    C6418042   5.229   1.224   0.616 -0.5587  0.0885 -0.0161
   90MOL    C6518043   5.314   1.251   0.488  0.0590  0.4199 -0.1304
   90MOL    N6618044   5.275   1.158   0.384 -0.1078  0.5769  0.3256
   90MOL    H6718045   5.270   1.282   0.699 -0.5753  0.4324 -0.2485
   90MOL    H6818046   5.222   1.118   0.644  1.1404 -0.2155 -0.6791
   90MOL    H6918047   5.307   1.353   0.451 -0.8304  0.7712  0.9819
   90MOL    H7018048   5.419   1.239   0.513  0.2526  2.9578  0.3341
   90MOL    H7118049   5.183   1.172   0.343  0.1577  0.7755 -0.2196
   90MOL    C7218050   5.358   1.069   0.326 -0.4934  0.8087  0.6707
   90MOL    O7318051   5.468   1.039   0.376  0.0177 -0.3567  0.1815
   90MOL    C7418052   5.303   0.998   0.201 -0.9588  0.1977 -0.1359
   90MOL    C7518053   5.223   0.867   0.229 -0.4917  0.2894 -0.5368
   90MOL    N7618054   5.089   0.893   0.269 -0.2791  0.1170  0.0229
   90MOL    H7718055   5.250   1.061   0.129 -0.4034  0.1583 -0.5868
   90MOL    H7818056   5.394   0.971   0.147 -2.1604  1.1590 -2.7115
   90MOL    H7918057   5.219   0.808   0.138 -0.8252 -0.5674  0.0227
   90MOL    H8018058   5.269   0.801   0.303  1.1556 -0.0165 -1.8117
   90MOL    H8118059   5.069   0.876   0.367  0.2414  4.4115  0.9972
   90MOL    C8218060   4.979   0.899   0.196  0.8307  0.3446 -0.0877
   90MOL    O8318061   4.976   0.895   0.071  0.4167 -0.3684  0.0361
   90MOL    C8418062   4.853   0.896   0.279  0.5943  0.0372  0.3542
   90MOL    C8518063   4.824   1.018   0.372 -0.0958  0.3735 -0.2051
   90MOL    N8618064   4.787   1.142   0.304 -0.4354 -0.5698  0.0665
   90MOL    H8718065   4.775   0.888   0.204 -0.6794 -0.3464  1.6918
   90MOL    H8818066   4.843   0.795   0.320 -0.1188 -1.0277 -2.3650
   90MOL    H8918067   4.747   0.981   0.438  0.0285 -0.4004 -0.4868
   90MOL    H9018068   4.907   1.038   0.440 -0.2190  0.3362 -0.0454
   90MOL    H9118069   4.688   1.157   0.291 -0.2063  0.4303 -0.5065
   90MOL    C9218070   4.873   1.239   0.282  0.4039  0.2293 -0.1424
   90MOL    O9318071   4.992   1.240   0.309  0.0366 -0.0415  0.1636
   90MOL    C9418072   4.814   1.378   0.225  0.1350  0.9986 -0.2837
   90MOL    C9518073   4.783   1.499   0.314 -0.1508  0.0559  0.2333
   90MOL    N9618074   4.906   1.563   0.358 -0.2056 -0.0676 -0.4282
   90MOL    H9718075   4.877   1.407   0.141  0.8766  2.4038  0.7446
   90MOL    H9818076   4.727   1.359   0.162  0.1472  0.0320 -0.0116
   90MOL    H9918077   4.728   1.573   0.256 -0.2923 -0.8209 -0.7652
   90MOL   H10018078   4.714   1.472   0.394 -1.7021  0.1035 -1.0757
   90MOL   H10118079   4.980   1.505   0.394 -0.3711  0.4710  0.7975
   90MOL   C10218080   4.912   1.693   0.395  0.6707  1.2856 -0.2706
   90MOL   O10318081   4.824   1.778   0.371  0.6233  0.0617  0.0452
   90MOL   C10418082   5.043   1.742   0.463  0.3581 -0.5191  0.4524
   90MOL   C10518083   5.045   1.895   0.484  0.2574  0.2302  0.5436
   90MOL   N10618084   5.179   1.952   0.469 -0.0718  0.3467 -0.2218
   90MOL   H10718085   5.122   1.709   0.396 -0.0219 -2.5621  0.9573
   90MOL   H10818086   5.061   1.692   0.559 -1.8045 -0.2224  1.0406
   90MOL   H10918087   4.985   1.954   0.415 -0.2996 -0.2783  0.5983
   90MOL   H11018088   5.014   1.924   0.584  1.1586  3.8643 -0.1271
   90MOL   H11118089   5.208   1.995   0.555 -0.2950  1.7956 -0.8534
   90MOL   C11218090   5.254   1.961   0.360 -1.2051 -1.1596 -0.2480
   90MOL   O11318091   5.213   1.918   0.259  0.4766 -0.1680  0.1743
   90MOL   C11418092   5.392   2.028   0.368  0.4368 -0.2352 -0.5414
   90MOL   C11518093   5.407   2.159   0.293 -0.2658 -0.1333  0.3643
   90MOL   N11618094   5.536   2.219   0.312 -0.8397 -0.2270 -0.0061
   90MOL   H11718095   5.466   1.960   0.326 -0.2305 -0.2021 -1.7872
   90MOL   H11818096   5.418   2.039   0.474 -1.5549  1.4784 -0.1905
   90MOL   H11918097   5.399   2.140   0.186  0.6242  0.3082  0.2140
   90MOL   H12018098   5.319   2.222   0.307 -0.0910 -0.1263  1.4067
   90MOL   H12118099   5.607   2.182   0.251  0.6735 -0.2528  1.7119
   90MOL   C12218100   5.556   2.332   0.381 -0.2802  0.7084 -0.1147
   90MOL   O12318101   5.461   2.374   0.446  0.0022 -0.3324  0.1696
   90MOL   C12418102   5.686   2.406   0.346  0.0509 -0.2786 -0.2660
   90MOL   C12518103   5.714   2.532   0.438 -0.0893 -0.9584 -0.0789
   90MOL   N12618104   5.622   2.643   0.414 -0.8575  0.2187  0.2099
   90MOL   H12718105   5.677   2.435   0.241  0.9159  0.1616 -0.2152
   90MOL   H12818106   5.771   2.340   0.364  0.2589  0.1813  0.4641
   90MOL   H12918107   5.694   2.522   0.544 -1.5405  1.9965 -0.0390
   90MOL   H13018108   5.820   2.557   0.440 -0.8088  2.4421 -1.0310
   90MOL   H13118109   5.530   2.643   0.456 -0.7305  1.1866  0.4872
   90MOL   C13218110   5.653   2.756   0.350 -0.3712 -0.0301  0.2003
   90MOL   O13318111   5.765   2.777   0.298  0.2429 -0.4208 -0.0831
   90MOL   C13418112   5.550   2.867   0.342  0.3177  0.4618 -0.4905
   90MOL   C13518113   5.436   2.845   0.251  0.7507  0.4180  0.2004
   90MOL   N13618114   5.351   2.731   0.275 -0.2637  0.2268  0.0706
   90MOL   H13718115   5.602   2.958   0.313 -0.2339  1.9025  2.8929
   90MOL   H13818116   5.516   2.899   0.440 -0.0496 -1.9404  0.1851
   90MOL   H13918117   5.374   2.935   0.249 -0.9025 -0.7042 -0.1487
   90MOL   H14018118   5.474   2.847   0.149  0.6174 -0.6182  0.1259
   90MOL   H14118119   5.313   2.721   0.368 -1.2191  0.5406 -0.2774
   90MOL   C14218120   5.322   2.631   0.187 -0.1220 -0.2715  0.2394
   90MOL   O14318121   5.372   2.613   0.074  0.3606 -0.0679 -0.3186
   90MOL   C14418122   5.233   2.514   0.239  0.5496 -0.2014  0.2248
   90MOL   C14518123   5.125   2.464   0.141  0.6279  0.0170 -0.5015
   90MOL   N14618124   5.000   2.427   0.212 -0.2932 -0.1081 -0.2034
   90MOL   H14718125   5.194   2.532   0.339 -0.5667 -1.2942 -0.0097
   90MOL   H14818126   5.301   2.430   0.250 -1.9000 -2.3806 -0.6793
   90MOL   H14918127   5.102   2.542   0.067 -0.5924 -1.8439 -2.1363
   90MOL   H15018128   5.151   2.382   0.074  0.8189 -1.1311  0.9663
   90MOL   H15118129   4.932   2.500   0.229 -0.8250 -0.4188 -0.9712
   90MOL   C15218130   4.973   2.297   0.258  0.3002 -0.6048  0.1852
   90MOL   O15318131   5.049   2.202   0.245  0.1811 -0.4485  0.1198
   90MOL   C15418132   4.838   2.271   0.324 -0.4423 -0.2972  0.3506
   90MOL   C15518133   4.829   2.257   0.475 -0.1872 -0.3291  0.4077
   90MOL   N15618134   4.901   2.372   0.534  0.4541 -0.0674  0.1885
   90MOL   H15718135   4.802   2.179   0.278 -1.0241  0.7590 -1.3472
   90MOL   H15818136   4.766   2.349   0.299  0.1321  1.0007  2.5874
   90MOL   H15918137   4.725   2.266   0.505 -0.6241  0.6589 -1.3452
   90MOL   H16018138   4.868   2.159   0.504 -0.8505 -0.8767 -0.5646
   90MOL   H16118139   4.860   2.464   0.530  0.6523  0.0019 -0.3076
   90MOL   C16218140   4.992   2.359   0.630 -0.2253  0.6656 -0.9653
   90MOL   O16318141   5.030   2.262   0.692 -0.5311  0.0706 -0.4044
   90MOL   C16418142   5.065   2.487   0.674 -0.2450  0.2217 -0.2351
   90MOL   C16518143   5.217   2.470   0.675  0.8810  0.6363  0.5311
   90MOL   N16618144   5.284   2.580   0.736 -0.2889 -0.0493  0.0077
   90MOL   H16718145   5.019   2.524   0.766  0.7168  1.2901 -0.1771
   90MOL   H16818146   5.047   2.567   0.602  0.2840  1.7066  1.2521
   90MOL   H16918147   5.262   2.379   0.716  1.9259  0.2167 -1.5140
   90MOL   H17018148   5.243   2.464   0.570 -2.5460  2.2959 -0.4760
   90MOL   H17118149   5.302   2.572   0.835  3.6964  0.2885 -0.6277
   90MOL   C17218150   5.352   2.677   0.668 -0.4086  0.1546 -0.5048
   90MOL   O17318151   5.354   2.704   0.552 -0.3427  0.2476 -0.3737
   90MOL   C17418152   5.438   2.765   0.763  0.3912 -0.1780  0.1980
   90MOL   C17518153   5.577   2.703   0.775 -0.7182 -0.4727  0.0212
   90MOL   N17618154   5.682   2.805   0.747 -0.1289 -0.0148 -0.3734
   90MOL   H17718155   5.392   2.776   0.861 -0.7583  0.5072 -0.3986
   90MOL   H17818156   5.437   2.868   0.727 -0.1508 -0.3336 -0.2548
   90MOL   H17918157   5.587   2.655   0.872 -0.0993 -1.8740 -0.7189
   90MOL   H18018158   5.600   2.620   0.708  0.9691 -1.7166  2.0915
   90MOL   H18118159   5.652   2.898   0.723 -0.8366  0.0105  0.5928
   90MOL   C18218160   5.818   2.784   0.750 -0.6341  0.0283 -0.7621
   90MOL   O18318161   5.857   2.668   0.778 -0.2975 -0.0560 -0.2489
   90MOL   C18418162   5.919   2.888   0.718 -0.2385 -0.0173 -1.0521
   90MOL   C18518163   5.981   2.866   0.577  0.2063 -0.4453  0.1437
   90MOL   N18618164   5.927   2.961   0.481 -0.0958  0.0348 -0.8092
   90MOL   H18718165   5.996   2.882   0.795  1.6793  0.0435 -2.8930
   90MOL   H18818166   5.869   2.984   0.730  1.8481  0.7226  2.3075
   90MOL   H18918167   6.090   2.866   0.570  0.2238  1.3167  0.1747
   90MOL   H19018168   5.961   2.761   0.555 -0.8467 -0.9633  3.2547
   90MOL   H19118169   5.874   2.916   0.407 -2.9560 -0.4241  1.4168
   90MOL   C19218170   5.959   3.091   0.473  0.3201  0.0062 -0.2109
   90MOL   O19318171   6.022   3.151   0.564 -0.5880 -0.3351  0.0593
   90MOL   C19418172   5.897   3.168   0.349  0.9523  0.4925 -0.3150
   90MOL   C19518173   5.807   3.286   0.394  0.3212 -0.9071  0.3053
   90MOL   N19618174   5.683   3.246   0.433 -0.2031  0.0936  1.0554
   90MOL   H19718175   5.988   3.197   0.297  1.0902 -0.5014 -0.6437
   90MOL   H19818176   5.842   3.112   0.273 -0.6324  1.0945  0.3678
   90MOL   H19918177   5.866   3.338   0.471  1.2189 -0.2212 -0.8298
   90MOL   H20018178   5.794   3.356   0.312 -2.1587 -2.1472 -0.3836
   90MOL   H20118179   5.685   3.182   0.511 -1.7531 -0.1299  0.9246
   90MOL   H20218180   5.623   3.324   0.457  0.1143  0.4317  0.7657
   91MOL     C118181   2.283   1.652   5.803 -0.1304  1.3112 -0.6871
   91MOL     O218182   2.391   1.704   5.822  0.2785 -0.7353 -0.4438
   91MOL     C318183   2.231   1.529   5.879  0.1623  0.0123 -0.0621
   91MOL     C418184   2.298   1.520   6.015  0.3489 -0.0087  0.2439
   91MOL     N518185   2.243   1.424   6.107  0.0978  0.3136 -0.5142
   91MOL     H618186   2.238   1.447   5.807 -1.4621 -2.0991  2.0925
   91MOL     H718187   2.124   1.534   5.903  0.0925  1.5644 -0.6187
   91MOL     H818188   2.294   1.613   6.073  0.7393 -1.6717  3.0241
   91MOL     H918189   2.400   1.495   5.988 -0.0985 -1.0181 -0.5367
   91MOL    H1018190   2.291   1.339   6.131  1.6209  1.3082  0.0014
   91MOL    H1118191   2.221   1.702   5.729  0.8068 -0.9011 -3.0439
   91MOL    C1218192   2.129   1.443   6.174  0.0621  0.0700  0.2036
   91MOL    O1318193   2.050   1.538   6.146  0.4606 -0.3835 -0.8355
   91MOL    C1418194   2.087   1.339   6.280 -0.5640 -0.7631 -0.4894
   91MOL    C1518195   1.941   1.362   6.350  0.2346 -0.0317  1.0672
   91MOL    N1618196   1.831   1.304   6.271  0.4361 -0.4449 -0.9334
   91MOL    H1718197   2.170   1.331   6.350 -1.0475  2.0133  0.4398
   91MOL    H1818198   2.086   1.252   6.215  2.7880 -0.5441 -0.9377
   91MOL    H1918199   1.949   1.308   6.444 -1.4705 -1.4106  0.4418
   91MOL    H2018200   1.922   1.467   6.373  0.4364  0.0623  0.8137
   91MOL    H2118201   1.774   1.381   6.239 -0.4307 -0.3753  0.7340
   91MOL    C2218202   1.772   1.181   6.267 -0.0849 -1.3421 -0.4181
   91MOL    O2318203   1.826   1.082   6.323  0.1788  0.4876  0.1788
   91MOL    C2418204   1.646   1.162   6.183 -0.3821  0.1668 -0.0639
   91MOL    C2518205   1.519   1.183   6.267 -0.1371  0.0545  0.3971
   91MOL    N2618206   1.473   1.050   6.308  0.2809  0.1660 -0.0449
   91MOL    H2718207   1.640   1.079   6.113 -1.7540  0.4853 -0.3337
   91MOL    H2818208   1.649   1.244   6.111 -0.0433 -0.4786 -0.7890
   91MOL    H2918209   1.533   1.237   6.361 -1.5537 -2.0631  1.9013
   91MOL    H3018210   1.447   1.229   6.199  0.7299  0.4711 -0.2417
   91MOL    H3118211   1.471   0.983   6.232 -0.7693  0.2959 -0.1458
   91MOL    C3218212   1.428   1.003   6.429 -0.1730 -0.6241  0.2262
   91MOL    O3318213   1.414   1.081   6.522 -0.0189 -0.6540  0.1631
   91MOL    C3418214   1.387   0.857   6.432  0.4990  0.4539 -0.7381
   91MOL    C3518215   1.361   0.799   6.582 -0.8147  0.4338  0.0763
   91MOL    N3618216   1.362   0.656   6.581 -0.3374  0.2983 -0.4108
   91MOL    H3718217   1.462   0.803   6.374  1.4485 -0.4027  1.2278
   91MOL    H3818218   1.289   0.844   6.386  0.2718  0.7702 -0.3506
   91MOL    H3918219   1.439   0.836   6.649 -0.5256  2.4798 -1.3376
   91MOL    H4018220   1.273   0.843   6.629 -1.3854  0.2275 -0.7921
   91MOL    H4118221   1.271   0.611   6.578 -0.5164  0.6704 -0.6836
   91MOL    C4218222   1.467   0.580   6.552  0.1158 -0.5082  0.3053
   91MOL    O4318223   1.572   0.635   6.534 -0.0253 -0.4981 -0.1236
   91MOL    C4418224   1.453   0.426   6.538 -0.3218 -0.7567 -0.3141
   91MOL    C4518225   1.583   0.359   6.482  0.8619  1.0215  0.4535
   91MOL    N4618226   1.674   0.325   6.593  0.4095 -0.2272 -0.2037
   91MOL    H4718227   1.417   0.379   6.629  0.1087 -0.1062  0.1913
   91MOL    H4818228   1.366   0.425   6.472 -0.6577  1.2805  0.0794
   91MOL    H4918229   1.547   0.267   6.437 -1.6985  0.7829  2.8697
   91MOL    H5018230   1.619   0.430   6.407 -1.4297  0.9584 -0.7453
   91MOL    H5118231   1.636   0.294   6.681  2.7596  0.0677  0.9395
   91MOL    C5218232   1.800   0.363   6.606 -0.4693 -0.2337  0.2126
   91MOL    O5318233   1.861   0.415   6.508 -0.3478  0.3283  0.0646
   91MOL    C5418234   1.866   0.347   6.743 -0.2916 -0.5511 -0.6033
   91MOL    C5518235   1.894   0.482   6.813 -0.2381  0.9278  0.0578
   91MOL    N5618236   1.781   0.568   6.832  0.2273  0.6970  0.3838
   91MOL    H5718237   1.788   0.296   6.799 -1.4692 -0.5777 -2.2313
   91MOL    H5818238   1.963   0.297   6.735 -1.0290 -1.8039 -1.9084
   91MOL    H5918239   1.948   0.548   6.744 -1.9861  0.3559 -1.9203
   91MOL    H6018240   1.953   0.473   6.904 -0.0955  2.3657  0.1299
   91MOL    H6118241   1.774   0.647   6.769  0.6477  0.4907  0.0824
   91MOL    C6218242   1.679   0.547   6.922 -0.1299  0.2091  0.4765
   91MOL    O6318243   1.687   0.472   7.020 -0.4963  0.0944 -0.1292
   91MOL    C6418244   1.564   0.635   6.888  0.2548 -0.0163 -0.6795
   91MOL    C6518245   1.514   0.728   7.000 -0.1903  0.4247 -0.4021
   91MOL    N6618246   1.576   0.861   7.006 -0.4445  0.1229  0.3227
   91MOL    H6718247   1.579   0.697   6.800 -2.7257 -1.2923 -2.1463
   91MOL    H6818248   1.481   0.571   6.859  0.3962  0.2652 -1.7188
   91MOL    H6918249   1.406   0.739   6.988 -0.4193  0.3282  1.4389
   91MOL    H7018250   1.525   0.674   7.093 -0.8347  1.6385  0.3968
   91MOL    H7118251   1.640   0.893   6.935  0.2472 -1.1160  0.3746
   91MOL    C7218252   1.587   0.925   7.119 -0.8015  0.1633 -0.9605
   91MOL    O7318253   1.520   0.893   7.218 -0.4310  0.1900 -0.5705
   91MOL    C7418254   1.688   1.042   7.123  0.1130  0.8309  0.1860
   91MOL    C7518255   1.611   1.174   7.110 -0.0780 -0.0429 -0.1732
   91MOL    N7618256   1.698   1.290   7.090  0.0819  0.1301 -0.5739
   91MOL    H7718257   1.750   1.038   7.213  1.1348 -0.0122 -0.5362
   91MOL    H7818258   1.750   1.027   7.035  0.5899 -3.0896  1.1063
   91MOL    H7918259   1.546   1.165   7.023  0.3975  0.1168 -0.5478
   91MOL    H8018260   1.547   1.185   7.198  1.3185 -2.3565  1.1847
   91MOL    H8118261   1.707   1.328   6.997 -0.0651  1.1227 -0.1980
   91MOL    C8218262   1.761   1.357   7.195  0.8888 -0.1984  0.7047
   91MOL    O8318263   1.748   1.322   7.309 -0.2752  0.3580  0.1751
   91MOL    C8418264   1.860   1.466   7.150  0.1291  0.3655  0.2858
   91MOL    C8518265   1.989   1.478   7.235  0.1641  0.1494 -0.0130
   91MOL    N8618266   2.091   1.564   7.177 -0.4197 -0.6635  0.4496
   91MOL    H8718267   1.893   1.454   7.046  0.1415  0.9418  0.2190
   91MOL    H8818268   1.817   1.566   7.157  0.2260  0.4514 -0.2757
   91MOL    H8918269   1.974   1.522   7.333  0.3472  1.1732 -0.4379
   91MOL    H9018270   2.028   1.379   7.260 -2.2506 -1.1658 -1.2521
   91MOL    H9118271   2.058   1.653   7.144 -1.2456 -2.3329 -3.4025
   91MOL    C9218272   2.216   1.530   7.151 -0.3767  0.7676 -0.2679
   91MOL    O9318273   2.257   1.417   7.172  1.0176 -0.2448 -0.0343
   91MOL    C9418274   2.310   1.635   7.095  0.1439  0.4224  0.4665
   91MOL    C9518275   2.432   1.586   7.026 -0.7684 -0.4639 -0.0352
   91MOL    N9618276   2.519   1.698   6.991 -1.1491 -0.4476 -0.5463
   91MOL    H9718277   2.260   1.692   7.016  0.4774  0.2829  0.1531
   91MOL    H9818278   2.337   1.707   7.173  1.5776 -0.0999  0.4736
   91MOL    H9918279   2.499   1.515   7.075 -0.4847  0.0452  0.3139
   91MOL   H10018280   2.404   1.535   6.933  0.1411  0.4701 -0.8354
   91MOL   H10118281   2.607   1.715   7.036  0.7851  0.3550 -4.4738
   91MOL   C10218282   2.531   1.743   6.869 -0.5336  0.3215  0.1715
   91MOL   O10318283   2.440   1.728   6.786 -0.1017  0.4850 -0.1402
   91MOL   C10418284   2.679   1.796   6.840  0.6833 -0.2601 -0.3131
   91MOL   C10518285   2.684   1.899   6.724  0.2735  0.7622 -0.1243
   91MOL   N10618286   2.603   2.020   6.762 -0.7084 -0.0511 -0.6763
   91MOL   H10718287   2.735   1.708   6.809 -0.2848 -0.8945 -0.2715
   91MOL   H10818288   2.722   1.839   6.931 -1.6410  1.3126  0.0831
   91MOL   H10918289   2.786   1.928   6.700  0.1985 -0.6095 -2.1457
   91MOL   H11018290   2.651   1.853   6.631 -0.1997 -0.2909  0.5483
   91MOL   H11118291   2.591   2.037   6.861  1.8345  1.9801 -0.6899
   91MOL   C11218292   2.549   2.106   6.676 -1.1566  0.1056  0.6013
   91MOL   O11318293   2.576   2.105   6.557  0.0293 -0.4863 -0.5054
   91MOL   C11418294   2.445   2.205   6.732  0.4566  0.1114  0.8417
   91MOL   C11518295   2.346   2.269   6.634 -0.5798 -0.0447 -0.0650
   91MOL   N11618296   2.269   2.175   6.554 -0.8336 -0.4929  0.3449
   91MOL   H11718297   2.495   2.278   6.796  0.4906  2.1575 -1.4448
   91MOL   H11818298   2.393   2.160   6.817  1.4374  0.5261  1.6722
   91MOL   H11918299   2.272   2.330   6.686  0.0751  2.2602 -1.7547
   91MOL   H12018300   2.398   2.338   6.567  0.1105 -0.2826  0.2218
   91MOL   H12118301   2.319   2.102   6.505 -1.1116 -0.8313  0.5659
   91MOL   C12218302   2.139   2.140   6.562  0.7556 -0.0008  0.0762
   91MOL   O12318303   2.091   2.049   6.496  0.5326 -0.1869 -0.3454
   91MOL   C12418304   2.043   2.214   6.656 -0.9125 -0.2218 -0.1550
   91MOL   C12518305   1.895   2.207   6.613 -0.9614 -0.0061 -0.1489
   91MOL   N12618306   1.810   2.270   6.713  0.2637  0.5731 -0.4315
   91MOL   H12718307   2.061   2.321   6.668 -0.3455 -0.0930 -1.9571
   91MOL   H12818308   2.055   2.177   6.757  0.5647  1.1428  0.1863
   91MOL   H12918309   1.873   2.249   6.514  1.1521  0.9302 -0.2464
   91MOL   H13018310   1.875   2.100   6.618  0.9100 -0.3126  1.3034
   91MOL   H13118311   1.859   2.311   6.791 -1.1692  0.3797  0.5906
   91MOL   C13218312   1.678   2.269   6.712  0.8399 -0.8573 -0.0771
   91MOL   O13318313   1.603   2.216   6.631  0.2979  0.3120 -0.3577
   91MOL   C13418314   1.614   2.351   6.828 -0.6263  0.2335 -0.4190
   91MOL   C13518315   1.483   2.417   6.795  0.3131 -0.8742 -0.2403
   91MOL   N13618316   1.368   2.332   6.805 -0.2518 -0.0700  0.1614
   91MOL   H13718317   1.687   2.427   6.856 -0.5764 -0.0335  0.1966
   91MOL   H13818318   1.613   2.283   6.914  1.8484 -1.0722 -1.3869
   91MOL   H13918319   1.469   2.501   6.863 -0.8036 -1.1361 -0.1313
   91MOL   H14018320   1.497   2.450   6.692  2.2759  1.4538  0.7287
   91MOL   H14118321   1.378   2.233   6.785 -0.7943  0.0022 -0.4893
   91MOL   C14218322   1.242   2.376   6.827 -0.2089  0.5954  0.4364
   91MOL   O14318323   1.221   2.493   6.847  0.2386  0.8443 -0.2324
   91MOL   C14418324   1.127   2.279   6.811  0.6662 -0.0295  0.2855
   91MOL   C14518325   0.985   2.328   6.854  0.1293  0.1589  0.5153
   91MOL   N14618326   0.897   2.211   6.827  0.3402  0.5607  0.0690
   91MOL   H14718327   1.143   2.183   6.860  0.0083  1.2610  3.1489
   91MOL   H14818328   1.131   2.268   6.703 -0.1893 -0.4474  0.2932
   91MOL   H14918329   0.979   2.353   6.960  1.6321  1.2240  0.3566
   91MOL   H15018330   0.961   2.415   6.794 -0.3662  0.7828  1.5975
   91MOL   H15118331   0.920   2.143   6.756  0.7036 -0.2973  1.0030
   91MOL   C15218332   0.777   2.190   6.882 -0.4450 -0.8324  0.0214
   91MOL   O15318333   0.726   2.271   6.958 -0.4814 -0.3137  0.0494
   91MOL   C15418334   0.705   2.059   6.847  0.0413  0.5610  0.1840
   91MOL   C15518335   0.609   2.012   6.958 -0.1674  0.0489 -0.1483
   91MOL   N15618336   0.510   1.916   6.912 -0.3727  0.9977  0.1002
   91MOL   H15718337   0.775   1.977   6.831 -1.1657 -0.1810 -1.2948
   91MOL   H15818338   0.660   2.051   6.748 -1.2169 -0.4690  0.8223
   91MOL   H15918339   0.665   1.964   7.038 -2.3320 -0.5852  1.0452
   91MOL   H16018340   0.562   2.091   7.015 -0.5438  0.0359 -0.4349
   91MOL   H16118341   0.410   1.926   6.927 -0.4485 -0.1672  0.5082
   91MOL   C16218342   0.550   1.797   6.869  0.4033 -0.1741 -1.1333
   91MOL   O16318343   0.670   1.761   6.863  0.5668  0.0092 -0.6123
   91MOL   C16418344   0.446   1.692   6.850  0.2934 -0.1494 -0.1576
   91MOL   C16518345   0.486   1.572   6.765 -0.1632 -0.0590  0.0903
   91MOL   N16618346   0.494   1.602   6.620  0.3763 -0.1228  0.0310
   91MOL   H16718347   0.365   1.737   6.793 -1.5976 -1.5053  1.3718
   91MOL   H16818348   0.403   1.667   6.946  0.4419  0.6568  0.1186
   91MOL   H16918349   0.576   1.521   6.800 -0.8468 -0.7960  0.7805
   91MOL   H17018350   0.402   1.506   6.788 -0.3182  0.4748  1.1094
   91MOL   H17118351   0.427   1.671   6.592  0.0760  0.8023  2.9018
   91MOL   C17218352   0.580   1.561   6.521 -0.6945 -0.0820 -0.3397
   91MOL   O17318353   0.661   1.470   6.543 -0.0136 -0.8088  0.0988
   91MOL   C17418354   0.584   1.642   6.397  0.0501  0.3246 -0.1250
   91MOL   C17518355   0.614   1.556   6.269 -0.6660 -0.2010 -0.0799
   91MOL   N17618356   0.653   1.641   6.153 -0.4196  0.4163 -0.6789
   91MOL   H17718357   0.666   1.713   6.408  1.1756 -0.6874 -1.6664
   91MOL   H17818358   0.497   1.707   6.384 -1.9567 -2.1656  0.4740
   91MOL   H17918359   0.693   1.483   6.286  1.4425  2.4280  1.7548
   91MOL   H18018360   0.523   1.501   6.245 -1.4781  0.8292  0.5749
   91MOL   H18118361   0.581   1.663   6.086  0.9273  1.5816 -1.7821
   91MOL   C18218362   0.777   1.692   6.126  0.3162 -0.7719  0.2120
   91MOL   O18318363   0.790   1.764   6.030  0.8181 -0.4785  0.5022
   91MOL   C18418364   0.895   1.645   6.212  0.0746  0.5502 -0.5194
   91MOL   C18518365   1.027   1.721   6.185 -0.2110 -0.0728  0.0567
   91MOL   N18618366   1.139   1.695   6.282  0.2738  0.3253 -1.1722
   91MOL   H18718367   0.903   1.536   6.201 -0.6094  0.3508  0.8887
   91MOL   H18818368   0.858   1.660   6.313 -2.3319  0.4346 -1.3437
   91MOL   H18918369   1.066   1.706   6.085  1.5182  0.5659  0.6085
   91MOL   H19018370   1.003   1.826   6.164  0.0306 -0.4041 -1.9507
   91MOL   H19118371   1.201   1.773   6.299 -1.0002  0.7815  1.5426
   91MOL   C19218372   1.167   1.590   6.359 -0.1072  0.2049  0.1394
   91MOL   O19318373   1.109   1.481   6.348 -0.4170  0.3423 -0.2221
   91MOL   C19418374   1.280   1.601   6.461 -1.0067 -0.8002 -0.2366
   91MOL   C19518375   1.376   1.478   6.450 -0.1071  0.2477 -0.3623
   91MOL   N19618376   1.314   1.362   6.511 -0.1628  0.0529  0.4047
   91MOL   H19718377   1.329   1.697   6.449 -1.1255 -0.9227 -1.7402
   91MOL   H19818378   1.240   1.618   6.561  1.0198  2.3165  0.1124
   91MOL   H19918379   1.399   1.452   6.347  0.2505 -1.4025  0.1192
   91MOL   H20018380   1.471   1.476   6.504  0.7781  2.2262 -1.8035
   91MOL   H20118381   1.215   1.365   6.489  0.3795  2.2202 -1.8774
   91MOL   H20218382   1.361   1.280   6.475 -0.0801  0.1211  0.3577
   92MOL     C118383   1.471   0.557   7.367  0.2119 -0.6758 -0.4604
   92MOL     O218384   1.377   0.501   7.414  0.4325  0.6870  0.5034
   92MOL     C318385   1.591   0.476   7.329 -0.4356  0.1954  0.2295
   92MOL     C418386   1.655   0.383   7.435 -0.4204 -0.0411  0.6399
   92MOL     N518387   1.694   0.448   7.558  0.0740  0.0885 -0.0988
   92MOL     H618388   1.670   0.546   7.301 -0.3526 -0.6599 -1.7660
   92MOL     H718389   1.551   0.424   7.242 -1.1094 -0.2583  0.8124
   92MOL     H818390   1.745   0.336   7.397  0.1680  0.1099  1.8434
   92MOL     H918391   1.578   0.308   7.454  0.9384 -1.8742 -0.9416
   92MOL    H1018392   1.665   0.402   7.643  0.7249  0.2920  0.2331
   92MOL    H1118393   1.477   0.662   7.341 -0.2088 -0.3359  0.7670
   92MOL    C1218394   1.788   0.544   7.570 -0.3689 -0.0485 -0.0838
   92MOL    O1318395   1.848   0.592   7.476  0.5092  0.1482  0.1451
   92MOL    C1418396   1.821   0.584   7.714  0.7969 -1.4011 -0.3735
   92MOL    C1518397   1.971   0.598   7.763  0.3774  0.2520 -0.2439
   92MOL    N1618398   2.022   0.726   7.751 -0.2684 -0.7208 -1.1686
   92MOL    H1718399   1.759   0.524   0.001  0.5868 -1.5804 -0.7237
   92MOL    H1818400   1.770   0.681   7.715 -1.4316 -2.5384  0.0925
   92MOL    H1918401   1.993   0.542   0.074 -0.0427 -0.5825 -0.6518
   92MOL    H2018402   2.018   0.532   7.691 -0.4523 -0.3908 -0.2037
   92MOL    H2118403   2.072   0.741   7.665 -0.6723  1.2050 -1.0854
   92MOL    C2218404   2.036   0.822   0.064 -0.2817 -0.4995  0.2665
   92MOL    O2318405   1.987   0.802   0.175  0.1612 -0.0666  0.1647
   92MOL    C2418406   2.125   0.937   0.026  0.1946 -0.2425 -0.5362
   92MOL    C2518407   2.128   1.046   0.125 -0.4508  0.3567 -0.5919
   92MOL    N2618408   2.242   1.136   0.118 -0.6634  0.0215 -0.2933
   92MOL    H2718409   2.085   0.981   7.716  3.4902  2.3291 -0.8516
   92MOL    H2818410   2.219   0.894   7.772  0.5535  0.7860 -0.8719
   92MOL    H2918411   2.037   1.102   0.143 -0.3686 -0.0729  1.3071
   92MOL    H3018412   2.140   1.000   0.223 -2.1501 -1.2100 -1.0917
   92MOL    H3118413   2.251   1.173   0.025  0.2121 -0.9580 -0.6040
   92MOL    C3218414   2.350   1.168   0.197  0.1121  0.1519  0.1746
   92MOL    O3318415   2.361   1.118   0.307  0.4115  0.0339 -0.3964
   92MOL    C3418416   2.465   1.253   0.141  0.5312  0.2052  0.1201
   92MOL    C3518417   2.577   1.282   0.233  0.2045  0.3943 -0.4207
   92MOL    N3618418   2.670   1.383   0.185 -0.2119 -0.1792  0.2277
   92MOL    H3718419   2.409   1.344   0.116 -0.6815 -0.3486  0.7766
   92MOL    H3818420   2.490   1.202   0.048  0.8458  1.1949 -0.3546
   92MOL    H3918421   2.539   1.305   0.332  1.4846  1.2881 -0.1207
   92MOL    H4018422   2.633   1.190   0.252 -2.7997 -1.3925  0.0487
   92MOL    H4118423   2.743   1.340   0.131 -1.9311 -1.0522 -1.4757
   92MOL    C4218424   2.677   1.511   0.223  0.5258 -0.3379 -0.0738
   92MOL    O4318425   2.598   1.557   0.307 -0.3319 -0.0657 -0.3837
   92MOL    C4418426   2.792   1.598   0.163 -0.7542  0.8180  0.1825
   92MOL    C4518427   2.751   1.724   0.082 -0.3544  0.5217  0.7690
   92MOL    N4618428   2.679   1.684   7.742 -0.7548  0.1863  0.0503
   92MOL    H4718429   2.860   1.627   0.244 -2.4697  0.4930  1.7762
   92MOL    H4818430   2.839   1.531   0.092  1.6506  1.5079  1.0791
   92MOL    H4918431   2.695   1.792   0.146 -0.8900  0.6817  0.1293
   92MOL    H5018432   2.843   1.773   0.052 -0.5054  1.4740  1.8061
   92MOL    H5118433   2.579   1.678   7.748 -0.8456  0.8631 -0.6567
   92MOL    C5218434   2.741   1.668   7.622  0.4340  0.1023  0.2037
   92MOL    O5318435   2.864   1.672   7.610  0.1319 -0.3139 -0.5993
   92MOL    C5418436   2.649   1.643   7.501  0.1713  0.1306 -0.0156
   92MOL    C5518437   2.717   1.696   7.373 -0.2105 -0.0944 -0.1329
   92MOL    N5618438   2.817   1.618   7.307 -0.1649  0.5826 -0.2692
   92MOL    H5718439   2.641   1.534   7.496 -0.0970  0.1405  0.2106
   92MOL    H5818440   2.553   1.692   7.517  0.2563  0.6324 -1.0013
   92MOL    H5918441   2.744   1.801   7.387 -2.0360  0.3284  0.3507
   92MOL    H6018442   2.638   1.713   7.299  0.5599  2.0063 -0.5053
   92MOL    H6118443   2.871   1.553   7.362  0.8070  1.3503 -0.2886
   92MOL    C6218444   2.846   1.617   7.176  0.5938 -0.0301 -0.9520
   92MOL    O6318445   2.785   1.694   7.106 -0.3649  0.1601 -0.4594
   92MOL    C6418446   2.945   1.514   7.118 -0.4035 -0.4766 -0.2002
   92MOL    C6518447   3.013   1.560   6.985 -0.4610 -0.1309  0.6988
   92MOL    N6618448   3.100   1.679   6.987  0.2886  0.1842  1.1914
   92MOL    H6718449   3.011   1.479   7.197 -2.2898  0.2943  1.7662
   92MOL    H6818450   2.888   1.426   7.090  1.6995 -1.2387 -2.3282
   92MOL    H6918451   3.065   1.478   6.935 -2.4130 -1.3920  0.6851
   92MOL    H7018452   2.937   1.590   6.913  0.2499  0.1197  0.0521
   92MOL    H7118453   3.142   1.713   7.072 -0.7536 -0.3789  1.9421
   92MOL    C7218454   3.150   1.728   6.871 -0.3112 -0.2537  0.7570
   92MOL    O7318455   3.123   1.689   6.755  0.0075  0.3220 -0.2243
   92MOL    C7418456   3.232   1.844   6.882  0.4106  0.4858 -0.2672
   92MOL    C7518457   3.145   1.970   6.892  0.4260  0.0610  0.3862
   92MOL    N7618458   3.078   1.978   7.022  0.2810  0.4307  0.4667
   92MOL    H7718459   3.301   1.838   6.966  0.6989 -0.7601 -0.5916
   92MOL    H7818460   3.293   1.848   6.791 -0.3239  0.2846 -0.7737
   92MOL    H7918461   3.207   2.058   6.878 -0.0301  0.2198 -0.6911
   92MOL    H8018462   3.071   1.977   6.813 -0.6058 -0.4210  1.2937
   92MOL    H8118463   3.125   1.948   7.105  0.8490 -2.1765 -0.7448
   92MOL    C8218464   2.952   2.023   7.044 -0.1681 -0.2717 -0.4513
   92MOL    O8318465   2.881   2.088   6.966  0.0093 -0.3562 -0.2555
   92MOL    C8418466   2.906   2.004   7.188  0.3088  0.6429  0.1534
   92MOL    C8518467   2.753   2.029   7.207  0.5032  0.0336 -0.1082
   92MOL    N8618468   2.715   2.169   7.205 -0.1093 -0.4239  0.0640
   92MOL    H8718469   2.935   1.907   7.230  2.5588  1.2217 -0.0280
   92MOL    H8818470   2.954   2.079   7.251  1.1845 -0.6122  0.9999
   92MOL    H8918471   2.709   1.965   7.131  1.2871  0.8203 -1.2519
   92MOL    H9018472   2.731   2.003   7.310  0.0707  1.4500  0.1749
   92MOL    H9118473   2.777   2.221   7.265  0.1837 -0.1072 -0.5060
   92MOL    C9218474   2.605   2.224   7.150 -0.0888 -0.4694 -0.2383
   92MOL    O9318475   2.526   2.159   7.087  0.3529 -0.2213 -0.0472
   92MOL    C9418476   2.579   2.375   7.167 -0.0117  0.1966  0.7094
   92MOL    C9518477   2.502   2.447   7.057  0.1171  0.5697 -0.8606
   92MOL    N9618478   2.593   2.503   6.966  0.3429  0.0871 -0.3853
   92MOL    H9718479   2.522   2.386   7.259 -2.0400  0.0287 -0.5075
   92MOL    H9818480   2.672   2.425   7.192  1.0491 -1.9179  1.1178
   92MOL    H9918481   2.436   2.374   7.011 -0.5512  0.6602 -0.0549
   92MOL   H10018482   2.437   2.522   7.102  1.3356  1.5842 -0.7772
   92MOL   H10118483   2.685   2.526   7.001  0.0503 -0.1194  0.5320
   92MOL   C10218484   2.555   2.563   6.850  0.0162  0.0835 -0.3250
   92MOL   O10318485   2.437   2.542   6.804 -0.0213  0.0698  0.6523
   92MOL   C10418486   2.662   2.652   6.778 -1.0676  0.0473 -0.1378
   92MOL   C10518487   2.608   2.725   6.653  0.1934  0.4520  0.5024
   92MOL   N10618488   2.535   2.847   6.690 -0.2703  0.0842  0.2165
   92MOL   H10718489   2.732   2.583   6.730 -0.8613  1.6288 -2.1668
   92MOL   H10818490   2.719   2.710   6.851 -2.2867 -2.6574  3.0901
   92MOL   H10918491   2.683   2.760   6.583 -1.6188 -1.8115 -2.6938
   92MOL   H11018492   2.554   2.651   6.595  2.7457 -0.4627 -0.7909
   92MOL   H11118493   2.571   2.913   6.758  1.6563  0.7822 -1.4212
   92MOL   C11218494   2.422   2.885   6.620  1.1207  0.0926 -0.3754
   92MOL   O11318495   2.381   2.806   6.539 -1.0031  0.0701  0.2126
   92MOL   C11418496   2.348   3.015   6.637 -0.1894  0.7742  0.8137
   92MOL   C11518497   2.195   2.996   6.643 -0.0815  0.0598 -0.3583
   92MOL   N11618498   2.149   2.944   6.766  0.1990 -0.0367  0.7574
   92MOL   H11718499   2.374   3.077   6.552  0.0984  1.6061  1.4937
   92MOL   H11818500   2.378   3.082   6.718  0.7184 -0.2350  1.3385
   92MOL   H11918501   2.138   3.081   6.607  1.9282  1.7853  0.4216
   92MOL   H12018502   2.161   2.921   6.572  1.3948 -0.3509 -0.6338
   92MOL   H12118503   2.175   2.849   6.788  2.7618  0.4942  0.2775
   92MOL   C12218504   2.040   2.983   6.831 -0.3547 -0.4008 -0.8582
   92MOL   O12318505   1.979   3.089   6.801 -0.4257  0.2147 -0.0588
   92MOL   C12418506   1.993   2.894   6.941  0.2578  0.4987 -0.1097
   92MOL   C12518507   1.970   2.973   7.075 -0.2631 -0.3639  0.4085
   92MOL   N12618508   2.090   2.967   7.161  0.1509  0.1223 -0.2868
   92MOL   H12718509   2.067   2.815   6.950  0.1391  0.3767 -0.2017
   92MOL   H12818510   1.898   2.846   6.915  0.1440  0.5105  0.2791
   92MOL   H12918511   1.954   3.079   7.058  2.0294  0.1866  1.4384
   92MOL   H13018512   1.888   2.929   7.131 -1.6261  1.7520  0.1283
   92MOL   H13118513   2.126   3.061   7.172 -0.4349  0.2765  0.4130
   92MOL   C13218514   2.138   2.867   7.229  0.2662 -0.5739  0.5858
   92MOL   O13318515   2.096   2.754   7.206 -0.2613  0.0752  0.3178
   92MOL   C13418516   2.249   2.884   7.330  1.1465  0.0823 -0.3183
   92MOL   C13518517   2.363   2.784   7.306  0.4240 -0.0133 -0.2108
   92MOL   N13618518   2.454   2.795   7.417  0.1625  0.1042 -0.1877
   92MOL   H13718519   2.217   2.868   7.433  1.3358 -2.2628 -0.5760
   92MOL   H13818520   2.284   2.984   7.308  0.4783  0.6913  1.3618
   92MOL   H13918521   2.325   2.686   7.278  1.3385 -0.2637 -0.6061
   92MOL   H14018522   2.409   2.823   7.215  2.1348 -1.2867  0.0969
   92MOL   H14118523   2.449   2.737   7.500  0.7902  0.8014  0.3389
   92MOL   C14218524   2.563   2.874   7.420  0.3141  0.0383 -0.1603
   92MOL   O14318525   2.584   2.964   7.337 -0.4477  0.4819 -0.0060
   92MOL   C14418526   2.667   2.839   7.526  0.4731 -0.0952  0.1135
   92MOL   C14518527   2.771   2.954   7.548  0.3281  0.4976  0.2023
   92MOL   N14618528   2.733   3.075   7.617  0.5531  0.2115 -0.0715
   92MOL   H14718529   2.712   2.742   7.505 -2.0211 -0.8999 -1.7304
   92MOL   H14818530   2.623   2.818   7.623  0.1433  2.0822  0.4518
   92MOL   H14918531   2.836   2.896   7.612 -0.2209 -1.1588 -0.7044
   92MOL   H15018532   2.836   2.967   7.461  2.6513 -1.7071  1.5682
   92MOL   H15118533   2.686   3.143   7.559  2.1627  1.0227 -0.4454
   92MOL   C15218534   2.761   3.112   7.740  0.9156  0.0086 -0.3059
   92MOL   O15318535   2.812   3.038   0.041 -0.2497 -0.3657  0.4206
   92MOL   C15418536   2.722   3.252   7.779  0.7963 -0.0580  0.6011
   92MOL   C15518537   2.802   3.313   0.114  0.6706  0.1658 -0.8073
   92MOL   N15618538   2.871   3.439   0.076  0.3097 -0.3221 -0.2372
   92MOL   H15718539   2.615   3.249   0.019  0.4934  0.5403 -0.8609
   92MOL   H15818540   2.729   3.317   7.691  0.4237 -1.5828 -0.5855
   92MOL   H15918541   2.735   3.335   0.197  0.5171 -2.4484 -0.2134
   92MOL   H16018542   2.880   3.243   0.145  0.4653  0.7444  1.1105
   92MOL   H16118543   2.854   3.518   0.136 -1.7703 -1.6827  1.0216
   92MOL   C16218544   2.953   3.454   7.754 -0.3956  0.9080  0.3535
   92MOL   O16318545   2.972   3.366   7.672  0.2238 -0.1668  0.1081
   92MOL   C16418546   3.014   3.596   7.737 -0.0130  0.8480  0.6689
   92MOL   C16518547   3.055   3.645   7.595 -0.6267 -0.7023  0.7370
   92MOL   N16618548   3.119   3.777   7.598 -0.2694  1.1724 -0.0765
   92MOL   H16718549   3.105   3.580   0.015  0.0828 -0.1239  0.2630
   92MOL   H16818550   2.958   3.671   0.012  1.4225  0.4623  2.7179
   92MOL   H16918551   3.107   3.564   7.543 -1.6985 -1.4854  0.8625
   92MOL   H17018552   2.963   3.664   7.539 -0.7901 -1.4660  0.7370
   92MOL   H17118553   3.129   3.817   7.690  0.6992 -0.1310  0.4007
   92MOL   C17218554   3.173   3.848   7.501 -0.0602 -0.0760  0.7883
   92MOL   O17318555   3.185   3.802   7.385 -0.1388  0.2341  0.2674
   92MOL   C17418556   3.238   3.979   7.546 -0.0547 -0.2810  0.4252
   92MOL   C17518557   3.339   3.968   7.653 -0.3167  0.1553 -0.1568
   92MOL   N17618558   3.292   3.967   0.013  0.5261 -0.3539 -0.4396
   92MOL   H17718559   3.165   4.060   7.557 -1.1732 -1.0414 -1.2588
   92MOL   H17818560   3.302   4.010   7.463  1.0679  0.8237  1.6726
   92MOL   H17918561   3.402   3.880   7.639 -1.2857 -0.6893  0.7029
   92MOL   H18018562   3.414   4.046   7.643 -2.0824  2.1687  1.6286
   92MOL   H18118563   3.202   4.001   0.044  1.4552 -0.0202  1.9661
   92MOL   C18218564   3.383   3.962   0.122  0.0187 -0.5994 -0.7391
   92MOL   O18318565   3.508   3.943   0.109  0.1498  0.0270  0.2803
   92MOL   C18418566   3.342   3.974   0.269  0.1773 -0.6738 -0.8107
   92MOL   C18518567   3.416   4.075   0.347 -0.6604  0.1535  0.3499
   92MOL   N18618568   3.346   4.124   0.466  0.0112 -0.0277  0.7339
   92MOL   H18718569   3.347   3.874   0.312  2.1706 -0.6012 -0.8264
   92MOL   H18818570   3.235   3.997   0.263 -0.1773 -1.9519  0.3847
   92MOL   H18918571   3.506   4.025   0.383  1.7051  3.0530 -1.3206
   92MOL   H19018572   3.449   4.168   0.300 -2.4006  0.1718 -0.8942
   92MOL   H19118573   3.246   4.135   0.457 -0.3906 -2.1398  2.2644
   92MOL   C19218574   3.403   4.168   0.577  0.5608 -0.5646  0.2023
   92MOL   O19318575   3.524   4.163   0.598 -0.3292  0.3634 -0.1150
   92MOL   C19418576   3.308   4.213   0.682 -1.0545 -0.2886 -0.1614
   92MOL   C19518577   3.285   4.368   0.690  0.2400 -0.5256  0.2602
   92MOL   N19618578   3.402   4.444   0.733 -0.3410 -0.4999  0.2903
   92MOL   H19718579   3.207   4.173   0.669  0.2761 -2.8120 -3.3408
   92MOL   H19818580   3.338   4.166   0.776  0.2951  0.2957 -0.2950
   92MOL   H19918581   3.261   4.405   0.591 -1.0643 -0.4382  0.6018
   92MOL   H20018582   3.206   4.403   0.757 -0.0293  1.8143 -1.2311
   92MOL   H20118583   3.475   4.426   0.665 -1.7782  0.6287 -1.5997
   92MOL   H20218584   3.388   4.544   0.725  4.2203  0.1282 -1.1876
   93MOL     C118585   2.265   2.815   2.969 -0.5233  0.2399 -0.1316
   93MOL     O218586   2.154   2.802   2.912 -0.1573 -0.1708 -0.1754
   93MOL     C318587   2.386   2.748   2.901 -0.1920  0.2101  0.5480
   93MOL     C418588   2.359   2.701   2.754  0.3950  0.6602  0.3246
   93MOL     N518589   2.349   2.807   2.651  0.0718 -0.2036 -0.0205
   93MOL     H618590   2.398   2.658   2.960 -0.9286 -0.8802 -0.9092
   93MOL     H718591   2.479   2.805   2.904  1.1530 -1.9542  0.5706
   93MOL     H818592   2.269   2.639   2.750  1.0447 -0.1595 -2.4555
   93MOL     H918593   2.448   2.644   2.727  1.5336  3.3515 -1.7994
   93MOL    H1018594   2.260   2.824   2.607 -0.5721  1.2603  1.7668
   93MOL    H1118595   2.286   2.857   3.067 -0.4671 -1.7421  0.7367
   93MOL    C1218596   2.457   2.885   2.618  0.2577  0.4162 -0.0409
   93MOL    O1318597   2.564   2.888   2.677  0.4462 -0.0651 -0.1084
   93MOL    C1418598   2.436   2.976   2.495 -0.1319 -0.8503  0.3663
   93MOL    C1518599   2.558   2.987   2.402  0.4064  0.7385  0.1176
   93MOL    N1618600   2.607   2.859   2.349  0.5067 -0.2707  0.3933
   93MOL    H1718601   2.411   3.077   2.529  2.8216  0.8947 -2.3321
   93MOL    H1818602   2.346   2.942   2.442  1.6852 -1.7451 -2.2271
   93MOL    H1918603   2.543   3.055   2.318 -0.4530  0.9186  0.4079
   93MOL    H2018604   2.633   3.044   2.456 -0.4303  1.1610  0.8422
   93MOL    H2118605   2.562   2.837   2.262 -1.2971  0.5201  1.1025
   93MOL    C2218606   2.712   2.783   2.389  0.6222 -0.7632  0.4473
   93MOL    O2318607   2.782   2.810   2.485  0.2633  0.4324  0.4742
   93MOL    C2418608   2.747   2.664   2.303 -0.4512 -0.7596 -0.4912
   93MOL    C2518609   2.709   2.535   2.376 -0.1797  0.1508  0.8904
   93MOL    N2618610   2.573   2.486   2.364 -0.8579  0.3247 -0.1556
   93MOL    H2718611   2.855   2.674   2.289 -0.2535  1.3912  2.0562
   93MOL    H2818612   2.694   2.672   2.209  0.1348 -0.9991 -0.8429
   93MOL    H2918613   2.769   2.457   2.330 -1.2457 -0.8143  1.1396
   93MOL    H3018614   2.742   2.551   2.479  0.3429 -2.6834  1.1918
   93MOL    H3118615   2.535   2.476   2.270  1.4842  1.6344 -1.2838
   93MOL    C3218616   2.494   2.432   2.459 -0.3488 -0.4228  0.6895
   93MOL    O3318617   2.531   2.428   2.577 -0.2232  0.2520  0.4360
   93MOL    C3418618   2.358   2.374   2.425  0.0780 -0.2357  0.1559
   93MOL    C3518619   2.252   2.426   2.522 -0.0632  0.0939  0.7497
   93MOL    N3618620   2.269   2.393   2.661 -0.0706  0.5979  0.1466
   93MOL    H3718621   2.357   2.265   2.420  2.8016 -0.1853 -2.7578
   93MOL    H3818622   2.327   2.397   2.323 -2.9839 -0.7022  0.9125
   93MOL    H3918623   2.232   2.532   2.510 -0.5009 -0.1619 -0.9390
   93MOL    H4018624   2.163   2.374   2.484 -0.7075  0.4311  1.7741
   93MOL    H4118625   2.366   2.382   2.686 -0.0449  0.9295  0.2024
   93MOL    C4218626   2.169   2.396   2.753  0.0451 -0.5340 -0.1605
   93MOL    O4318627   2.053   2.417   2.721 -0.0271 -0.1091 -0.1158
   93MOL    C4418628   2.197   2.376   2.904  0.1242 -0.8931  0.0310
   93MOL    C4518629   2.072   2.348   2.990 -0.2395  0.1733  0.2125
   93MOL    N4618630   2.008   2.219   2.953  0.2362 -0.1590  0.2272
   93MOL    H4718631   2.265   2.291   2.910  0.8181 -0.4251 -0.8916
   93MOL    H4818632   2.266   2.449   2.947  0.7462 -1.9161  0.7955
   93MOL    H4918633   2.088   2.341   3.097 -2.6026 -2.1303  0.4798
   93MOL    H5018634   1.992   2.422   2.979 -1.0981 -0.8682 -0.6971
   93MOL    H5118635   1.910   2.219   2.931  0.0983  0.2052  0.8338
   93MOL    C5218636   2.064   2.095   2.968 -0.2532  0.2606  0.5895
   93MOL    O5318637   2.183   2.068   2.997 -0.2726  0.0452  0.0193
   93MOL    C5418638   1.968   1.980   2.941 -0.1320 -0.3645 -0.2093
   93MOL    C5518639   1.985   1.853   3.033  0.2363 -0.3545  0.3369
   93MOL    N5618640   1.917   1.886   3.157  0.3739 -0.3706 -0.2040
   93MOL    H5718641   1.865   2.015   2.939  0.1995  0.8858  2.3357
   93MOL    H5818642   1.983   1.944   2.839  2.1318 -2.7056  0.8973
   93MOL    H5918643   2.091   1.837   3.054  0.0805 -0.3096  1.1728
   93MOL    H6018644   1.944   1.760   2.992 -1.5632  1.2999 -1.6908
   93MOL    H6118645   1.868   1.974   3.164  1.8033  0.5433 -1.4022
   93MOL    C6218646   1.915   1.811   3.263  0.2501 -0.4657  0.7535
   93MOL    O6318647   1.985   1.711   3.266  0.1815  0.7708 -0.1672
   93MOL    C6418648   1.825   1.843   3.386  0.2213 -0.1122 -0.3012
   93MOL    C6518649   1.762   1.721   3.462  0.4225 -0.6421 -0.6101
   93MOL    N6618650   1.652   1.663   3.394  0.1402 -0.0261 -0.0207
   93MOL    H6718651   1.888   1.894   3.458 -1.6040 -0.6098  1.6878
   93MOL    H6818652   1.750   1.911   3.345  0.0228  0.4260  0.9503
   93MOL    H6918653   1.838   1.650   3.494 -1.1373 -1.6729  0.9097
   93MOL    H7018654   1.726   1.747   3.562 -0.3164 -3.6346 -0.0440
   93MOL    H7118655   1.650   1.566   3.366 -0.5315 -0.2456  0.7530
   93MOL    C7218656   1.531   1.728   3.391 -0.0160 -0.0817  0.2604
   93MOL    O7318657   1.506   1.845   3.427  0.0749 -0.6148  0.4263
   93MOL    C7418658   1.416   1.648   3.330  0.1510  0.3985 -0.3114
   93MOL    C7518659   1.285   1.658   3.406  0.0944  0.1059 -0.3448
   93MOL    N7618660   1.283   1.560   3.522  0.5163 -0.1725  0.2974
   93MOL    H7718661   1.405   1.700   3.235  0.8427  2.9820  0.9570
   93MOL    H7818662   1.448   1.550   3.296 -0.8864 -0.0171 -0.1051
   93MOL    H7918663   1.276   1.759   3.445 -0.5244 -0.8380  2.0949
   93MOL    H8018664   1.200   1.646   3.340  0.8453 -2.2869 -0.9352
   93MOL    H8118665   1.259   1.604   3.610  2.9019  0.1528  0.8244
   93MOL    C8218666   1.274   1.427   3.512  0.0964 -0.7301  0.1454
   93MOL    O8318667   1.279   1.362   3.400  0.1486 -0.2778 -0.8894
   93MOL    C8418668   1.255   1.347   3.642 -0.1196  0.2008 -0.1615
   93MOL    C8518669   1.359   1.234   3.653 -0.4357  0.2037  0.5213
   93MOL    N8618670   1.297   1.102   3.628  0.2401  0.0043  0.3742
   93MOL    H8718671   1.279   1.414   3.725 -1.0875 -1.4459  1.4766
   93MOL    H8818672   1.151   1.318   3.657 -1.0953  2.1012 -2.7683
   93MOL    H8918673   1.448   1.256   3.592  0.1136 -3.2568  0.0071
   93MOL    H9018674   1.391   1.224   3.756 -1.2091 -0.0218  0.7334
   93MOL    H9118675   1.198   1.090   3.647  0.1663 -1.4759 -0.9023
   93MOL    C9218676   1.355   0.996   3.559 -0.1204 -0.3033 -0.1070
   93MOL    O9318677   1.470   0.995   3.529 -0.0257 -0.1471 -0.5059
   93MOL    C9418678   1.263   0.885   3.504 -0.2021  0.7704  0.4338
   93MOL    C9518679   1.344   0.762   3.454  0.0822 -0.5948  0.0917
   93MOL    N9618680   1.376   0.668   3.554  0.4268  0.4026 -0.0656
   93MOL    H9718681   1.199   0.855   3.587 -2.3984 -2.1135 -2.2200
   93MOL    H9818682   1.198   0.938   3.434  0.0890 -0.5514 -0.8587
   93MOL    H9918683   1.278   0.708   3.386 -0.2413  0.7641 -0.6926
   93MOL   H10018684   1.424   0.803   3.393  0.3130 -1.0734  0.0700
   93MOL   H10118685   1.310   0.655   3.630  0.3052  0.4500 -0.1638
   93MOL   C10218686   1.475   0.581   3.532  0.0080  1.0081  0.3740
   93MOL   O10318687   1.561   0.597   3.447 -0.7324  0.4644  0.3781
   93MOL   C10418688   1.484   0.464   3.627 -0.0153 -1.1776 -0.5691
   93MOL   C10518689   1.539   0.336   3.566  0.3135 -0.4755  0.6387
   93MOL   N10618690   1.440   0.274   3.478 -0.0789 -0.3461  0.5454
   93MOL   H10718691   1.396   0.441   3.687  0.3625  0.7466  0.7614
   93MOL   H10818692   1.554   0.507   3.698  2.8372 -3.2985 -2.0054
   93MOL   H10918693   1.633   0.353   3.514  1.0393 -0.1976  2.0074
   93MOL   H11018694   1.564   0.260   3.640  0.7686 -0.2300  0.7371
   93MOL   H11118695   1.344   0.301   3.495  0.3285  0.1010  2.2294
   93MOL   C11218696   1.473   0.156   3.425 -0.0673 -0.6373 -0.6077
   93MOL   O11318697   1.588   0.110   3.434 -0.1741 -0.0839 -0.0781
   93MOL   C11418698   1.353   0.067   3.387  0.2627  0.7734  0.0995
   93MOL   C11518699   1.377   7.760   3.261 -0.1803 -0.0931  0.1493
   93MOL   N11618700   1.386   0.063   3.139 -0.1931  0.8514 -0.2484
   93MOL   H11718701   1.257   0.118   3.390  0.1790  0.5420  1.5626
   93MOL   H11818702   1.342   7.767   3.460 -0.5332 -0.5801 -1.4761
   93MOL   H11918703   1.475   7.712   3.256 -0.2992 -0.2256 -1.2377
   93MOL   H12018704   1.293   7.690   3.249  0.9579 -1.5216  0.3818
   93MOL   H12118705   1.401   0.163   3.151 -1.2248  0.8648  0.9550
   93MOL   C12218706   1.372   0.011   3.017  0.0893 -0.7510  0.8154
   93MOL   O12318707   1.359   7.671   3.004  0.5159  0.8913  0.2081
   93MOL   C12418708   1.372   0.097   2.894  0.1947 -0.1597 -0.4591
   93MOL   C12518709   1.503   0.072   2.812  0.2390  0.0688 -0.5476
   93MOL   N12618710   1.599   0.170   2.836 -0.0391  0.5427  0.0710
   93MOL   H12718711   1.354   0.201   2.920  1.0898 -0.5204  1.6527
   93MOL   H12818712   1.287   0.065   2.833 -1.2048  3.7642 -0.6737
   93MOL   H12918713   1.534   7.748   2.810 -0.9586 -0.2791 -2.4652
   93MOL   H13018714   1.470   0.075   2.708 -2.2417  1.2154  0.2182
   93MOL   H13118715   1.578   0.236   2.909 -0.0878 -1.1037  1.5590
   93MOL   C13218716   1.717   0.176   2.779  0.5625 -0.2779 -0.1895
   93MOL   O13318717   1.750   0.106   2.684 -0.6916  0.4686  0.0363
   93MOL   C13418718   1.818   0.280   2.835 -0.4275  0.5931 -0.0985
   93MOL   C13518719   1.931   0.310   2.734 -0.2433 -0.1862  0.7622
   93MOL   N13618720   2.001   0.435   2.759  0.6784 -0.4674  0.2590
   93MOL   H13718721   1.855   0.241   2.930 -1.4699  1.3621  0.6400
   93MOL   H13818722   1.763   0.370   2.863 -0.2320  0.7142 -0.1027
   93MOL   H13918723   1.995   0.223   2.719  0.3066  0.5224 -1.1754
   93MOL   H14018724   1.890   0.324   2.634 -2.9037  0.9741  1.9784
   93MOL   H14118725   1.964   0.516   2.712  2.2570 -0.1293 -0.4390
   93MOL   C14218726   2.131   0.436   2.780  0.1950  0.1063  0.4140
   93MOL   O14318727   2.193   0.336   2.816 -0.0597 -0.6209  0.0590
   93MOL   C14418728   2.201   0.572   2.761  0.1565 -0.3390 -0.6948
   93MOL   C14518729   2.188   0.652   2.894  0.0005  1.1850  0.1768
   93MOL   N14618730   2.222   0.788   2.877  0.1509  0.0800  0.4970
   93MOL   H14718731   2.169   0.613   2.666  0.4691 -0.0970 -0.6979
   93MOL   H14818732   2.306   0.547   2.743  0.0837 -1.2026  0.0156
   93MOL   H14918733   2.090   0.654   2.942  0.0334  0.7809  0.2596
   93MOL   H15018734   2.247   0.603   2.971  2.6405  2.2115 -1.1314
   93MOL   H15118735   2.224   0.816   2.780  0.9513  1.3864  0.8929
   93MOL   C15218736   2.201   0.877   2.977  0.4003  0.0442  0.4275
   93MOL   O15318737   2.177   0.854   3.096  0.4566 -0.2460 -0.4506
   93MOL   C15418738   2.192   1.026   2.938 -0.2067 -0.3704 -0.4823
   93MOL   C15518739   2.088   1.110   3.017  0.1790 -0.0567 -0.4148
   93MOL   N15618740   2.058   1.240   2.960  0.0192 -0.3240  0.1728
   93MOL   H15718741   2.176   1.039   2.831 -5.3060  1.7008  0.3575
   93MOL   H15818742   2.292   1.067   2.951 -0.7790  0.7353  0.5350
   93MOL   H15918743   1.993   1.060   2.999  0.0275  0.0544  0.0864
   93MOL   H16018744   2.115   1.114   3.123  2.3306 -1.4606 -0.8587
   93MOL   H16118745   2.024   1.239   2.864  0.4200  1.0110  0.0103
   93MOL   C16218746   2.076   1.358   3.019 -0.7533 -0.2039 -0.1147
   93MOL   O16318747   2.136   1.375   3.124  0.2102  0.5077  0.7360
   93MOL   C16418748   1.987   1.479   2.970  0.0188 -0.2858 -0.4789
   93MOL   C16518749   1.864   1.497   3.055 -0.2447  0.1881 -0.2636
   93MOL   N16618750   1.771   1.388   3.039 -0.2890 -0.2926  0.3180
   93MOL   H16718751   1.963   1.477   2.864 -1.7748  0.2275 -0.0936
   93MOL   H16818752   2.049   1.566   2.991  0.6619 -0.7786 -0.3120
   93MOL   H16918753   1.886   1.505   3.161 -3.8235  0.0607  0.5367
   93MOL   H17018754   1.820   1.596   3.045  0.0229  0.3778  0.4182
   93MOL   H17118755   1.779   1.329   2.957 -0.7054  0.8470 -0.5513
   93MOL   C17218756   1.667   1.356   3.118  0.0429  0.2738 -0.0431
   93MOL   O17318757   1.638   1.417   3.223 -0.0989  0.1189 -0.3144
   93MOL   C17418758   1.579   1.241   3.069 -0.3488  0.1030  0.5076
   93MOL   C17518759   1.482   1.170   3.164 -0.4219 -0.8684 -0.3535
   93MOL   N17618760   1.552   1.078   3.253  0.6562 -0.6226  0.7013
   93MOL   H17718761   1.657   1.170   3.041 -0.0815  0.7859 -0.4743
   93MOL   H17818762   1.524   1.282   2.985  0.5539  0.3425  0.0359
   93MOL   H17918763   1.419   1.245   3.211 -0.9487 -0.8788 -1.0301
   93MOL   H18018764   1.413   1.127   3.091 -1.3032  1.7862 -1.1831
   93MOL   H18118765   1.566   1.103   3.350 -0.5199  0.4330  0.6044
   93MOL   C18218766   1.628   0.972   3.207  0.2363  0.4769 -0.0032
   93MOL   O18318767   1.615   0.922   3.095 -0.3475 -0.5324 -0.0530
   93MOL   C18418768   1.735   0.918   3.305  0.2108 -0.3442 -0.2359
   93MOL   C18518769   1.875   0.970   3.281  0.3989 -0.0196 -0.4942
   93MOL   N18618770   1.882   1.111   3.310  0.4812 -0.2084 -0.3883
   93MOL   H18718771   1.733   0.813   3.279 -0.5262  0.1102 -2.0693
   93MOL   H18818772   1.711   0.951   3.407 -1.2036  0.5368 -0.8402
   93MOL   H18918773   1.949   0.910   3.334  0.4085  1.6585  1.4642
   93MOL   H19018774   1.899   0.953   3.176  0.1818 -0.6989 -0.4375
   93MOL   H19118775   1.850   1.173   3.236  1.6200 -2.0454 -2.4555
   93MOL   C19218776   1.936   1.155   3.427 -0.4542 -0.1217 -0.3225
   93MOL   O19318777   1.965   1.080   3.516 -0.1081  0.0241  0.3062
   93MOL   C19418778   1.934   1.309   3.452  0.3087 -0.2296  0.1318
   93MOL   C19518779   2.074   1.365   3.476 -1.0169 -0.7929  0.1009
   93MOL   N19618780   2.067   1.508   3.496 -0.0299  0.0824 -0.3390
   93MOL   H19718781   1.886   1.357   3.366 -2.0375 -1.0139  0.9919
   93MOL   H19818782   1.875   1.318   3.543 -1.1627  1.7545 -0.9765
   93MOL   H19918783   2.099   1.328   3.576  1.2261  1.2034  0.3308
   93MOL   H20018784   2.144   1.327   3.402 -0.5993  1.6393 -0.8187
   93MOL   H20118785   2.043   1.561   3.413 -1.1204  1.1124  0.6325
   93MOL   H20218786   1.981   1.513   3.548  0.5449 -0.3353  0.6588
   94MOL     C118787   7.028   3.359   3.931  0.7555 -0.0033 -0.2308
   94MOL     O218788   7.084   3.380   3.820  0.2765  0.5007  0.1120
   94MOL     C318789   6.928   3.456   3.979 -0.4939  0.4119  0.0793
   94MOL     C418790   6.945   3.597   3.919 -0.6225  0.5834  0.5178
   94MOL     N518791   6.873   3.698   3.996 -0.8732  0.7809 -0.4736
   94MOL     H618792   6.928   3.469   4.087  1.0077  1.2232 -0.0133
   94MOL     H718793   6.830   3.412   3.960  0.2672 -0.8452 -1.0170
   94MOL     H818794   6.918   3.603   3.814  1.0399 -0.9773 -0.0349
   94MOL     H918795   7.053   3.612   3.929 -0.1377 -2.6876  0.9768
   94MOL    H1018796   6.781   3.665   4.023  0.3018 -1.1129  1.3964
   94MOL    H1118797   7.040   3.271   3.994  1.8611 -0.9608 -1.7179
   94MOL    C1218798   6.918   3.824   4.014  0.6383 -0.7914  0.4152
   94MOL    O1318799   7.027   3.860   3.961 -0.2544  0.0553 -0.8432
   94MOL    C1418800   6.826   3.926   4.080  0.5745  0.2533 -0.0654
   94MOL    C1518801   6.761   4.035   3.981 -0.2705  0.0784  0.4259
   94MOL    N1618802   6.865   4.110   3.904 -0.3811  0.5396 -0.0117
   94MOL    H1718803   6.876   3.982   4.158  0.4957  1.5819 -0.9520
   94MOL    H1818804   6.748   3.875   4.137 -0.1045 -0.4358 -1.5532
   94MOL    H1918805   6.702   3.987   3.904 -0.0040 -0.0690  0.3109
   94MOL    H2018806   6.688   4.099   4.031  0.9518  2.7972 -1.1638
   94MOL    H2118807   6.956   4.070   3.886 -0.9721  0.3301 -2.6636
   94MOL    C2218808   6.849   4.222   3.840 -0.1464  0.1958  0.5160
   94MOL    O2318809   6.750   4.287   3.839  0.0128 -0.5683  0.2727
   94MOL    C2418810   6.968   4.271   3.755  0.0106 -0.3024  0.1841
   94MOL    C2518811   7.028   4.405   3.813 -0.4469 -0.5918  0.3290
   94MOL    N2618812   7.138   4.443   3.729 -0.4754 -0.2557 -0.7731
   94MOL    H2718813   6.940   4.285   3.651  1.1983 -1.2763 -0.2843
   94MOL    H2818814   7.029   4.181   3.764  1.1301  0.5845  1.9684
   94MOL    H2918815   6.947   4.476   3.794 -0.5422 -1.2813 -2.0174
   94MOL    H3018816   7.052   4.411   3.919 -1.7406  2.2787  0.5174
   94MOL    H3118817   7.120   4.434   3.631  1.1083 -0.7499 -1.0454
   94MOL    C3218818   7.263   4.468   3.778  0.4059  0.4884 -0.8477
   94MOL    O3318819   7.314   4.435   3.886 -0.0277  0.0290  0.2850
   94MOL    C3418820   7.358   4.561   3.684  0.3988  0.2663  0.3915
   94MOL    C3518821   7.429   4.673   3.747 -0.0195 -0.0352 -0.2897
   94MOL    N3618822   7.554   4.635   3.817 -0.3637  0.3466  0.1155
   94MOL    H3718823   7.292   4.599   3.607 -1.5870 -0.7717  1.5445
   94MOL    H3818824   7.422   4.500   3.621 -1.4691 -1.1878 -0.1471
   94MOL    H3918825   7.446   4.736   3.660 -0.9009 -1.8010 -1.7628
   94MOL    H4018826   7.372   4.731   3.819 -0.6023 -0.6305 -0.2724
   94MOL    H4118827   7.544   4.626   3.917 -1.6309 -1.0037 -0.1203
   94MOL    C4218828   7.673   4.617   3.764  0.1640 -0.5197  0.3259
   94MOL    O4318829   7.697   4.629   3.645  0.7084 -0.1905 -0.1937
   94MOL    C4418830   0.014   4.593   3.859 -0.0170  0.2198  0.0991
   94MOL    C4518831   0.145   4.559   3.786 -0.9067  0.0824 -1.1665
   94MOL    N4618832   0.252   4.549   3.883 -0.0943  0.1927 -0.0712
   94MOL    H4718833   0.017   4.680   3.925  0.8300  0.6567 -0.4962
   94MOL    H4818834   7.774   4.502   3.915 -2.3845 -0.5356 -1.8929
   94MOL    H4918835   0.127   4.473   3.722 -0.6385 -0.6371 -0.2906
   94MOL    H5018836   0.158   4.647   3.723 -2.2215  2.3124  1.5546
   94MOL    H5118837   0.228   4.570   3.979 -1.1359  1.6816 -0.6553
   94MOL    C5218838   0.363   4.485   3.866  0.9169  0.1639  0.1730
   94MOL    O5318839   0.389   4.428   3.755 -0.2024  0.2411 -0.2415
   94MOL    C5418840   0.454   4.464   3.986  0.0961  0.5438  0.2633
   94MOL    C5518841   0.598   4.518   3.976  0.7832  0.4662  0.3251
   94MOL    N5618842   0.610   4.661   3.995  0.8086 -0.0696 -0.2777
   94MOL    H5718843   0.408   4.500   4.079  0.1862  0.0984  0.4807
   94MOL    H5818844   0.457   4.357   4.004 -3.1619  0.5047  0.9336
   94MOL    H5918845   0.628   4.500   3.873 -3.6003 -2.7155 -0.5241
   94MOL    H6018846   0.670   4.456   4.029  0.0685 -0.8365 -0.1972
   94MOL    H6118847   0.603   4.725   3.918 -1.0187  0.6303  0.4331
   94MOL    C6218848   0.601   4.721   4.116 -0.3277 -0.6461 -0.9818
   94MOL    O6318849   0.591   4.662   4.222  0.5024  0.0653  0.0980
   94MOL    C6418850   0.598   4.875   4.116  0.6439  0.4032 -0.0462
   94MOL    C6518851   0.455   4.929   4.088 -0.8406 -0.1301 -0.1770
   94MOL    N6618852   0.427   4.952   3.948 -0.2273 -0.3646 -0.2030
   94MOL    H6718853   0.637   4.926   4.204  0.8177  1.0886 -0.5120
   94MOL    H6818854   0.665   4.906   4.035 -0.7103  0.2506 -1.2552
   94MOL    H6918855   0.386   4.849   4.115 -0.4576  0.0197  1.3197
   94MOL    H7018856   0.435   5.023   4.140  0.8518  0.2856 -0.2688
   94MOL    H7118857   0.507   4.953   3.886  1.5240 -1.4688  2.0073
   94MOL    C7218858   0.303   4.937   3.902 -0.8688 -0.8558  0.4293
   94MOL    O7318859   0.207   4.906   3.972 -0.3288 -0.3288  0.0847
   94MOL    C7418860   0.281   4.970   3.749 -0.1045 -0.3209  0.9022
   94MOL    C7518861   0.132   4.989   3.714 -0.1424 -0.1512 -0.5581
   94MOL    N7618862   0.102   4.972   3.576  0.5216  0.4332  0.3531
   94MOL    H7718863   0.343   5.056   3.723 -0.8197  0.1178  0.6245
   94MOL    H7818864   0.317   4.882   3.694 -1.2658 -0.7309  0.7767
   94MOL    H7918865   0.073   4.915   3.768 -0.5189  0.7136  0.2271
   94MOL    H8018866   0.088   5.081   3.751  0.1299 -0.8852  1.6918
   94MOL    H8118867   0.167   4.910   3.530 -0.7021 -0.5249 -0.1029
   94MOL    C8218868   7.762   4.980   3.522 -0.5464 -0.3088 -0.1700
   94MOL    O8318869   7.672   5.039   3.583 -1.2389 -0.2753  0.0029
   94MOL    C8418870   7.741   4.896   3.394  0.6081 -0.1948 -0.2641
   94MOL    C8518871   7.596   4.850   3.362  0.7182  0.4549  0.1789
   94MOL    N8618872   7.495   4.951   3.352  0.3278  1.1687 -0.0587
   94MOL    H8718873   7.763   4.969   3.315 -2.8178  0.0555 -1.0727
   94MOL    H8818874   0.033   4.815   3.386 -0.1518 -0.7792 -1.2153
   94MOL    H8918875   7.590   4.801   3.264 -3.2204 -0.2007  0.6320
   94MOL    H9018876   7.570   4.768   3.429  3.4867 -0.8762 -0.3344
   94MOL    H9118877   7.425   4.947   3.424  0.2435  3.8813  0.0529
   94MOL    C9218878   7.486   5.052   3.260 -0.1853 -0.0002 -0.2376
   94MOL    O9318879   7.572   5.079   3.183  0.2951 -0.3889  0.5081
   94MOL    C9418880   7.365   5.143   3.281  0.0548 -0.2323  0.1424
   94MOL    C9518881   7.345   5.250   3.176 -1.0922  0.2083  0.6330
   94MOL    N9618882   7.217   5.315   3.184  0.1436  0.2955  0.3011
   94MOL    H9718883   7.280   5.076   3.264  0.2824 -0.7721  1.1347
   94MOL    H9818884   7.360   5.173   3.385 -1.3662 -1.5502  0.4753
   94MOL    H9918885   7.424   5.325   3.182 -0.4278 -0.1965 -2.5027
   94MOL   H10018886   7.368   5.198   3.083  0.3677  0.1266  1.0290
   94MOL   H10118887   7.216   5.410   3.218  0.0347 -0.6012  2.9239
   94MOL   C10218888   7.102   5.269   3.127  0.0852 -0.2817 -0.0582
   94MOL   O10318889   6.996   5.333   3.148 -0.8853  0.0902 -0.3815
   94MOL   C10418890   7.093   5.137   3.055 -0.8160 -0.3863 -0.4962
   94MOL   C10518891   6.949   5.094   3.024 -0.2583 -0.3383 -0.4495
   94MOL   N10618892   6.944   4.968   2.945  0.3360  0.5732 -0.2031
   94MOL   H10718893   7.125   5.062   3.127 -2.4668 -1.7028 -1.0889
   94MOL   H10818894   7.154   5.148   2.966 -1.0535 -1.7849 -0.8422
   94MOL   H10918895   6.890   5.082   3.115  1.5752  2.5137  1.1629
   94MOL   H11018896   6.900   5.167   2.960 -0.3638  0.4008  0.4641
   94MOL   H11118897   6.885   4.966   2.863  1.5655  0.3674 -1.0827
   94MOL   C11218898   7.021   4.861   2.958  0.2502  0.2067  0.1743
   94MOL   O11318899   7.092   4.838   3.053 -0.2285  0.6601 -0.3501
   94MOL   C11418900   7.028   4.762   2.844 -0.5577 -0.0900 -0.3534
   94MOL   C11518901   7.159   4.675   2.841  0.2492  0.1530  0.4312
   94MOL   N11618902   7.164   4.602   2.712  0.0454 -0.2322 -0.3509
   94MOL   H11718903   7.012   4.813   2.749 -0.6967 -0.2806 -0.4340
   94MOL   H11818904   6.939   4.699   2.851  0.8073 -2.1900 -1.3898
   94MOL   H11918905   7.241   4.747   2.848 -0.0942  0.7109 -1.2296
   94MOL   H12018906   7.150   4.609   2.927  1.7316 -1.5834 -0.6974
   94MOL   H12118907   7.078   4.586   2.662  0.9508 -0.6450 -1.8011
   94MOL   C12218908   7.271   4.546   2.650  0.1125  0.3199  0.2309
   94MOL   O12318909   7.383   4.556   2.695 -0.3906 -0.3356  0.4284
   94MOL   C12418910   7.257   4.476   2.518 -0.0811 -0.1006 -0.9213
   94MOL   C12518911   7.359   4.357   2.500 -0.2318  0.3913 -0.6373
   94MOL   N12618912   7.325   4.283   2.385  0.2677  0.0095  0.4548
   94MOL   H12718913   7.253   4.543   2.432 -1.7512 -0.4603 -1.1428
   94MOL   H12818914   7.166   4.415   2.513 -2.1349  2.9085 -1.1679
   94MOL   H12918915   7.456   4.407   2.492 -0.6275  1.1355 -0.8159
   94MOL   H13018916   7.381   4.296   2.588  0.8873  0.5205 -0.8143
   94MOL   H13118917   7.288   4.333   2.305 -1.0095 -1.3758  0.1583
   94MOL   C13218918   7.341   4.153   2.366  0.0312  0.4243 -0.1079
   94MOL   O13318919   7.387   4.083   2.457 -0.5090  0.4348  0.3754
   94MOL   C13418920   7.302   4.093   2.236  0.2995  0.4633  0.1480
   94MOL   C13518921   7.306   3.936   2.226  0.4949 -0.2452 -0.7635
   94MOL   N13618922   7.433   3.866   2.208 -0.1916 -0.3985 -0.6544
   94MOL   H13718923   7.365   4.130   2.155  1.3564  1.2547  1.3171
   94MOL   H13818924   7.200   4.127   2.218  0.2734  0.3349  0.0548
   94MOL   H13918925   7.258   3.900   2.317  3.7871  0.0485  1.1288
   94MOL   H14018926   7.229   3.913   2.151  0.0538 -1.9329  0.2005
   94MOL   H14118927   7.448   3.788   2.270 -0.7698 -0.1963 -0.2613
   94MOL   C14218928   7.503   3.853   2.094  0.5501 -0.1996  0.6666
   94MOL   O14318929   7.472   3.912   1.992  0.7498  0.0671 -0.7543
   94MOL   C14418930   7.618   3.751   2.095  0.6013  0.1133 -0.1510
   94MOL   C14518931   7.711   3.754   1.975 -0.4169  0.0593 -0.5850
   94MOL   N14618932   7.650   3.706   1.850 -0.7942 -0.0086 -0.0261
   94MOL   H14718933   7.577   3.651   2.110 -0.4087  0.3285 -1.4139
   94MOL   H14818934   7.677   3.762   2.186 -0.3197 -0.5277  0.5297
   94MOL   H14918935   7.763   3.849   1.966 -1.2306  0.4034 -1.8446
   94MOL   H15018936   0.008   3.679   1.990  0.1314  0.6889 -0.2366
   94MOL   H15118937   7.591   3.776   1.807 -1.8337 -0.5799  0.4674
   94MOL   C15218938   7.657   3.583   1.802  0.2331  0.4074  0.3906
   94MOL   O15318939   7.736   3.497   1.850  0.3518  0.1886  0.0778
   94MOL   C15418940   7.598   3.545   1.660  0.3257 -0.5007  0.1508
   94MOL   C15518941   7.676   3.430   1.589 -0.7093  0.1043  0.2176
   94MOL   N15618942   0.031   3.468   1.558  0.0293 -0.4233  0.1498
   94MOL   H15718943   7.596   3.637   1.600  1.1075 -0.0164  0.8429
   94MOL   H15818944   7.504   3.500   1.690 -0.3369 -0.0496 -1.1967
   94MOL   H15918945   7.677   3.341   1.652  1.2090  1.1851  1.7661
   94MOL   H16018946   7.623   3.411   1.496  2.2156  0.8565 -1.6524
   94MOL   H16118947   0.089   3.459   1.640 -0.4866  2.6250  0.8962
   94MOL   C16218948   0.085   3.477   1.432 -0.3019 -0.1745  0.5886
   94MOL   O16318949   0.020   3.461   1.335 -0.4971 -0.7829 -0.4305
   94MOL   C16418950   0.236   3.484   1.427  0.0077 -0.6366 -0.2815
   94MOL   C16518951   0.300   3.598   1.346 -0.9254 -0.3733 -0.2503
   94MOL   N16618952   0.445   3.575   1.313 -0.4432 -0.3910  0.0910
   94MOL   H16718953   0.262   3.388   1.383 -0.9786 -0.5568 -1.0679
   94MOL   H16818954   0.279   3.485   1.527 -1.3692  0.0628  0.3109
   94MOL   H16918955   0.252   3.604   1.248  1.4907  0.2200 -1.4439
   94MOL   H17018956   0.280   3.697   1.388  1.5823 -0.5009  1.3438
   94MOL   H17118957   0.486   3.498   1.362 -1.5047 -1.5849 -0.8444
   94MOL   C17218958   0.520   3.643   1.217  0.5306 -0.4009 -0.3441
   94MOL   O17318959   0.473   3.736   1.150  0.0454  0.8487 -0.1080
   94MOL   C17418960   0.665   3.604   1.206  0.0077 -0.2602  0.4713
   94MOL   C17518961   0.763   3.715   1.194 -0.8242  0.4922  1.1383
   94MOL   N17618962   0.900   3.667   1.166  0.1469  0.5065  0.4356
   94MOL   H17718963   0.661   3.536   1.121  3.1925 -1.2227  1.0307
   94MOL   H17818964   0.688   3.547   1.296 -0.3207  0.1510  0.8201
   94MOL   H17918965   0.735   3.789   1.119 -1.0860  0.4496  1.1965
   94MOL   H18018966   0.774   3.767   1.289 -1.4561 -0.4993  1.7481
   94MOL   H18118967   0.941   3.591   1.219  1.3855  0.6717 -0.2805
   94MOL   C18218968   0.981   3.723   1.079  0.2467  0.1969  0.3572
   94MOL   O18318969   0.941   3.820   1.008 -0.2105 -0.1548  0.5628
   94MOL   C18418970   1.124   3.667   1.073  0.2343  0.8325  0.1967
   94MOL   C18518971   1.226   3.757   1.121 -0.7495 -0.2689 -0.0744
   94MOL   N18618972   1.237   3.769   1.269  0.6337 -0.9264 -0.2392
   94MOL   H18718973   1.141   3.631   0.971  1.4289 -0.5177  0.8578
   94MOL   H18818974   1.123   3.577   1.134  1.4658  0.4435 -0.3265
   94MOL   H18918975   1.322   3.729   1.077  0.5553  1.0710  1.8422
   94MOL   H19018976   1.207   3.861   1.093  1.5875 -0.1098 -1.1817
   94MOL   H19118977   1.154   3.799   1.319  1.2280 -0.3706  0.4265
   94MOL   C19218978   1.334   3.733   1.347  0.5281  0.0916 -0.2568
   94MOL   O19318979   1.423   3.654   1.316  0.6374 -0.1814  0.0626
   94MOL   C19418980   1.347   3.793   1.490 -0.6982 -0.0460 -0.5942
   94MOL   C19518981   1.321   3.694   1.603 -0.0725 -0.3739 -0.7840
   94MOL   N19618982   1.176   3.661   1.614 -0.2390  0.1349 -0.2816
   94MOL   H19718983   1.449   3.828   1.497 -0.6280 -0.4232  0.4182
   94MOL   H19818984   1.284   3.880   1.508 -0.1898 -0.2521  2.5494
   94MOL   H19918985   1.376   3.602   1.584 -0.0477 -0.6944  0.7857
   94MOL   H20018986   1.357   3.738   1.696  0.0392 -3.0355  0.4610
   94MOL   H20118987   1.146   3.645   1.709 -0.3510  1.1839 -0.1284
   94MOL   H20218988   1.161   3.572   1.569  0.7297  0.6732 -1.6984
   95MOL     C118989   1.510   6.143   5.717 -0.1900  0.1635  0.4420
   95MOL     O218990   1.567   6.164   5.607  0.8338 -0.3632  0.3617
   95MOL     C318991   1.452   6.246   5.810  0.0680  0.5956 -0.0758
   95MOL     C418992   1.508   6.388   5.792 -0.0839  0.1681  0.6864
   95MOL     N518993   1.636   6.419   5.849  0.0233 -0.4957  0.1604
   95MOL     H618994   1.471   6.203   5.908 -1.3292 -0.8785 -0.4059
   95MOL     H718995   1.343   6.253   5.806 -0.2308 -2.4242  1.4245
   95MOL     H818996   1.431   6.453   5.834 -2.4515 -1.8695 -0.3194
   95MOL     H918997   1.526   6.399   5.685  0.2690 -0.0410  0.7259
   95MOL    H1018998   1.716   6.442   5.792 -0.8196 -0.1395 -0.9126
   95MOL    H1118999   1.514   6.039   5.748 -0.5221  0.0154 -0.0036
   95MOL    C1219000   1.662   6.436   5.976 -0.3587 -0.5370 -0.4502
   95MOL    O1319001   1.587   6.394   6.066 -0.2156 -0.2796 -0.6335
   95MOL    C1419002   1.799   6.495   6.014 -0.5022 -0.3408  0.3944
   95MOL    C1519003   1.882   6.419   6.121 -0.3463 -0.4962 -0.4666
   95MOL    N1619004   2.014   6.473   6.151 -0.4137 -0.3231 -0.2808
   95MOL    H1719005   1.772   6.585   6.069  1.6564  1.2121 -1.0468
   95MOL    H1819006   1.865   6.529   5.934  0.3134  0.0333  1.2191
   95MOL    H1919007   1.819   6.408   6.208  0.4214 -0.1960  0.1301
   95MOL    H2019008   1.901   6.324   6.072  0.7760  0.0108 -1.0350
   95MOL    H2119009   2.012   6.526   6.237  1.0264  2.2961 -1.8258
   95MOL    C2219010   2.122   6.466   6.072 -0.0153  0.6977 -0.5055
   95MOL    O2319011   2.115   6.404   5.961 -0.2379 -0.5020  0.3945
   95MOL    C2419012   2.252   6.525   6.127  0.3895  0.4603  0.4532
   95MOL    C2519013   2.337   6.606   6.024 -0.7145  0.1037 -0.0848
   95MOL    N2619014   2.349   6.748   6.042  0.5851 -0.3402 -0.3683
   95MOL    H2719015   2.324   6.457   6.174  1.1152 -0.5534 -2.0460
   95MOL    H2819016   2.218   6.587   6.211 -2.2960 -2.4216  1.5866
   95MOL    H2919017   2.437   6.564   6.030 -0.6162  0.4388  0.7601
   95MOL    H3019018   2.310   6.582   5.921 -1.8407 -0.3705  0.3149
   95MOL    H3119019   2.415   6.786   6.109  0.9493 -1.3571 -0.1363
   95MOL    C3219020   2.259   6.845   6.005 -0.0082  0.2354  0.7717
   95MOL    O3319021   2.162   6.815   5.932 -0.0214 -0.4662  0.1485
   95MOL    C3419022   2.299   6.987   6.047 -0.1066 -0.0046 -0.3699
   95MOL    C3519023   2.204   7.093   5.987  0.8484 -1.0065  0.0878
   95MOL    N3619024   2.234   7.224   6.042 -0.2124 -0.1443 -0.0861
   95MOL    H3719025   2.405   7.012   6.042 -0.3499  1.0900 -0.1396
   95MOL    H3819026   2.285   6.986   6.155  0.0493 -0.5465 -0.3555
   95MOL    H3919027   2.215   7.096   5.878 -0.1194  1.8461  0.0138
   95MOL    H4019028   2.102   7.065   6.011  0.7036  2.3259  3.7711
   95MOL    H4119029   2.313   7.267   5.997  0.0275 -0.7525 -0.2460
   95MOL    C4219030   2.187   7.280   6.157  0.5482 -0.2523  0.1291
   95MOL    O4319031   2.092   7.225   6.208 -0.4724  0.2592 -0.1070
   95MOL    C4419032   2.257   7.400   6.222 -0.2785  0.3239  0.1448
   95MOL    C4519033   2.306   7.367   6.363  0.0858 -0.5752 -0.6894
   95MOL    N4619034   2.401   7.463   6.415 -0.3614 -0.0207 -0.4539
   95MOL    H4719035   2.338   7.442   6.163 -0.1875 -0.1000 -0.0282
   95MOL    H4819036   2.187   7.484   6.223 -0.2090  0.3904 -0.5139
   95MOL    H4919037   2.217   7.369   6.427 -0.4233 -1.5730 -1.3489
   95MOL    H5019038   2.342   7.264   6.362  2.1893  0.1090  1.4287
   95MOL    H5119039   2.499   7.444   6.432 -0.0960  0.9796 -0.8116
   95MOL    C5219040   2.367   7.589   6.444  0.1000 -0.3819 -0.3383
   95MOL    O5319041   2.254   7.635   6.435  0.7817  0.3541 -0.2313
   95MOL    C5419042   2.474   7.679   6.500  0.3455 -0.4358  0.8880
   95MOL    C5519043   2.500   7.675   6.647 -0.1610 -0.3518  0.0948
   95MOL    N5619044   2.634   7.629   6.678 -0.4162 -0.2527 -0.1197
   95MOL    H5719045   2.570   7.658   6.453  0.4060 -0.3287  0.9623
   95MOL    H5819046   2.467   0.002   6.465  0.2723 -0.3876  1.0456
   95MOL    H5919047   2.425   7.616   6.700 -0.7688  1.0775  0.8551
   95MOL    H6019048   2.486   7.777   6.681  0.8567 -0.7650  1.8033
   95MOL    H6119049   2.687   7.698   6.729  0.0049  1.1742 -2.4040
   95MOL    C6219050   2.670   7.500   6.674  0.1126 -0.0105  0.3949
   95MOL    O6319051   2.597   7.409   6.636  0.5173  0.1854 -0.0468
   95MOL    C6419052   2.812   7.463   6.713 -0.8469  0.2021  0.3510
   95MOL    C6519053   2.890   7.415   6.597 -0.1353 -0.2417  0.6336
   95MOL    N6619054   2.883   7.504   6.480 -0.3424 -0.2317  0.5556
   95MOL    H6719055   2.857   7.542   6.773 -0.8987  0.4261  0.0966
   95MOL    H6819056   2.806   7.379   6.782 -2.4212  0.0591  0.0627
   95MOL    H6919057   2.995   7.413   6.624  0.1523 -1.1675 -0.4965
   95MOL    H7019058   2.873   7.312   6.568  0.2332 -0.7138  2.0888
   95MOL    H7119059   2.969   7.556   6.470 -0.9306  0.4745 -0.9256
   95MOL    C7219060   2.815   7.499   6.362 -0.4902  0.1657  0.0439
   95MOL    O7319061   2.723   7.416   6.351 -0.1873  0.1846  0.1404
   95MOL    C7419062   2.853   7.580   6.240  0.4569  0.0318 -0.0492
   95MOL    C7519063   2.746   7.690   6.205 -0.5254  0.0993 -0.2541
   95MOL    N7619064   2.802   7.777   6.104 -0.3151  0.3696 -0.1660
   95MOL    H7719065   2.950   7.620   6.269 -1.0153  2.2259  2.0145
   95MOL    H7819066   2.874   7.516   6.154  1.3856  0.6336 -0.2805
   95MOL    H7919067   2.657   7.644   6.162  0.4348 -2.5425  0.4975
   95MOL    H8019068   2.721   7.747   6.295  0.0842 -0.0013 -0.0168
   95MOL    H8119069   2.807   0.092   6.137 -2.4969  0.0328  1.2507
   95MOL    C8219070   2.815   7.744   5.976  0.8998 -0.4464 -0.8677
   95MOL    O8319071   2.783   7.634   5.937 -0.4860 -0.1039  0.3194
   95MOL    C8419072   2.875   0.072   5.873 -0.2309  0.6195 -0.4051
   95MOL    C8519073   3.022   0.048   5.845 -0.6103  0.6669 -0.2284
   95MOL    N8619074   3.057   7.690   5.822 -0.1651  0.5948 -0.0783
   95MOL    H8719075   2.810   0.066   5.786  0.2938 -0.1314 -0.7425
   95MOL    H8819076   2.869   0.168   5.925 -0.1033 -1.1395  3.0078
   95MOL    H8919077   3.058   0.113   5.766 -0.7903  1.7284  0.5622
   95MOL    H9019078   3.082   0.064   5.934 -1.3884  0.7498  0.2879
   95MOL    H9119079   3.097   7.632   5.894  0.0570 -0.6934 -1.2279
   95MOL    C9219080   3.032   7.621   5.711  0.0385 -0.2216  0.4217
   95MOL    O9319081   2.967   7.662   5.620 -0.6828 -0.1090 -0.2031
   95MOL    C9419082   3.078   7.481   5.704 -0.2787 -0.0091 -0.2208
   95MOL    C9519083   3.173   7.444   5.583  0.0882  0.3830  0.0002
   95MOL    N9619084   3.291   7.525   5.574  0.5148 -0.3904  0.3961
   95MOL    H9719085   3.121   7.441   5.795  0.1283  0.7868 -0.0585
   95MOL    H9819086   2.990   7.418   5.697  1.0774 -1.8024 -1.7903
   95MOL    H9919087   3.198   7.338   5.587  1.5232  0.6699 -1.0089
   95MOL   H10019088   3.103   7.449   5.500 -2.2406 -0.9618  1.8039
   95MOL   H10119089   3.333   7.562   5.658  0.1518  1.5291 -0.2563
   95MOL   C10219090   3.342   7.572   5.470  0.4306  0.9478  0.2645
   95MOL   O10319091   3.294   7.562   5.358  0.0139 -0.6505  0.2740
   95MOL   C10419092   3.470   7.646   5.494 -0.0840 -0.3827  0.1282
   95MOL   C10519093   3.444   0.013   5.530  0.0327 -0.2542  0.2120
   95MOL   N10619094   3.421   0.091   5.414 -0.0821 -0.2181 -0.6759
   95MOL   H10719095   3.536   7.628   5.409 -1.0359 -1.6737 -0.3594
   95MOL   H10819096   3.515   7.596   5.579  0.7881 -0.1582 -0.2015
   95MOL   H10919097   3.352   0.026   5.588 -1.6419  2.0377 -2.7717
   95MOL   H11019098   3.525   0.058   5.587  1.8094 -1.5436 -1.2553
   95MOL   H11119099   3.323   0.083   5.393 -0.4511  0.2762  0.8378
   95MOL   C11219100   3.514   0.144   5.335  0.3373  0.5459 -0.1570
   95MOL   O11319101   3.630   0.151   5.366 -0.0703  0.9053 -0.4140
   95MOL   C11419102   3.480   0.190   5.196  0.0191  0.1412  0.6220
   95MOL   C11519103   3.550   0.109   5.085  0.4147  0.0560 -0.0614
   95MOL   N11619104   3.496   7.748   5.075  0.5461 -0.1383 -0.4707
   95MOL   H11719105   3.509   0.295   5.189  0.1178  0.1875  1.6670
   95MOL   H11819106   3.372   0.199   5.183  0.2939 -0.5185 -2.6294
   95MOL   H11919107   3.542   0.153   4.985 -0.6889 -3.4893 -1.5903
   95MOL   H12019108   3.655   0.096   5.108  0.7647 -1.4014 -2.2690
   95MOL   H12119109   3.563   7.673   5.090  0.1833 -0.1220  1.3919
   95MOL   C12219110   3.372   7.711   5.045  0.4626 -0.2342  0.4568
   95MOL   O12319111   3.296   0.018   5.017 -0.4373 -0.0264 -0.6150
   95MOL   C12419112   3.335   7.562   5.026  0.1710 -0.5532 -0.2573
   95MOL   C12519113   3.187   7.534   5.000  0.0022 -0.2186 -0.6009
   95MOL   N12619114   3.118   7.557   5.125  0.4784 -0.4349 -0.2578
   95MOL   H12719115   3.365   7.505   5.113 -0.9242 -0.7286  0.0092
   95MOL   H12819116   3.385   7.520   4.938  1.2454  0.6382 -0.2357
   95MOL   H12919117   3.150   7.591   4.915 -0.0876 -0.9672 -1.0672
   95MOL   H13019118   3.172   7.434   4.962 -1.5383 -0.0651 -0.4057
   95MOL   H13119119   3.177   7.550   5.206  0.4187  0.8290 -0.0888
   95MOL   C13219120   2.987   7.566   5.142 -0.6341  0.2095 -0.5792
   95MOL   O13319121   2.904   7.571   5.048  0.5665 -0.1960  0.5010
   95MOL   C13419122   2.934   7.573   5.296 -0.4217 -0.2711  0.0537
   95MOL   C13519123   2.781   7.612   5.306  0.0112 -0.1799  0.1987
   95MOL   N13619124   2.734   7.621   5.444  0.2050 -0.6920 -0.2009
   95MOL   H13719125   3.008   7.638   5.342  0.0583  0.1113 -1.2405
   95MOL   H13819126   2.942   7.472   5.336  0.6463 -0.8210 -1.4645
   95MOL   H13919127   2.775   7.707   5.253 -0.9018 -0.4188 -0.1285
   95MOL   H14019128   2.724   7.550   5.237 -1.2877  3.1105 -1.8651
   95MOL   H14119129   2.804   7.623   5.517 -0.0029  1.2336 -0.0242
   95MOL   C14219130   2.609   7.618   5.488 -0.6802 -0.7338  0.0449
   95MOL   O14319131   2.513   7.625   5.413 -0.2774  0.0103 -0.5131
   95MOL   C14419132   2.592   7.628   5.635  0.2215 -0.0046 -0.5176
   95MOL   C14519133   2.565   7.481   5.685  0.0588  0.7487 -0.0118
   95MOL   N14619134   2.611   7.455   5.829 -0.1433  0.2266  0.0321
   95MOL   H14719135   2.503   7.683   5.663  1.0962  1.3874 -0.4158
   95MOL   H14819136   2.683   7.670   5.678  0.2303  1.6258 -2.0855
   95MOL   H14919137   2.456   7.467   5.684 -0.0635  1.0741  2.7365
   95MOL   H15019138   2.612   7.398   5.633  1.8921  1.3235  0.6806
   95MOL   H15119139   2.691   7.502   5.869  0.9388 -1.8749  0.4337
   95MOL   C15219140   2.561   7.358   5.911 -0.1564  0.3184  0.4993
   95MOL   O15319141   2.464   7.290   5.879  0.6261 -0.7445  0.3262
   95MOL   C15419142   2.637   7.335   6.041 -0.6429  0.7296 -0.0360
   95MOL   C15519143   2.586   7.201   6.103  0.1296  0.3030 -0.5331
   95MOL   N15619144   2.640   7.179   6.238  0.8321  0.0490 -0.2866
   95MOL   H15719145   2.607   7.415   6.109  1.0392  2.4872 -1.3106
   95MOL   H15819146   2.743   7.329   6.018 -1.1398 -0.0519 -2.2468
   95MOL   H15919147   2.480   7.208   6.130  0.5306  0.3458  1.1160
   95MOL   H16019148   2.598   7.113   6.040  1.6866 -0.5123  0.8704
   95MOL   H16119149   2.687   7.252   6.290 -0.2827 -0.3898  1.3985
   95MOL   C16219150   2.602   7.081   6.317 -0.2822  0.1137  0.9531
   95MOL   O16319151   2.542   6.975   6.276  0.1465 -0.0190  0.8902
   95MOL   C16419152   2.620   7.106   6.465 -0.3681 -0.3468  0.7111
   95MOL   C16519153   2.634   6.979   6.545  0.1441  0.2096 -0.8418
   95MOL   N16619154   2.763   6.917   6.534 -0.1456 -0.0209 -0.2536
   95MOL   H16719155   2.527   7.152   6.498 -0.5475 -0.1244 -0.0824
   95MOL   H16819156   2.697   7.181   6.481 -1.1961  0.6654  0.0794
   95MOL   H16919157   2.633   6.999   6.651 -1.1642  0.5503 -0.9034
   95MOL   H17019158   2.552   6.911   6.520  1.0421 -0.8260 -1.0377
   95MOL   H17119159   2.840   6.975   6.505 -0.1073  1.1049  1.9891
   95MOL   C17219160   2.784   6.797   6.589 -0.2832 -0.0996  0.0988
   95MOL   O17319161   2.703   6.735   6.648  0.2941 -0.4938 -0.2332
   95MOL   C17419162   2.924   6.740   6.559 -0.4839  0.3479  0.2724
   95MOL   C17519163   2.983   6.650   6.671  0.3122  0.1479  0.0422
   95MOL   N17619164   2.956   6.508   6.654 -0.2883  0.2670 -0.0921
   95MOL   H17719165   2.991   6.826   6.554 -0.2940  0.2866  1.6643
   95MOL   H17819166   2.929   6.684   6.465 -1.6825 -2.5759  1.8785
   95MOL   H17919167   3.091   6.663   6.670  0.8664 -3.4510  2.0988
   95MOL   H18019168   2.944   6.686   6.766 -2.1101 -0.8307 -0.5431
   95MOL   H18119169   2.870   6.470   6.689 -0.6865  0.8559 -0.4267
   95MOL   C18219170   3.007   6.438   6.551  0.9415 -0.1023 -0.3290
   95MOL   O18319171   3.108   6.475   6.495  0.2590 -0.1678  0.4143
   95MOL   C18419172   2.941   6.302   6.520 -0.3386 -0.4739 -0.0522
   95MOL   C18519173   2.909   6.267   6.372  0.6399 -0.3780 -0.3639
   95MOL   N18619174   2.830   6.368   6.300 -0.0102  0.2872  0.4263
   95MOL   H18719175   2.851   6.288   6.580 -0.9290  1.3904 -0.4722
   95MOL   H18819176   2.994   6.214   6.555 -0.9536 -0.0559  1.9745
   95MOL   H18919177   3.004   6.251   6.321  1.7534  2.0833  0.8582
   95MOL   H19019178   2.851   6.175   6.362  3.7060 -2.4296  0.3032
   95MOL   H19119179   2.840   6.459   6.343  0.0346 -0.1753  1.4138
   95MOL   C19219180   2.755   6.340   6.198  0.7170  0.3391  0.4587
   95MOL   O19319181   2.745   6.232   6.141 -0.6411 -0.2717 -0.0805
   95MOL   C19419182   2.667   6.458   6.145 -0.1531 -0.0270 -0.6271
   95MOL   C19519183   2.749   6.587   6.149 -0.2648 -0.3924  0.6568
   95MOL   N19619184   2.750   6.648   6.279  0.0627 -0.1211 -0.5832
   95MOL   H19719185   2.648   6.433   6.040  2.5095 -0.2276 -1.1156
   95MOL   H19819186   2.572   6.458   6.197 -0.6681  1.2180 -1.5499
   95MOL   H19919187   2.852   6.569   6.116 -0.7013 -0.2218 -0.8520
   95MOL   H20019188   2.707   6.664   6.084  1.0358  0.4565  0.8008
   95MOL   H20119189   2.655   6.669   6.304  0.2523  0.6412 -0.4717
   95MOL   H20219190   2.783   6.744   6.281  0.0175 -0.1250  1.0152
   96MOL     C119191   3.458   0.460   0.817  0.5382 -0.6048  0.0965
   96MOL     O219192   3.372   0.377   0.860 -0.3022  0.1308 -0.7641
   96MOL     C319193   3.599   0.428   0.793 -0.6452 -0.8800  0.3454
   96MOL     C419194   3.639   0.282   0.807  0.3000  1.0572 -0.0216
   96MOL     N519195   3.596   0.204   0.696  0.1080  0.3753  0.3027
   96MOL     H619196   3.651   0.487   0.869 -1.3720  0.6766 -0.3433
   96MOL     H719197   3.641   0.458   0.697  1.0586  0.4012  1.4762
   96MOL     H819198   3.593   0.249   0.900  1.5358  2.1732  1.0139
   96MOL     H919199   3.748   0.287   0.801  0.5758 -1.9804  1.9032
   96MOL    H1019200   3.586   0.248   0.605 -2.7271 -2.5493 -0.8806
   96MOL    H1119201   3.430   0.564   0.801 -0.4796 -0.5061  2.3062
   96MOL    C1219202   3.551   0.075   0.710 -0.4173  0.6296 -0.7473
   96MOL    O1319203   3.557   0.019   0.820 -1.0844  0.2011 -0.0042
   96MOL    C1419204   3.482   0.025   0.582  0.1363  0.2550  0.2495
   96MOL    C1519205   3.572   7.707   0.507 -0.2719  0.5152  0.6481
   96MOL    N1619206   3.502   7.623   0.404 -0.1151 -0.0394  0.0196
   96MOL    H1719207   3.455   0.104   0.512 -0.7090  1.4614  1.9114
   96MOL    H1819208   3.385   7.766   0.613 -0.9453  2.4102 -0.3177
   96MOL    H1919209   3.656   7.763   0.466  0.4996  0.4728  2.1424
   96MOL    H2019210   3.620   7.635   0.573  0.0999  0.1111 -0.0645
   96MOL    H2119211   3.468   7.534   0.438 -0.0652 -1.0585 -2.4703
   96MOL    C2219212   3.479   7.648   0.278  0.5551  0.5152 -0.2308
   96MOL    O2319213   3.525   7.752   0.221  0.0481  0.1280 -0.4050
   96MOL    C2419214   3.398   7.548   0.205 -0.3670  0.4204 -0.1158
   96MOL    C2519215   3.338   7.575   0.065  0.4419  0.0657 -0.4422
   96MOL    N2619216   3.439   7.576   7.750 -0.7447 -0.3821  0.1556
   96MOL    H2719217   3.317   7.518   0.272 -0.2737 -1.2844 -0.7348
   96MOL    H2819218   3.460   7.460   0.186 -0.3037  0.8942 -2.2669
   96MOL    H2919219   3.255   7.508   0.043 -0.6499  0.8223  1.2094
   96MOL    H3019220   3.286   7.671   0.059  1.3648  0.6614  0.8292
   96MOL    H3119221   3.526   7.622   7.773 -1.0389  0.4770 -0.3912
   96MOL    C3219222   3.433   7.499   7.640 -0.4644 -0.9281 -0.2347
   96MOL    O3319223   3.346   7.415   7.622 -0.0468  0.0289  0.7312
   96MOL    C3419224   3.551   7.518   7.546 -1.0120  0.6859  0.4266
   96MOL    C3519225   3.511   7.506   7.401  0.1101  0.0370  0.4459
   96MOL    N3619226   3.588   7.598   7.316 -0.4973  0.1176  0.6120
   96MOL    H3719227   3.629   7.445   7.569 -1.3458  0.6386  1.4261
   96MOL    H3819228   3.597   7.614   7.567  2.7645 -1.1599  0.9173
   96MOL    H3919229   3.525   7.399   7.383 -0.7604 -0.0359  0.1625
   96MOL    H4019230   3.404   7.514   7.380  0.2578  0.7815 -0.0367
   96MOL    H4119231   3.668   7.633   7.368  0.7051 -0.2479 -0.9463
   96MOL    C4219232   3.536   7.653   7.214  0.2389 -0.5742  0.2393
   96MOL    O4319233   3.442   7.606   7.154  0.0967 -0.3859 -0.7927
   96MOL    C4419234   3.608   0.002   7.177  0.0879 -0.1474  1.2039
   96MOL    C4519235   3.584   0.048   7.026  0.8604  0.0381 -0.3661
   96MOL    N4619236   3.643   0.180   6.984  0.2632  0.0383 -0.1280
   96MOL    H4719237   3.581   0.081   7.247  0.1069  1.0281 -0.0872
   96MOL    H4819238   3.715   7.769   7.190 -0.1113  0.0461  3.2134
   96MOL    H4919239   3.628   7.753   6.961 -0.3563  0.3098 -1.5240
   96MOL    H5019240   3.476   0.056   7.012  0.5638 -0.3072  1.5966
   96MOL    H5119241   3.575   0.254   6.989  0.3553 -0.0360  2.7631
   96MOL    C5219242   3.764   0.201   6.930  0.1742  0.5463 -0.7485
   96MOL    O5319243   3.846   0.115   6.912 -0.3601 -0.0945 -0.7122
   96MOL    C5419244   3.791   0.346   6.894 -0.1802 -0.4186  0.1595
   96MOL    C5519245   3.878   0.421   6.998  0.0699  0.4147  0.0030
   96MOL    N5619246   3.794   0.455   7.114 -0.0751  0.3427  0.4843
   96MOL    H5719247   3.855   0.336   6.806  0.2648 -0.7271  0.5217
   96MOL    H5819248   3.699   0.399   6.868  1.7578  3.3992  0.6851
   96MOL    H5919249   3.919   0.511   6.954  0.2406 -0.7706 -2.3154
   96MOL    H6019250   3.958   0.357   7.036  0.7701  0.2735 -1.6701
   96MOL    H6119251   3.813   0.409   7.202  2.2671  1.4309  0.5963
   96MOL    C6219252   3.721   0.565   7.116  0.8017 -0.4730  0.0787
   96MOL    O6319253   3.704   0.640   7.016 -0.4860 -0.2678 -0.1178
   96MOL    C6419254   3.662   0.598   7.254  0.6753 -0.3309 -0.4411
   96MOL    C6519255   3.638   0.751   7.285 -0.1698  0.7359  0.0321
   96MOL    N6619256   3.500   0.794   7.252  0.5475  1.1640 -0.5919
   96MOL    H6719257   3.575   0.536   7.274  0.4840 -0.1050 -0.5603
   96MOL    H6819258   3.730   0.576   7.336 -0.3491  1.6974  0.9968
   96MOL    H6919259   3.669   0.785   7.384 -0.0311 -0.7379  0.4999
   96MOL    H7019260   3.704   0.810   7.222  0.4291 -0.6616 -0.6767
   96MOL    H7119261   3.480   0.833   7.161 -0.8637 -2.2664 -1.8515
   96MOL    C7219262   3.398   0.788   7.339  0.2704  0.9296 -0.0951
   96MOL    O7319263   3.420   0.739   7.448  0.3700 -0.3302 -0.6917
   96MOL    C7419264   3.252   0.836   7.300  0.3775 -0.8388 -0.2400
   96MOL    C7519265   3.145   0.838   7.418  0.3723 -0.0665 -0.2678
   96MOL    N7619266   3.194   0.899   7.541 -0.1035 -0.0184  0.6884
   96MOL    H7719267   3.248   0.933   7.251 -1.2866 -0.6160  0.3195
   96MOL    H7819268   3.211   0.766   7.228 -0.9413  1.1756 -1.5041
   96MOL    H7919269   3.055   0.884   7.377 -0.3252 -1.3441 -0.1929
   96MOL    H8019270   3.109   0.738   7.442  1.3987 -0.8464 -1.8970
   96MOL    H8119271   3.224   0.836   7.614 -1.7750  0.1476  1.5229
   96MOL    C8219272   3.233   1.030   7.554  0.0598 -0.4305 -0.7205
   96MOL    O8319273   3.205   1.117   7.466  0.1285 -0.1641  0.3960
   96MOL    C8419274   3.305   1.081   7.676 -0.3857  0.9152  0.0767
   96MOL    C8519275   3.459   1.069   7.658 -0.3109 -0.2837 -0.4793
   96MOL    N8619276   3.504   0.923   7.651 -0.0886  0.1274  0.0620
   96MOL    H8719277   3.281   1.187   7.670 -2.3167  0.4715 -0.0431
   96MOL    H8819278   3.266   1.039   7.769 -1.1923  0.7358 -0.3423
   96MOL    H8919279   3.501   1.132   7.579 -0.1773  1.4480  0.9420
   96MOL    H9019280   3.498   1.112   7.750 -0.3073  2.5122 -1.7408
   96MOL    H9119281   3.451   0.853   7.602 -1.4524  1.1017  0.1150
   96MOL    C9219282   3.629   0.888   7.693 -0.3236  0.9076  0.4630
   96MOL    O9319283   3.711   0.967   7.733  0.3426  0.1483 -0.4922
   96MOL    C9419284   3.665   0.739   7.703 -0.3566 -0.4170 -0.0234
   96MOL    C9519285   3.721   0.695   0.057 -0.6935  0.6495  1.3361
   96MOL    N9619286   3.868   0.684   0.053 -0.1380  0.1688  0.1447
   96MOL    H9719287   3.576   0.680   7.681 -0.2256 -1.9799  3.3332
   96MOL    H9819288   3.739   0.719   7.625  0.1954  0.6014  0.2392
   96MOL    H9919289   3.677   0.748   0.142 -1.7052  1.5558  0.2625
   96MOL   H10019290   3.687   0.598   0.092 -1.6427  0.6323  0.3827
   96MOL   H10119291   3.921   0.734   7.764 -1.8719  0.6779 -0.8382
   96MOL   C10219292   3.935   0.638   0.159 -0.0181  0.4776 -0.1183
   96MOL   O10319293   3.881   0.592   0.255  0.2654  0.2012 -0.5207
   96MOL   C10419294   4.089   0.626   0.149  0.6496 -0.3418  0.4311
   96MOL   C10519295   4.153   0.502   0.217  0.1115  0.0728 -0.4818
   96MOL   N10619296   4.184   0.524   0.357  0.2170  0.3779  0.3883
   96MOL   H10719297   4.127   0.712   0.204  0.4774  0.7529 -1.1189
   96MOL   H10819298   4.119   0.639   0.045 -1.6131  0.5861 -0.1323
   96MOL   H10919299   4.084   0.418   0.211  0.8603 -0.5553 -0.4187
   96MOL   H11019300   4.246   0.474   0.167 -0.2743 -0.8335 -0.7033
   96MOL   H11119301   4.112   0.581   0.398  1.4030  2.4104 -0.2532
   96MOL   C11219302   4.262   0.449   0.432  0.5944  0.1524  0.2283
   96MOL   O11319303   4.356   0.385   0.387 -0.0414  0.3262  0.0138
   96MOL   C11419304   4.224   0.470   0.580  0.3117  0.3249 -0.0085
   96MOL   C11519305   4.264   0.346   0.670  0.6026 -0.0388 -0.2167
   96MOL   N11619306   4.198   0.222   0.623 -0.8946  0.2326 -0.3599
   96MOL   H11719307   4.117   0.483   0.596  0.3022 -0.3697  0.5291
   96MOL   H11819308   4.285   0.552   0.618 -1.7265  1.9533 -0.1611
   96MOL   H11919309   4.371   0.325   0.674  0.5943  0.0762  0.5728
   96MOL   H12019310   4.229   0.378   0.768 -1.0299 -1.0829 -0.4481
   96MOL   H12119311   4.256   0.143   0.597  0.3992  1.0862 -0.0756
   96MOL   C12219312   4.065   0.198   0.606  0.3967  0.1935 -0.9797
   96MOL   O12319313   3.978   0.280   0.626 -0.2482  0.4483 -0.4297
   96MOL   C12419314   4.023   0.070   0.533 -0.1312  0.2235  0.1567
   96MOL   C12519315   3.908   7.764   0.597  0.1539  0.0566 -0.5497
   96MOL   N12619316   3.944   7.709   0.737  0.9175  0.9162 -0.0787
   96MOL   H12719317   4.106   0.000   0.537 -0.3393  0.0404  1.2829
   96MOL   H12819318   3.995   0.095   0.430  0.6184 -0.9493 -0.3419
   96MOL   H12919319   3.812   0.032   0.613 -1.7493 -3.8514  0.5081
   96MOL   H13019320   3.894   7.678   0.531 -0.2880  0.2780 -0.7468
   96MOL   H13119321   4.014   7.750   0.798  0.2240  1.9748  0.0215
   96MOL   C13219322   3.871   7.612   0.802  0.1775  0.6011 -0.2179
   96MOL   O13319323   3.783   7.547   0.749  0.1605  0.7211 -0.2432
   96MOL   C13419324   3.914   7.577   0.943 -0.3315 -0.3873  0.2367
   96MOL   C13519325   3.805   7.502   1.023  0.1044  0.2344  0.0126
   96MOL   N13619326   3.675   7.571   1.038  0.1023  0.2597 -0.0218
   96MOL   H13719327   3.929   7.668   1.001  0.9571 -0.1578 -0.4506
   96MOL   H13819328   4.004   7.516   0.940 -0.0912  0.0331 -1.3889
   96MOL   H13919329   3.796   7.396   1.000 -1.1125  0.8464 -2.5118
   96MOL   H14019330   3.846   7.503   1.124  1.2944  0.3819 -0.4692
   96MOL   H14119331   3.630   7.583   0.949  0.1498  3.3384  0.3230
   96MOL   C14219332   3.639   7.639   1.146 -0.1025 -0.4349  0.7306
   96MOL   O14319333   3.707   7.639   1.247 -0.0404  0.1050 -0.1257
   96MOL   C14419334   3.516   7.731   1.136  0.0708  0.1420  0.0143
   96MOL   C14519335   3.534   0.092   1.199  0.1956  0.2979  0.2363
   96MOL   N14619336   3.468   0.107   1.329  0.3768  1.4448  1.0390
   96MOL   H14719337   3.434   7.683   1.189  0.0278 -2.2227 -2.1094
   96MOL   H14819338   3.502   7.725   1.028 -0.9070 -0.0033  0.1468
   96MOL   H14919339   3.640   0.114   1.211  0.3607  0.2859 -1.1207
   96MOL   H15019340   3.504   0.167   1.125  0.8909  0.0709 -0.2896
   96MOL   H15119341   3.512   0.056   1.404  3.3840  0.7342 -1.0668
   96MOL   C15219342   3.386   0.213   1.356 -0.2660  0.1664  0.8846
   96MOL   O15319343   3.347   0.286   1.262 -0.4021  0.3695  0.0159
   96MOL   C15419344   3.364   0.247   1.502  0.0822 -1.1283 -0.0937
   96MOL   C15519345   3.374   0.397   1.537 -1.0262  0.4283  0.6436
   96MOL   N15619346   3.268   0.493   1.482  0.6428  0.0307 -0.3579
   96MOL   H15719347   3.437   0.186   1.556  1.5448  0.1661 -0.5926
   96MOL   H15819348   3.261   0.221   1.529  0.3070 -1.2521  0.6694
   96MOL   H15919349   3.369   0.407   1.646 -1.4925 -2.5396  0.9353
   96MOL   H16019350   3.470   0.436   1.503 -1.4159 -0.1449 -1.1613
   96MOL   H16119351   3.298   0.564   1.417 -2.7541  1.9138 -0.0030
   96MOL   C16219352   3.134   0.483   1.510  0.2333 -0.1518 -0.6553
   96MOL   O16319353   3.087   0.396   1.579  0.8880  0.9528  0.0481
   96MOL   C16419354   3.042   0.594   1.453 -0.0609 -0.8478 -0.0726
   96MOL   C16519355   2.919   0.632   1.543 -0.7811  0.4687  0.6897
   96MOL   N16619356   2.898   0.775   1.568 -0.8212  0.3249 -0.1658
   96MOL   H16719357   2.998   0.578   1.355 -0.1449  2.1647 -0.5753
   96MOL   H16819358   3.094   0.689   1.451  1.0302 -1.3989  1.1436
   96MOL   H16919359   2.827   0.601   1.493 -0.5705  0.2040  0.4680
   96MOL   H17019360   2.919   0.573   1.635  3.8670  0.3032  0.7101
   96MOL   H17119361   2.963   0.821   1.631  0.3469 -0.8150 -0.5143
   96MOL   C17219362   2.813   0.853   1.495 -0.3997 -0.7110  0.1661
   96MOL   O17319363   2.732   0.812   1.418  0.1103  0.1653 -0.1819
   96MOL   C17419364   2.838   0.996   1.517 -0.2974 -0.7396 -0.2567
   96MOL   C17519365   2.912   1.079   1.407  0.0129  0.1255 -0.5266
   96MOL   N17619366   3.053   1.055   1.417 -0.1465  0.1489 -0.0082
   96MOL   H17719367   2.878   1.021   1.615 -0.9095 -0.3295 -0.1050
   96MOL   H17819368   2.741   1.047   1.514  0.7191  1.1891 -2.2370
   96MOL   H17919369   2.867   1.063   1.309 -2.0240  2.1578  0.0265
   96MOL   H18019370   2.899   1.187   1.418 -0.1678  0.2532 -1.8307
   96MOL   H18119371   3.094   1.073   1.508  0.1873 -1.3872  0.1565
   96MOL   C18219372   3.130   0.994   1.325 -0.9885 -0.1210  0.7086
   96MOL   O18319373   3.079   0.954   1.218  0.1517  0.4423 -0.3174
   96MOL   C18419374   3.276   0.980   1.363 -0.5848  0.2856  0.3696
   96MOL   C18519375   3.364   0.961   1.240  0.5560  0.8282  0.6175
   96MOL   N18619376   3.353   0.824   1.177  0.5723  0.4023  0.3351
   96MOL   H18719377   3.271   0.887   1.421  1.0230  0.8175  1.3684
   96MOL   H18819378   3.309   1.061   1.427 -2.6191  0.5957  1.0649
   96MOL   H18919379   3.344   1.046   1.175 -0.4865  2.4445  2.9775
   96MOL   H19019380   3.464   0.984   1.277  0.9203  0.5058 -0.1637
   96MOL   H19119381   3.334   0.824   1.077 -0.7166  0.8519  0.5641
   96MOL   C19219382   3.402   0.715   1.226  0.3393  0.3626  1.2682
   96MOL   O19319383   3.430   0.702   1.347  0.1541 -0.2626 -0.2970
   96MOL   C19419384   3.426   0.591   1.133  0.0559 -0.2831  0.0367
   96MOL   C19519385   3.548   0.512   1.166  0.6334 -0.0960  0.0071
   96MOL   N19619386   3.661   0.589   1.124  0.3194  0.6102  0.1109
   96MOL   H19719387   3.340   0.528   1.153 -1.0072  0.8916 -0.7955
   96MOL   H19819388   3.413   0.617   1.028 -0.8623 -0.8477  0.0059
   96MOL   H19919389   3.567   0.493   1.272  0.4575 -0.4083 -0.0185
   96MOL   H20019390   3.543   0.418   1.111  1.4354 -0.0815 -0.1022
   96MOL   H20119391   3.679   0.587   1.025  0.7824  1.8939  0.1541
   96MOL   H20219392   3.736   0.536   1.166  0.7690  0.3933 -0.9517
   97MOL     C119393   1.057   6.383   3.391 -0.2350 -0.4543 -0.0980
   97MOL     O219394   1.059   6.264   3.422 -0.2486 -0.2173 -0.7526
   97MOL     C319395   1.117   6.492   3.476 -0.2525  0.3105 -0.3777
   97MOL     C419396   1.158   6.456   3.621  0.5626  0.0336 -0.2851
   97MOL     N519397   1.039   6.467   3.712  0.6139  0.3334  0.3543
   97MOL     H619398   1.047   6.575   3.467 -1.4447 -0.8970 -2.8411
   97MOL     H719399   1.206   6.518   3.419 -0.8112  0.3769 -1.2341
   97MOL     H819400   1.234   6.521   3.664 -2.1691  1.4472  2.5942
   97MOL     H919401   1.192   6.352   3.629  1.7798  0.5302  1.3610
   97MOL    H1019402   0.979   6.386   3.714  1.4303 -0.2638  0.8226
   97MOL    H1119403   1.008   6.430   3.306  0.7682  1.9784  0.5958
   97MOL    C1219404   0.991   6.578   3.762  0.2205  0.2948 -0.4336
   97MOL    O1319405   1.039   6.688   3.739  0.0900  0.6764  0.1388
   97MOL    C1419406   0.853   6.568   3.835  0.1958  0.4825  0.0298
   97MOL    C1519407   0.873   6.591   3.985  0.0122 -0.2284  0.1799
   97MOL    N1619408   0.752   6.644   4.051 -0.4268  0.2087  0.2024
   97MOL    H1719409   0.807   6.469   3.840 -0.4159  0.8598  2.2516
   97MOL    H1819410   0.785   6.635   3.782 -1.4557 -0.8413  0.4348
   97MOL    H1919411   0.900   6.502   4.040 -2.0620 -0.8962  0.1618
   97MOL    H2019412   0.959   6.658   3.992  0.6811 -1.3162  2.4056
   97MOL    H2119413   0.663   6.597   4.045 -1.7268  2.6556 -0.2521
   97MOL    C2219414   0.748   6.770   4.103 -0.9070 -0.2436  0.1895
   97MOL    O2319415   0.842   6.848   4.087  0.6923  0.1016 -0.1675
   97MOL    C2419416   0.627   6.827   4.183  0.3085  0.2350  0.3593
   97MOL    C2519417   0.548   6.928   4.102  0.4948 -0.7005  0.1463
   97MOL    N2619418   0.493   6.848   3.991 -0.1793  0.1421 -0.1991
   97MOL    H2719419   0.658   6.860   4.282  0.0342 -1.7970  1.1323
   97MOL    H2819420   0.567   6.741   4.215  2.9842 -1.5822  0.6398
   97MOL    H2919421   0.484   6.970   4.180 -0.7019 -2.1951 -0.0170
   97MOL    H3019422   0.610   7.009   4.062  0.0165 -0.6595 -0.5238
   97MOL    H3119423   0.565   6.812   3.931 -1.4326 -1.2020 -0.9416
   97MOL    C3219424   0.367   6.807   3.989  0.2700 -0.6561  0.3704
   97MOL    O3319425   0.280   6.852   4.065  0.1603  0.1003  0.5310
   97MOL    C3419426   0.332   6.700   3.883 -0.1595  0.3224  0.5997
   97MOL    C3519427   0.247   6.593   3.957  0.5433  0.0864  0.4931
   97MOL    N3619428   0.242   6.467   3.873 -0.4659  0.7200 -0.4476
   97MOL    H3719429   0.424   6.653   3.847  0.0604  1.1565  0.0705
   97MOL    H3819430   0.275   6.733   3.796 -1.5162 -1.7231  0.6594
   97MOL    H3919431   0.286   6.565   4.056  0.9652  0.6000  0.4740
   97MOL    H4019432   0.144   6.622   3.973  0.0700 -0.7963 -0.9522
   97MOL    H4119433   0.301   6.393   3.910  0.8666  1.7495 -0.4422
   97MOL    C4219434   0.169   6.437   3.766  0.0894 -0.0014  0.3074
   97MOL    O4319435   0.090   6.523   3.722 -0.1907 -0.5370 -0.0878
   97MOL    C4419436   0.182   6.295   3.705  0.7011 -0.6213  0.7906
   97MOL    C4519437   0.120   6.294   3.565  0.0266  0.1480 -0.1525
   97MOL    N4619438   7.754   6.281   3.564 -0.2463  0.2661 -0.5737
   97MOL    H4719439   0.288   6.273   3.691  0.2857 -1.7357 -0.8428
   97MOL    H4819440   0.138   6.221   3.771 -1.1800  0.9949  1.4052
   97MOL    H4919441   0.156   6.384   3.515  0.5951  1.0376  1.8091
   97MOL    H5019442   0.163   6.219   3.497 -1.3322 -0.8133  0.0305
   97MOL    H5119443   7.711   6.272   3.655  1.1066  0.6449  0.1076
   97MOL    C5219444   7.681   6.286   3.455 -0.5078  0.6118 -0.4032
   97MOL    O5319445   7.728   6.320   3.348  0.2786  0.4192  0.2264
   97MOL    C5419446   7.531   6.254   3.483 -0.5338 -0.5597  0.4518
   97MOL    C5519447   7.463   6.193   3.358  0.1474 -0.1186 -0.4408
   97MOL    N5619448   7.321   6.192   3.384 -0.2394 -0.7298 -0.0880
   97MOL    H5719449   7.523   6.198   3.576 -0.2413 -1.2506  0.0566
   97MOL    H5819450   7.480   6.349   3.504  0.5539  0.0346  0.4579
   97MOL    H5919451   7.509   6.099   3.329  0.1976  0.5267 -2.4943
   97MOL    H6019452   7.485   6.256   3.272  1.7409 -0.4576 -0.3140
   97MOL    H6119453   7.281   6.261   3.446 -0.7875  0.3460 -1.5903
   97MOL    C6219454   7.232   6.119   3.319  0.4593 -0.5159  0.5755
   97MOL    O6319455   7.264   6.040   3.232 -0.0556  0.1683  0.3553
   97MOL    C6419456   7.088   6.133   3.364 -0.1274  0.5386  0.6474
   97MOL    C6519457   6.996   6.156   3.240  0.3146  0.2101  0.0819
   97MOL    N6619458   6.859   6.166   3.278 -0.0240  0.3246 -0.0866
   97MOL    H6719459   7.059   6.040   3.413 -0.1341  0.9461  1.4250
   97MOL    H6819460   7.073   6.208   3.442  0.7192  0.0380  1.3021
   97MOL    H6919461   7.025   6.248   3.188  1.0221 -0.6240 -1.0223
   97MOL    H7019462   6.993   6.074   3.169 -1.8242  0.3280  0.0059
   97MOL    H7119463   6.793   6.090   3.264 -0.3105  0.3425  1.1144
   97MOL    C7219464   6.799   6.262   3.345 -0.4288 -0.3789  0.1790
   97MOL    O7319465   6.853   6.360   3.383  0.2375  0.1050 -0.1852
   97MOL    C7419466   6.642   6.248   3.374 -0.3683 -0.4814 -0.0387
   97MOL    C7519467   6.623   6.139   3.480  0.1323  0.0759  0.0066
   97MOL    N7619468   6.540   6.026   3.431 -0.5974  0.1145 -0.0858
   97MOL    H7719469   6.599   6.336   3.420  2.1092  0.5865  0.3224
   97MOL    H7819470   6.593   6.238   3.277  1.8332 -0.7925 -1.1442
   97MOL    H7919471   6.716   6.109   3.527  0.3316 -0.4372 -0.7132
   97MOL    H8019472   6.570   6.190   3.561 -0.6091  0.4425 -0.7058
   97MOL    H8119473   6.452   6.019   3.480 -0.3671 -0.0778  0.3034
   97MOL    C8219474   6.567   5.941   3.330 -0.0128 -0.7239  0.2850
   97MOL    O8319475   6.670   5.939   3.261 -0.0619  0.0762 -1.3713
   97MOL    C8419476   6.467   5.828   3.310  0.4291  0.3734  0.8766
   97MOL    C8519477   6.331   5.872   3.247 -0.6766 -0.0306  0.4063
   97MOL    N8619478   6.338   5.831   3.105 -0.4149  0.0457 -0.0884
   97MOL    H8719479   6.523   5.751   3.256  1.5209 -0.1739  2.7340
   97MOL    H8819480   6.440   5.784   3.406  1.6649  1.4369  1.7300
   97MOL    H8919481   6.260   5.805   3.295 -0.9682  1.0853  1.5536
   97MOL    H9019482   6.289   5.970   3.272 -1.4235  0.3330 -2.0998
   97MOL    H9119483   6.303   5.739   3.081 -1.7011  0.0726  1.6078
   97MOL    C9219484   6.356   5.926   3.009  0.5058  1.3847 -0.5009
   97MOL    O9319485   6.376   6.045   3.029 -0.8546 -0.4706  0.5647
   97MOL    C9419486   6.324   5.875   2.864 -0.4788 -0.2558 -0.3044
   97MOL    C9519487   6.336   5.989   2.760  0.0331 -0.4213  0.0655
   97MOL    N9619488   6.280   5.952   2.628  0.3321  0.2811 -0.1833
   97MOL    H9719489   6.377   5.786   2.834 -0.4848 -0.7395  1.0640
   97MOL    H9819490   6.218   5.853   2.854 -0.9850  0.5273  2.6528
   97MOL    H9919491   6.315   6.088   2.801  1.4468 -1.2555  2.9110
   97MOL   H10019492   6.440   5.991   2.730 -0.0313  0.8282 -0.0997
   97MOL   H10119493   6.336   5.880   2.586  1.7831  2.7090 -2.5459
   97MOL   C10219494   6.208   6.038   2.558 -0.3321 -0.3948 -0.3975
   97MOL   O10319495   6.177   6.149   2.602 -0.1589 -0.3478  0.5936
   97MOL   C10419496   6.162   5.987   2.422  0.4762 -0.5610 -0.0247
   97MOL   C10519497   6.210   6.080   2.306 -0.1945  0.1591 -0.2478
   97MOL   N10619498   6.113   6.117   2.207 -0.5352  0.0086 -0.6740
   97MOL   H10719499   6.054   6.001   2.425  0.4164 -1.0761  0.5609
   97MOL   H10819500   6.196   5.887   2.394  1.3483  0.1720 -1.6471
   97MOL   H10919501   6.231   6.177   2.349  1.5331 -0.0535 -0.5979
   97MOL   H11019502   6.289   6.041   2.242  0.3076  0.9075 -0.0846
   97MOL   H11119503   6.102   6.216   2.187  2.0414  0.7658  1.3883
   97MOL   C11219504   6.053   6.035   2.119 -0.5741 -0.1589  0.0719
   97MOL   O11319505   6.083   5.914   2.114 -0.2155  0.1535 -0.3333
   97MOL   C11419506   5.969   6.108   2.015  0.4975 -0.0466  0.0832
   97MOL   C11519507   5.968   6.062   1.860 -0.4164  0.2980 -0.0469
   97MOL   N11619508   5.964   5.922   1.840  0.1019  0.8663  0.3700
   97MOL   H11719509   6.001   6.212   2.019  2.9419 -0.8026  1.3349
   97MOL   H11819510   5.865   6.116   2.048  0.6894 -1.3329  1.0700
   97MOL   H11919511   5.882   6.103   1.807  0.2839  2.0329  0.1069
   97MOL   H12019512   6.060   6.086   1.807  0.4169 -2.1155  0.2652
   97MOL   H12119513   6.035   5.868   1.887 -0.5554 -0.0072  0.3908
   97MOL   C12219514   5.873   5.847   1.778 -0.0537  0.1977  0.0558
   97MOL   O12319515   5.780   5.884   1.718 -0.3662 -0.3876  0.1926
   97MOL   C12419516   5.890   5.690   1.794  1.0347 -0.0351 -0.5055
   97MOL   C12519517   5.815   5.625   1.922  0.7509  0.1203 -0.3455
   97MOL   N12619518   5.896   5.641   2.045  0.7797  0.1454  0.8615
   97MOL   H12719519   5.997   5.668   1.792  0.7184 -1.7387  0.6781
   97MOL   H12819520   5.849   5.649   1.702  0.4696  0.2362 -0.3775
   97MOL   H12919521   5.728   5.685   1.949  0.1400 -1.1769  0.6423
   97MOL   H13019522   5.786   5.521   1.910 -2.5365  1.0117 -0.5227
   97MOL   H13119523   5.853   5.679   2.129  0.3459 -0.8058  1.0757
   97MOL   C13219524   6.006   5.572   2.069  0.2103 -0.2112 -1.1213
   97MOL   O13319525   6.068   5.506   1.985  0.1571  0.4762  0.0181
   97MOL   C13419526   6.069   5.579   2.210 -0.3726  0.5291  0.1945
   97MOL   C13519527   6.219   5.566   2.219 -0.3875  0.2910 -0.4943
   97MOL   N13619528   6.294   5.682   2.176  0.3599 -0.0867  0.1988
   97MOL   H13719529   6.020   5.503   2.271 -0.3507  0.5249  0.2056
   97MOL   H13819530   6.045   5.675   2.256  1.6775 -0.8601  4.4766
   97MOL   H13919531   6.248   5.553   2.323 -1.3436  0.1693 -0.2328
   97MOL   H14019532   6.257   5.473   2.175 -2.2181 -0.6573 -0.1450
   97MOL   H14119533   6.240   5.764   2.156 -0.5903 -1.2280 -2.1894
   97MOL   C14219534   6.416   5.675   2.123  0.2351  0.1823  0.8373
   97MOL   O14319535   6.492   5.577   2.135  0.2323 -0.6715 -0.0279
   97MOL   C14419536   6.447   5.798   2.042 -0.1402  0.4294 -0.2438
   97MOL   C14519537   6.334   5.830   1.937  0.1537 -0.1643 -0.1453
   97MOL   N14619538   6.396   5.884   1.812  0.3476  0.0777 -0.0854
   97MOL   H14719539   6.546   5.788   1.998  0.7160 -0.4548  1.8265
   97MOL   H14819540   6.456   5.885   2.107  0.4992 -0.1288  0.4148
   97MOL   H14919541   6.278   5.739   1.916 -1.5032  0.7619  0.1684
   97MOL   H15019542   6.273   5.909   1.981  2.0550  0.8573  0.7477
   97MOL   H15119543   6.488   5.921   1.825  0.6269  0.9724 -3.8311
   97MOL   C15219544   6.336   5.876   1.693 -0.6691 -0.2639  0.0973
   97MOL   O15319545   6.221   5.835   1.678  0.1098  0.3160 -0.3313
   97MOL   C15419546   6.421   5.916   1.573  0.2730 -0.1642  0.0049
   97MOL   C15519547   6.336   5.975   1.460  0.2727 -0.6336 -0.6694
   97MOL   N15619548   6.408   6.018   1.345 -0.2917  0.1100  0.8948
   97MOL   H15719549   6.467   5.825   1.536 -1.6453 -0.5035 -1.6396
   97MOL   H15819550   6.503   5.984   1.597  0.9051 -0.7504 -0.4725
   97MOL   H15919551   6.256   5.907   1.430  0.6476 -0.0620 -3.1359
   97MOL   H16019552   6.286   6.066   1.495 -0.0184  0.9361 -4.8371
   97MOL   H16119553   6.504   6.043   1.363  0.0592 -0.6656  0.1649
   97MOL   C16219554   6.352   6.031   1.226 -0.4292  0.7335  0.0588
   97MOL   O16319555   6.236   5.996   1.203 -0.1967 -0.1489  0.2072
   97MOL   C16419556   6.443   6.072   1.112  0.3950  0.4291 -0.5521
   97MOL   C16519557   6.362   6.187   1.047  0.7424 -0.2766 -0.1038
   97MOL   N16619558   6.439   6.253   0.944 -0.5912  0.3723  0.0031
   97MOL   H16719559   6.460   5.981   1.054 -0.3570 -0.9621  1.3391
   97MOL   H16819560   6.537   6.105   1.156  0.5017 -0.0870 -0.3826
   97MOL   H16919561   6.270   6.158   0.996  0.3136  1.0031 -0.0681
   97MOL   H17019562   6.352   6.263   1.125  3.0359 -0.1348  0.0783
   97MOL   H17119563   6.416   6.234   0.847 -1.1955 -0.3451  0.2827
   97MOL   C17219564   6.532   6.342   0.968 -0.6020 -0.0320  0.2614
   97MOL   O17319565   6.565   6.383   1.080  0.0195  0.2784 -0.5068
   97MOL   C17419566   6.619   6.392   0.852 -0.2021  0.0272 -0.7782
   97MOL   C17519567   6.757   6.444   0.888  0.2384  0.0563 -0.1785
   97MOL   N17619568   6.840   6.340   0.949 -0.3243 -0.5846  0.0729
   97MOL   H17719569   6.560   6.471   0.806 -1.2084 -2.4582 -3.8427
   97MOL   H17819570   6.630   6.307   0.786 -2.5071 -0.7734 -0.1644
   97MOL   H17919571   6.803   6.491   0.801  2.8742 -2.1123 -0.0252
   97MOL   H18019572   6.747   6.517   0.968  0.0256 -0.2199  0.0464
   97MOL   H18119573   6.841   6.352   1.050  1.0651  0.6401 -0.0776
   97MOL   C18219574   6.896   6.228   0.895 -0.0896  0.6297 -0.1666
   97MOL   O18319575   6.896   6.200   0.775 -0.1878 -0.0080 -0.0124
   97MOL   C18419576   6.942   6.120   0.987  0.1566 -0.3893 -0.1000
   97MOL   C18519577   6.874   5.984   0.962 -0.5874 -0.4419 -0.2192
   97MOL   N18619578   6.885   5.881   1.065  0.1386  0.7319  0.4220
   97MOL   H18719579   6.930   6.149   1.091  1.7364  2.1588 -0.6149
   97MOL   H18819580   7.049   6.104   0.976 -0.0091 -1.0887 -0.7892
   97MOL   H18919581   6.766   6.000   0.956 -0.7378 -1.5093 -0.5160
   97MOL   H19019582   6.902   5.947   0.863 -1.5259 -0.9372 -0.3050
   97MOL   H19119583   6.976   5.860   1.104  0.3932 -0.4138 -0.7831
   97MOL   C19219584   6.782   5.803   1.106 -0.3984  0.1185 -0.0672
   97MOL   O19319585   6.672   5.804   1.055 -1.1033 -0.2112  0.1244
   97MOL   C19419586   6.815   5.711   1.220  0.1042 -0.3149 -0.6959
   97MOL   C19519587   6.687   5.664   1.294 -0.2106 -0.6763  0.2825
   97MOL   N19619588   6.720   5.600   1.419 -0.5674  0.7339  0.1900
   97MOL   H19719589   6.869   5.626   1.178  1.9474 -0.5780  2.1067
   97MOL   H19819590   6.888   5.762   1.283 -0.8582  1.5908 -1.0624
   97MOL   H19919591   6.632   5.757   1.306  1.2167  0.1549  0.5108
   97MOL   H20019592   6.626   5.601   1.229 -0.3369 -0.1588 -0.0998
   97MOL   H20119593   6.786   5.662   1.462  0.5649 -2.1650  2.8241
   97MOL   H20219594   6.647   5.588   1.487  0.1226 -1.7216  0.5547
   98MOL     C119595   3.593   4.421   4.426 -0.1526  0.2085  0.2286
   98MOL     O219596   3.598   4.507   4.517  0.1065  0.5059  0.2055
   98MOL     C319597   3.620   4.476   4.280  0.2720  0.1458  0.1073
   98MOL     C419598   3.489   4.510   4.205  0.1627  0.2184 -0.0348
   98MOL     N519599   3.403   4.401   4.156 -0.4409 -0.2104 -0.1467
   98MOL     H619600   3.664   4.404   4.212 -0.1440 -0.7984  0.8271
   98MOL     H719601   3.691   4.558   4.288  2.4012 -1.4783 -1.5118
   98MOL     H819602   3.515   4.565   4.115 -0.1299  1.3224  0.5429
   98MOL     H919603   3.439   4.580   4.272  1.9761  0.5380  1.0166
   98MOL    H1019604   3.395   4.397   4.056 -0.8631  0.5795 -0.1486
   98MOL    H1119605   3.542   4.325   4.428 -2.5595  1.3943 -1.2305
   98MOL    C1219606   3.315   4.340   4.240 -0.1112  0.8448  0.4494
   98MOL    O1319607   3.297   4.367   4.359  0.8740 -0.4149 -0.3276
   98MOL    C1419608   3.221   4.243   4.172 -0.8095  0.1693  0.3724
   98MOL    C1519609   3.220   4.098   4.231 -0.1214 -0.4207  0.4983
   98MOL    N1619610   3.129   4.030   4.142  0.5363 -0.7197 -0.5198
   98MOL    H1719611   3.263   4.238   4.072  0.3180 -1.1047  0.8957
   98MOL    H1819612   3.123   4.291   4.166 -0.6891  0.2785 -0.6591
   98MOL    H1919613   3.322   4.058   4.221 -0.5020 -2.0072  2.6282
   98MOL    H2019614   3.193   4.099   4.336  0.0607  0.8873  0.5349
   98MOL    H2119615   3.156   4.028   4.044  1.9331 -2.7899 -0.1269
   98MOL    C2219616   3.021   3.967   4.177  0.1112  0.2373 -1.1541
   98MOL    O2319617   2.978   3.961   4.293  0.1203  0.3896  0.6912
   98MOL    C2419618   2.922   3.926   4.063  0.2880 -0.4323 -0.0508
   98MOL    C2519619   2.819   4.043   4.040  0.2733 -0.5699  1.0413
   98MOL    N2619620   2.761   4.046   3.904 -0.1760  1.4304  0.2955
   98MOL    H2719621   2.862   3.837   4.080  2.1292 -2.1171 -2.0641
   98MOL    H2819622   2.994   3.916   3.981 -0.8217 -1.6885 -0.8958
   98MOL    H2919623   2.734   4.012   4.100 -1.5027  0.7658 -0.7288
   98MOL    H3019624   2.860   4.140   4.070  1.7763 -0.1926 -2.0398
   98MOL    H3119625   2.699   3.969   3.880  1.4929  0.1220  0.1145
   98MOL    C3219626   2.765   4.150   3.826  0.7935  0.2953 -0.5207
   98MOL    O3319627   2.825   4.252   3.851  0.0424 -0.5047  0.3053
   98MOL    C3419628   2.693   4.145   3.691  0.6256 -0.1938 -0.0654
   98MOL    C3519629   2.552   4.204   3.671  0.8234 -0.0748  0.0186
   98MOL    N3619630   2.453   4.101   3.730  0.1874 -1.0350 -0.2517
   98MOL    H3719631   2.705   4.042   3.655  0.1716 -0.4301  0.4538
   98MOL    H3819632   2.743   4.207   3.616 -2.0193 -0.8750 -2.4957
   98MOL    H3919633   2.559   4.303   3.716 -0.0370  1.8531 -3.8780
   98MOL    H4019634   2.536   4.223   3.565  0.4555  1.4759  0.3350
   98MOL    H4119635   2.459   4.101   3.831 -0.6809 -4.2181 -0.1675
   98MOL    C4219636   2.389   4.003   3.668  0.9845 -0.2093 -0.7977
   98MOL    O4319637   2.396   3.990   3.543  0.0675 -0.2745 -1.1233
   98MOL    C4419638   2.291   3.917   3.753 -0.2508  0.0915  0.3340
   98MOL    C4519639   2.233   3.987   3.879  0.9878  1.0627 -0.6597
   98MOL    N4619640   2.293   3.949   4.007  0.4427  0.0984 -0.0065
   98MOL    H4719641   2.208   3.881   3.692  0.3602 -2.4879  0.9443
   98MOL    H4819642   2.350   3.833   3.791  0.5764  0.3267 -0.4126
   98MOL    H4919643   2.232   4.094   3.862  0.6452  0.8681 -1.9347
   98MOL    H5019644   2.129   3.959   3.897  1.9607 -1.0004  2.0679
   98MOL    H5119645   2.286   3.855   4.043  0.3457  0.0832 -0.0636
   98MOL    C5219646   2.371   4.038   4.069  0.6348 -1.5020  0.2473
   98MOL    O5319647   2.400   4.143   4.015 -0.3109 -0.6567  0.2654
   98MOL    C5419648   2.425   3.994   4.203  0.5047 -0.3529 -0.6153
   98MOL    C5519649   2.327   4.005   4.316 -0.0540 -0.2796 -0.0075
   98MOL    N5619650   2.333   4.137   4.373 -0.0850  0.5240 -0.7394
   98MOL    H5719651   2.443   3.888   4.182 -1.5200 -0.8197 -0.0997
   98MOL    H5819652   2.520   4.042   4.226  1.4903 -1.8851 -1.3569
   98MOL    H5919653   2.360   3.944   4.400 -2.3429 -1.0534  0.3763
   98MOL    H6019654   2.225   3.978   4.288  0.3487 -2.6488  0.7248
   98MOL    H6119655   2.404   4.157   4.441 -1.0960  1.8610 -0.0464
   98MOL    C6219656   2.254   4.243   4.342  0.4480 -0.4159  0.5997
   98MOL    O6319657   2.167   4.232   4.255 -0.3824  0.2638  0.2173
   98MOL    C6419658   2.285   4.379   4.400 -0.0623 -0.1000  0.1136
   98MOL    C6519659   2.331   4.483   4.286 -0.2704  0.2421  0.0044
   98MOL    N6619660   2.469   4.470   4.239 -0.1750 -0.3636 -0.0163
   98MOL    H6719661   2.190   4.409   4.444  0.7256  2.7973 -0.0130
   98MOL    H6819662   2.352   4.372   4.485  1.3796 -1.2993 -1.0790
   98MOL    H6919663   2.255   4.474   4.207 -1.5817  0.7246  1.1909
   98MOL    H7019664   2.326   4.587   4.317  1.2942  0.4744 -0.4787
   98MOL    H7119665   2.542   4.466   4.309 -0.6419 -0.2427  0.4751
   98MOL    C7219666   2.495   4.475   4.106  0.5767  0.7478  0.3066
   98MOL    O7319667   2.412   4.507   4.020  0.1361 -0.1350 -0.7352
   98MOL    C7419668   2.640   4.461   4.062  0.2299 -0.1969 -0.2159
   98MOL    C7519669   2.707   4.598   4.049 -0.6510 -0.2290 -0.2273
   98MOL    N7619670   2.649   4.687   3.949 -0.9728  0.0374  0.0045
   98MOL    H7719671   2.697   4.391   4.123 -0.4874  0.7431  1.5933
   98MOL    H7819672   2.630   4.406   3.969 -1.0897  0.6465 -0.5825
   98MOL    H7919673   2.702   4.652   4.144 -0.1974 -3.5782  1.7959
   98MOL    H8019674   2.811   4.581   4.025 -1.0802  0.4563 -2.6626
   98MOL    H8119675   2.586   4.658   3.876  0.2000  1.9452 -1.8213
   98MOL    C8219676   2.678   4.818   3.939  0.5896  0.0666 -0.2253
   98MOL    O8319677   2.755   4.876   4.011  0.6798  0.5588 -0.2626
   98MOL    C8419678   2.615   4.888   3.822 -0.3778 -0.8769  0.5699
   98MOL    C8519679   2.610   5.042   3.832  0.1687 -0.3104  0.0284
   98MOL    N8619680   2.524   5.094   3.939  0.4952 -0.3838  0.5044
   98MOL    H8719681   2.677   4.866   3.735  0.8910  0.5520  1.0868
   98MOL    H8819682   2.523   4.832   3.806  1.1436 -3.5537  0.7739
   98MOL    H8919683   2.710   5.080   3.852  0.3296 -0.7053 -0.0246
   98MOL    H9019684   2.590   5.089   3.736 -2.2468 -1.9237 -0.3015
   98MOL    H9119685   2.436   5.044   3.944 -1.3821  2.7683  0.0783
   98MOL    C9219686   2.534   5.204   4.014  0.0949 -1.0393 -0.0318
   98MOL    O9319687   2.625   5.288   4.005 -0.1081 -0.1319  1.0064
   98MOL    C9419688   2.411   5.236   4.090 -0.3000  0.7761  0.0169
   98MOL    C9519689   2.409   5.366   4.169 -0.2458 -0.0061  0.6577
   98MOL    N9619690   2.458   5.354   4.304 -0.1455  0.0390 -0.2256
   98MOL    H9719691   2.332   5.243   4.015 -0.0814  0.9729 -0.1935
   98MOL    H9819692   2.379   5.156   4.156  1.7826  1.7392  2.2672
   98MOL    H9919693   2.478   5.436   4.123 -2.0285  0.6283 -1.1290
   98MOL   H10019694   2.309   5.408   4.165  0.0903  0.6042 -2.6747
   98MOL   H10119695   2.549   5.320   4.333 -0.4364 -0.4396  0.1196
   98MOL   C10219696   2.400   5.381   4.422  0.5230  0.3432  0.4736
   98MOL   O10319697   2.289   5.425   4.438  0.3919  0.1218 -0.1248
   98MOL   C10419698   2.478   5.339   4.553  0.2330 -0.3626  0.4306
   98MOL   C10519699   2.400   5.342   4.674 -0.4959 -0.5542 -0.5101
   98MOL   N10619700   2.296   5.238   4.684  0.0933  0.1384  0.3810
   98MOL   H10719701   2.567   5.401   4.561 -1.3763  2.0478  0.5225
   98MOL   H10819702   2.513   5.238   4.535  0.2712  0.0531 -1.8998
   98MOL   H10919703   2.457   5.340   4.767  1.6003  2.2073 -1.6712
   98MOL   H11019704   2.340   5.431   4.693  0.6084 -0.2309  1.7032
   98MOL   H11119705   2.242   5.214   4.602 -2.8163 -1.7545  2.7561
   98MOL   C11219706   2.241   5.190   4.797 -0.3141 -0.1932  0.2554
   98MOL   O11319707   2.289   5.208   4.913 -0.8658  0.4331  0.1841
   98MOL   C11419708   2.114   5.106   4.767 -0.6080 -0.0623 -0.0676
   98MOL   C11519709   1.979   5.162   4.822 -0.0857  0.0880  0.5068
   98MOL   N11619710   1.924   5.274   4.746 -0.2118  0.0636  0.9412
   98MOL   H11719711   2.123   5.006   4.809  0.2867  0.5962  1.3348
   98MOL   H11819712   2.087   5.098   4.661  2.5669 -0.6815 -0.8993
   98MOL   H11919713   1.904   5.083   4.831 -2.1726  1.8856 -0.6988
   98MOL   H12019714   2.004   5.191   4.924 -1.0332  0.8964  0.5122
   98MOL   H12119715   1.971   5.364   4.752 -0.2053  0.0803  0.6477
   98MOL   C12219716   1.811   5.292   4.670  0.7110  0.2658  0.6285
   98MOL   O12319717   1.722   5.206   4.665 -0.1108 -0.3961  0.2184
   98MOL   C12419718   1.796   5.421   4.579 -0.3250 -0.0425  0.1913
   98MOL   C12519719   1.743   5.402   4.438  0.5482  0.7913  0.3293
   98MOL   N12619720   1.850   5.363   4.347 -0.9607 -0.6318  0.1770
   98MOL   H12719721   1.893   5.470   4.568 -0.7659  0.8278  0.1724
   98MOL   H12819722   1.727   5.493   4.623 -0.1674  0.6589 -0.6914
   98MOL   H12919723   1.658   5.333   4.434  1.9929 -0.9656 -0.9253
   98MOL   H13019724   1.711   5.497   4.395  1.5884  0.9486 -0.1090
   98MOL   H13119725   1.928   5.334   4.405 -1.6487 -1.7371  0.5516
   98MOL   C13219726   1.843   5.330   4.220  0.3397  0.4748 -0.7561
   98MOL   O13319727   1.746   5.366   4.151 -0.4079 -0.4096 -0.8305
   98MOL   C13419728   1.962   5.257   4.154  0.3117  0.1108 -0.4440
   98MOL   C13519729   1.958   5.109   4.142 -0.0704  0.3542  0.0630
   98MOL   N13619730   1.909   5.040   4.258 -0.3523  0.3451 -0.7296
   98MOL   H13719731   2.037   5.264   4.232 -0.1345 -1.1629  0.1278
   98MOL   H13819732   1.992   5.308   4.062 -0.8178  0.6349 -0.5297
   98MOL   H13919733   1.892   5.085   4.059 -0.8547 -1.8518  1.2828
   98MOL   H14019734   2.056   5.078   4.106 -0.2476 -1.1628  0.8596
   98MOL   H14119735   1.834   4.975   4.242  1.4141 -1.6939 -0.9362
   98MOL   C14219736   1.959   5.044   4.386 -0.0300  0.2279  0.0012
   98MOL   O14319737   2.050   5.115   4.415 -0.1924  0.0418  0.1044
   98MOL   C14419738   1.877   4.972   4.494 -0.3852 -0.1494 -0.7241
   98MOL   C14519739   1.935   4.832   4.530 -0.3116 -0.6082  0.4926
   98MOL   N14619740   1.878   4.722   4.452  0.5495  0.0416 -0.6904
   98MOL   H14719741   1.771   4.964   4.472 -0.1021  0.8568 -2.5697
   98MOL   H14819742   1.885   5.035   4.582  0.0860 -2.1849  0.7207
   98MOL   H14919743   2.043   4.820   4.542 -0.3437 -1.0756  0.3227
   98MOL   H15019744   1.901   4.808   4.630  1.5345 -4.1390  0.3461
   98MOL   H15119745   1.778   4.708   4.457  0.4981  0.1153 -1.4256
   98MOL   C15219746   1.940   4.646   4.369 -0.1505 -0.1356  0.0262
   98MOL   O15319747   2.062   4.649   4.347 -0.5049  0.1378  0.0855
   98MOL   C15419748   1.865   4.522   4.314 -0.1327  0.4215  0.1788
   98MOL   C15519749   1.849   4.522   4.163  0.1608 -0.0935 -0.3356
   98MOL   N15619750   1.962   4.456   4.098 -0.4331  0.8058 -0.0981
   98MOL   H15719751   1.766   4.514   4.359 -0.8425  0.1791 -1.3899
   98MOL   H15819752   1.911   4.434   4.359  1.9752  1.7944  0.7774
   98MOL   H15919753   1.763   4.461   4.135 -1.1853  0.2772  2.7349
   98MOL   H16019754   1.839   4.622   4.121 -1.1089  0.7436  1.8230
   98MOL   H16119755   2.038   4.433   4.161 -0.6876  1.2023  0.3609
   98MOL   C16219756   1.973   4.421   3.969 -0.0480  0.1018  0.4453
   98MOL   O16319757   1.883   4.446   3.888  0.0314 -0.5793 -0.0520
   98MOL   C16419758   2.100   4.340   3.925 -0.5541 -0.4212 -0.3533
   98MOL   C16519759   2.121   4.316   3.779 -0.7591 -0.2688  0.0739
   98MOL   N16619760   2.034   4.220   3.714 -0.1592  0.5002  0.0269
   98MOL   H16719761   2.101   4.244   3.977 -1.4474  0.6279  1.6395
   98MOL   H16819762   2.185   4.396   3.962 -1.2928 -0.8905  2.1975
   98MOL   H16919763   2.106   4.414   3.735  0.2727 -0.4096 -0.6081
   98MOL   H17019764   2.222   4.279   3.759 -0.9530  0.2833 -1.9996
   98MOL   H17119765   1.951   4.188   3.762  0.2946 -0.1963  0.3454
   98MOL   C17219766   2.059   4.177   3.591  0.4189  0.4179 -0.2314
   98MOL   O17319767   2.144   4.239   3.526  0.2550 -0.6097  0.2378
   98MOL   C17419768   1.979   4.059   3.528  0.4639  0.5361  0.1654
   98MOL   C17519769   1.996   4.036   3.375 -0.0232 -0.1830 -0.0576
   98MOL   N17619770   2.115   3.957   3.350 -0.0504 -0.0109 -0.0704
   98MOL   H17719771   1.874   4.060   3.560  0.5990 -1.2486  0.7119
   98MOL   H17819772   2.026   3.968   3.566 -1.5421 -0.3223  0.6926
   98MOL   H17919773   1.912   3.999   3.317  0.4380  0.4856 -1.1825
   98MOL   H18019774   2.016   4.130   3.324  0.7237 -1.1312 -1.5477
   98MOL   H18119775   2.199   3.994   3.392 -1.1589  0.0426  2.1685
   98MOL   C18219776   2.138   3.857   3.261  0.0676  0.0781 -0.5596
   98MOL   O18319777   2.052   3.810   3.184 -0.3937 -0.2914 -0.0984
   98MOL   C18419778   2.282   3.799   3.256 -0.5166 -0.6316 -0.1710
   98MOL   C18519779   2.305   3.675   3.168  0.4093 -0.1502 -0.2049
   98MOL   N18619780   2.322   3.698   3.027 -0.0470  0.2777  0.5737
   98MOL   H18719781   2.299   3.776   3.361  1.3558  0.8565 -0.1260
   98MOL   H18819782   2.358   3.876   3.255 -2.1309  0.9996 -1.6371
   98MOL   H18919783   2.397   3.622   3.190 -0.5172 -2.8754 -2.6076
   98MOL   H19019784   2.238   3.590   3.176  0.3226  0.0503  1.3512
   98MOL   H19119785   2.277   3.638   2.959 -4.4585  3.6051  0.3261
   98MOL   C19219786   2.394   3.794   2.963  0.2982  0.5669 -0.2630
   98MOL   O19319787   2.442   3.890   3.023  0.2920 -0.0607 -0.1295
   98MOL   C19419788   2.411   3.781   2.812 -0.1926 -0.1234 -0.9016
   98MOL   C19519789   2.550   3.824   2.762 -0.1698  0.0568 -0.0812
   98MOL   N19619790   2.655   3.719   2.753  0.1435 -0.1920  0.0591
   98MOL   H19719791   2.374   3.693   2.761  0.6270 -1.7447  1.2157
   98MOL   H19819792   2.330   3.848   2.783  0.2418  0.5182 -0.6527
   98MOL   H19919793   2.539   3.875   2.665 -0.2502 -0.6885 -0.4652
   98MOL   H20019794   2.609   3.892   2.823  0.3913 -1.1778  0.7488
   98MOL   H20119795   2.721   3.726   2.829  1.2981 -1.6330 -0.7907
   98MOL   H20219796   2.711   3.733   2.670 -2.0894 -0.3481 -1.5176
   99MOL     C119797   7.721   5.329   1.213 -0.1294  0.4751  0.4895
   99MOL     O219798   7.777   5.236   1.156 -0.1007  0.0995 -0.1629
   99MOL     C319799   7.671   5.451   1.132 -0.5972 -0.5619  0.3027
   99MOL     C419800   0.008   5.507   1.057 -0.0827 -0.2085  0.2867
   99MOL     N519801   7.765   5.646   1.015  0.3396  0.1074 -0.0736
   99MOL     H619802   7.634   5.527   1.200  3.6009  2.2226 -0.3686
   99MOL     H719803   7.599   5.422   1.055 -1.9608 -0.8409  1.6703
   99MOL     H819804   0.028   5.441   0.973  0.0868  1.1075 -0.7247
   99MOL     H919805   0.098   5.514   1.118 -2.2573  0.6491  3.5853
   99MOL    H1019806   7.742   5.658   0.917 -0.5572 -2.8431 -0.2987
   99MOL    H1119807   7.715   5.347   1.321  1.9018 -0.0201  0.7068
   99MOL    C1219808   7.780   5.752   1.094 -0.6730  0.0963  0.1987
   99MOL    O1319809   0.037   5.744   1.211  0.0786 -0.3775 -0.3581
   99MOL    C1419810   7.749   5.886   1.028  0.6160 -0.3251 -0.1491
   99MOL    C1519811   7.739   6.005   1.127  0.1560 -0.4934 -0.0914
   99MOL    N1619812   0.085   6.070   1.143  0.3767  0.7466  0.1801
   99MOL    H1719813   7.664   5.879   0.960  1.1952  0.1299 -0.9321
   99MOL    H1819814   0.051   5.896   0.957  0.3342 -0.8731 -0.5595
   99MOL    H1919815   7.672   6.072   1.072  1.2613 -1.1629 -2.3175
   99MOL    H2019816   7.691   5.985   1.222 -2.6038  2.0928 -0.8613
   99MOL    H2119817   0.140   6.055   1.060 -1.9357 -2.6601 -0.8225
   99MOL    C2219818   0.123   6.143   1.251 -0.0828  0.5018  0.3049
   99MOL    O2319819   0.046   6.151   1.350 -0.2780  0.2280 -0.0148
   99MOL    C2419820   0.251   6.214   1.235 -0.5491 -0.6618  0.5113
   99MOL    C2519821   0.267   6.334   1.327  0.0764  0.0833  0.5080
   99MOL    N2619822   0.264   6.302   1.470  0.1277  0.5936 -0.2951
   99MOL    H2719823   0.250   6.253   1.133 -0.2400  0.9413  1.1048
   99MOL    H2819824   0.336   6.147   1.244  0.3739  0.5846  1.2464
   99MOL    H2919825   0.354   6.396   1.305 -0.7877  1.3048  0.4387
   99MOL    H3019826   0.185   6.405   1.315 -0.0963  0.2832  2.7002
   99MOL    H3119827   0.180   6.249   1.490  0.0599  0.8960  0.2348
   99MOL    C3219828   0.334   6.351   1.572 -0.3135 -0.0379  0.1325
   99MOL    O3319829   0.419   6.434   1.552  0.4062  0.0956  1.0150
   99MOL    C3419830   0.303   6.299   1.707  0.0162  0.2096 -0.0037
   99MOL    C3519831   0.272   6.412   1.804  0.5267 -0.6129  0.1991
   99MOL    N3619832   0.259   6.377   1.941 -0.2675 -0.1357  0.0308
   99MOL    H3719833   0.384   6.233   1.739  1.5729  3.1570  2.3555
   99MOL    H3819834   0.226   6.223   1.694 -0.0348  0.3368 -0.4712
   99MOL    H3919835   0.348   6.487   1.783 -2.9586  2.5232 -2.0555
   99MOL    H4019836   0.177   6.463   1.784  1.0256  0.9816  1.8069
   99MOL    H4119837   0.171   6.404   1.984 -0.4032  0.5334 -0.6432
   99MOL    C4219838   0.354   6.323   2.016  0.1654  0.0565  0.0375
   99MOL    O4319839   0.463   6.299   1.974  0.5183 -0.2168 -0.0050
   99MOL    C4419840   0.322   6.307   2.159 -0.8059 -0.3595 -0.4425
   99MOL    C4519841   0.439   6.254   2.241 -0.2913 -0.1118  0.2030
   99MOL    N4619842   0.381   6.177   2.354  0.3396  0.1948 -0.2130
   99MOL    H4719843   0.296   6.403   2.205  1.0160 -0.1980  0.2856
   99MOL    H4819844   0.244   6.232   2.159 -1.4914  0.3451  0.6106
   99MOL    H4919845   0.516   6.196   2.191 -2.3597 -2.4328 -0.3773
   99MOL    H5019846   0.482   6.333   2.303 -0.6171  1.5102 -1.5935
   99MOL    H5119847   0.385   6.206   2.450  3.5728  3.2531 -1.1471
   99MOL    C5219848   0.332   6.052   2.339  0.0915 -0.0589 -0.1850
   99MOL    O5319849   0.339   5.991   2.232 -0.0421 -0.3566 -0.7241
   99MOL    C5419850   0.258   5.991   2.464 -0.0860  0.8285  0.0224
   99MOL    C5519851   0.107   5.974   2.448  0.8110 -0.0033  0.5439
   99MOL    N5619852   0.035   6.099   2.493 -0.1234 -0.1643 -0.1179
   99MOL    H5719853   0.302   5.893   2.483  0.2656  0.9257 -0.2875
   99MOL    H5819854   0.288   6.059   2.543 -0.5602  0.3743  0.5991
   99MOL    H5919855   0.067   5.895   2.511 -0.3569  0.7736  0.7772
   99MOL    H6019856   0.068   5.946   2.350  1.3778  2.8396 -0.5380
   99MOL    H6119857   0.064   6.192   2.468 -1.3522  0.5003  0.8645
   99MOL    C6219858   7.709   6.116   2.572  0.4643 -0.2044 -0.0954
   99MOL    O6319859   7.663   6.032   2.645 -0.2462  0.4450  0.8288
   99MOL    C6419860   7.629   6.245   2.543  0.3588  0.3602  0.1129
   99MOL    C6519861   7.657   6.359   2.646 -0.0323 -0.6054 -0.6834
   99MOL    N6619862   7.760   6.458   2.619  0.3550 -0.4343 -0.1356
   99MOL    H6719863   7.635   6.275   2.439  0.1057  1.5303  0.4279
   99MOL    H6819864   7.524   6.218   2.557  0.4942 -1.1235 -1.6538
   99MOL    H6919865   7.565   6.417   2.659  0.7184  0.2964  0.7126
   99MOL    H7019866   7.678   6.318   2.745  1.4203  2.1915  0.2311
   99MOL    H7119867   0.003   6.506   2.705 -0.9420 -1.2848  0.7113
   99MOL    C7219868   0.066   6.465   2.523 -0.1614 -0.4010 -0.1469
   99MOL    O7319869   0.054   6.396   2.417  0.5982 -0.7900  0.4790
   99MOL    C7419870   0.181   6.568   2.549 -1.3329  0.5307  0.7970
   99MOL    C7519871   0.286   6.562   2.434  0.4976 -0.3440 -0.0653
   99MOL    N7619872   0.412   6.635   2.453  0.2159 -0.0180 -0.5569
   99MOL    H7719873   0.141   6.669   2.559 -0.9755  0.6624  0.9197
   99MOL    H7819874   0.243   6.537   2.633  0.9220 -0.1756 -1.0743
   99MOL    H7919875   0.307   6.456   2.423 -0.3776 -0.6112  0.8463
   99MOL    H8019876   0.238   6.603   2.346  0.7863  0.5238  0.1685
   99MOL    H8119877   0.497   6.581   2.461 -0.1585 -0.7968 -1.6827
   99MOL    C8219878   0.416   6.769   2.455  0.0301 -0.1268 -0.0593
   99MOL    O8319879   0.314   6.833   2.430  0.1981  0.1808  0.1959
   99MOL    C8419880   0.551   6.836   2.469  0.4457 -0.6304 -0.1561
   99MOL    C8519881   0.561   6.977   2.405  0.1615 -0.7408  0.3854
   99MOL    N8619882   0.461   7.075   2.471 -0.0347 -0.4763  0.2790
   99MOL    H8719883   0.580   6.826   2.573 -1.3770 -3.1422  0.1410
   99MOL    H8819884   0.619   6.771   2.413 -1.2903 -0.5293 -2.4312
   99MOL    H8919885   0.654   7.032   2.423 -0.9151  1.4178 -0.4255
   99MOL    H9019886   0.530   6.975   2.301  0.1643 -1.2381  0.3958
   99MOL    H9119887   0.369   7.076   2.429 -0.4865 -2.1644  1.1727
   99MOL    C9219888   0.475   7.167   2.571  0.4183  0.4693  0.2588
   99MOL    O9319889   0.582   7.190   2.622 -0.2723  0.0993  0.4491
   99MOL    C9419890   0.349   7.245   2.620 -0.0555 -0.6558  0.1811
   99MOL    C9519891   0.381   7.363   2.717 -0.0307 -0.2926  0.4903
   99MOL    N9619892   0.492   7.450   2.671 -0.0228 -0.3969 -0.0647
   99MOL    H9719893   0.297   7.270   2.527  2.0036  0.2735 -0.7628
   99MOL    H9819894   0.284   7.176   2.674 -1.6095 -0.0656 -0.8997
   99MOL    H9919895   0.292   7.426   2.720  0.7272  0.7407  1.7247
   99MOL   H10019896   0.391   7.329   2.820 -1.8160 -0.4720  0.6308
   99MOL   H10119897   0.575   7.396   2.648 -0.3255 -1.8403  2.0663
   99MOL   C10219898   0.505   7.583   2.664 -0.2328 -0.1067 -0.0732
   99MOL   O10319899   0.407   7.662   2.670  0.1003  0.0103  0.2797
   99MOL   C10419900   0.648   7.642   2.645  0.4698  0.9053 -0.0101
   99MOL   C10519901   0.719   7.690   2.766 -0.2608  0.3622  0.3303
   99MOL   N10619902   0.828   0.001   2.740  0.2641  0.4632 -0.8587
   99MOL   H10719903   0.640   7.733   2.585  1.4232  0.8990 -0.1439
   99MOL   H10819904   0.710   7.574   2.587  1.9725  1.5001  0.8587
   99MOL   H10919905   0.640   7.741   2.821 -0.0595  1.5790 -0.4967
   99MOL   H11019906   0.752   7.602   2.822  0.2616 -1.3740 -2.5705
   99MOL   H11119907   0.810   0.091   2.699  3.7350  1.2540 -0.7567
   99MOL   C11219908   0.959   7.763   2.759  0.5960 -0.4467 -0.5271
   99MOL   O11319909   1.034   0.071   2.719  0.4027  0.5883  0.8020
   99MOL   C11419910   1.018   7.642   2.835  0.3490  0.0964 -0.1601
   99MOL   C11519911   1.049   7.665   2.980 -0.0802  0.3617 -0.1583
   99MOL   N11619912   1.114   7.555   3.058  0.5025  0.2019  0.0113
   99MOL   H11719913   1.114   7.616   2.791  0.7030  1.9625 -0.5317
   99MOL   H11819914   0.963   7.551   2.812 -1.1732  1.0610 -0.4795
   99MOL   H11919915   1.106   7.757   2.995 -0.1208  0.0159  2.4245
   99MOL   H12019916   0.960   7.681   3.040  0.1887 -2.6799  1.1407
   99MOL   H12119917   1.215   7.557   3.071  0.3169  0.8166  1.4393
   99MOL   C12219918   1.059   7.445   3.109 -0.4362 -0.2245  0.2654
   99MOL   O12319919   0.940   7.422   3.089  0.2014  0.3870  0.5188
   99MOL   C12419920   1.146   7.346   3.191 -0.2315 -0.1358 -0.4223
   99MOL   C12519921   1.071   7.216   3.230  0.3211  0.7077  0.5734
   99MOL   N12619922   1.163   7.129   3.297  0.5971  0.6408 -0.2140
   99MOL   H12719923   1.187   7.401   3.275  1.5590  1.9116 -2.5648
   99MOL   H12819924   1.228   7.336   3.119 -0.2937  2.9738 -0.9764
   99MOL   H12919925   0.977   7.235   3.282  0.0486 -0.6142  0.5603
   99MOL   H13019926   1.054   7.172   3.132 -1.2525  0.4426  0.9589
   99MOL   H13119927   1.252   7.120   3.249  1.2940  0.8664  1.0346
   99MOL   C13219928   1.137   7.041   3.397 -0.3719 -0.1274  0.2489
   99MOL   O13319929   1.024   7.021   3.443 -0.5119 -0.2487 -0.2919
   99MOL   C13419930   1.257   6.962   3.440  0.2175 -0.8945 -0.1485
   99MOL   C13519931   1.259   6.821   3.393  0.0835  0.6799 -0.0346
   99MOL   N13619932   1.275   6.809   3.249 -0.4869 -0.6325  0.1136
   99MOL   H13719933   1.249   6.954   3.549  2.9279 -2.8685 -0.0308
   99MOL   H13819934   1.348   7.019   3.419 -0.4672 -0.7218 -2.7589
   99MOL   H13919935   1.346   6.770   3.434 -1.2686 -0.3310  1.6397
   99MOL   H14019936   1.176   6.760   3.428  0.5302  0.4979  0.7036
   99MOL   H14119937   1.339   6.876   3.209 -0.0291 -1.1247  0.0276
   99MOL   C14219938   1.201   6.741   3.165  0.5770 -0.0589 -0.3214
   99MOL   O14319939   1.104   6.677   3.194  0.0422 -0.0973 -0.0968
   99MOL   C14419940   1.221   6.774   3.017 -0.2970 -0.0481 -0.2533
   99MOL   C14519941   1.172   6.667   2.920  0.3101 -0.2125 -0.4512
   99MOL   N14619942   1.239   6.674   2.787 -0.0174 -0.4509  0.2180
   99MOL   H14719943   1.328   6.776   3.001 -0.2584 -0.2420 -0.0292
   99MOL   H14819944   1.178   6.874   3.006 -1.2186 -0.1424  2.1989
   99MOL   H14919945   1.192   6.569   2.964 -0.7052 -1.0966 -1.9248
   99MOL   H15019946   1.064   6.662   2.920  0.3002 -1.8977  3.4938
   99MOL   H15119947   1.292   6.757   2.763 -0.6056 -0.0847  0.1705
   99MOL   C15219948   1.233   6.583   2.689  0.6185  0.1120 -0.1597
   99MOL   O15319949   1.168   6.481   2.695 -0.1746 -0.0775 -0.1074
   99MOL   C15419950   1.296   6.638   2.562  0.0984  0.1967  0.0779
   99MOL   C15519951   1.272   6.559   2.436 -0.4408 -0.6640  0.0013
   99MOL   N15619952   1.395   6.556   2.347 -0.2722  0.5355 -0.7350
   99MOL   H15719953   1.402   6.633   2.584 -0.0846  0.2257  0.9677
   99MOL   H15819954   1.262   6.741   2.550 -1.6399 -0.3946 -0.2950
   99MOL   H15919955   1.248   6.457   2.466  1.0092 -0.4315  2.0035
   99MOL   H16019956   1.182   6.581   2.378 -0.8165 -2.6904 -0.2283
   99MOL   H16119957   1.485   6.534   2.387 -0.3523  2.1255  0.3691
   99MOL   C16219958   1.386   6.566   2.211  0.1154 -0.6437 -0.6317
   99MOL   O16319959   1.281   6.557   2.156  0.7031  0.5549 -0.3501
   99MOL   C16419960   1.512   6.592   2.126 -0.2304  0.6455  0.0365
   99MOL   C16519961   1.518   6.508   1.992 -0.3603 -0.2399 -0.2744
   99MOL   N16619962   1.556   6.368   2.023 -0.2202  0.5023 -0.0742
   99MOL   H16719963   1.605   6.585   2.181  0.9302 -2.6363 -2.2640
   99MOL   H16819964   1.503   6.696   2.093 -0.1472  0.1459 -1.5795
   99MOL   H16919965   1.416   6.505   1.953 -0.2920  0.8421 -0.5338
   99MOL   H17019966   1.578   6.568   1.925 -1.6869  1.9145  0.4340
   99MOL   H17119967   1.554   6.341   2.120 -0.8853  3.3170  0.7358
   99MOL   C17219968   1.613   6.283   1.942 -0.7047  0.0531 -0.6600
   99MOL   O17319969   1.639   6.302   1.823 -0.2029  0.3914  0.1737
   99MOL   C17419970   1.636   6.142   1.994  0.6309 -0.1548  0.0616
   99MOL   C17519971   1.777   6.122   2.049  0.4001 -0.4650 -0.0834
   99MOL   N17619972   1.772   6.053   2.177  0.3199  0.6986 -0.1212
   99MOL   H17719973   1.616   6.068   1.916  0.4993 -0.5206  0.4383
   99MOL   H17819974   1.558   6.121   2.067 -0.3442  2.5516 -0.1590
   99MOL   H17919975   1.843   6.075   1.976 -0.2428 -1.1989 -0.1948
   99MOL   H18019976   1.829   6.216   2.068  1.0658 -1.0575  1.0927
   99MOL   H18119977   1.689   6.076   2.230 -0.3000  0.2270 -0.8879
   99MOL   C18219978   1.822   5.937   2.220  0.4541 -0.3162  0.0637
   99MOL   O18319979   1.913   5.887   2.152 -0.6249  0.2539  0.0742
   99MOL   C18419980   1.773   5.866   2.353  0.0947  0.6088 -0.1451
   99MOL   C18519981   1.817   5.723   2.371  0.5663 -0.4916 -0.2536
   99MOL   N18619982   1.961   5.699   2.361 -0.1201  0.5649 -0.1800
   99MOL   H18719983   1.665   5.873   2.356 -0.0383 -1.8627  1.9666
   99MOL   H18819984   1.807   5.923   2.439  0.3211  0.4021 -0.0983
   99MOL   H18919985   1.782   5.683   2.466  1.1708  0.3272  0.3175
   99MOL   H19019986   1.760   5.662   2.300 -0.7274 -1.1409  1.2975
   99MOL   H19119987   2.011   5.734   2.281 -2.1200  1.1052 -1.2319
   99MOL   C19219988   2.054   5.664   2.454  0.3353 -0.1535  1.2268
   99MOL   O19319989   2.017   5.620   2.563  0.1787  0.0759  0.3028
   99MOL   C19419990   2.201   5.685   2.418 -0.4248  0.1433  0.4826
   99MOL   C19519991   2.289   5.555   2.429  0.0551  0.8426 -0.3314
   99MOL   N19619992   2.248   5.452   2.330  0.6900 -0.1130 -0.0238
   99MOL   H19719993   2.225   5.730   2.321 -2.1507 -1.7388 -0.8557
   99MOL   H19819994   2.233   5.761   2.489 -2.0771 -0.2617  1.6903
   99MOL   H19919995   2.395   5.577   2.422  0.7480 -0.9675  2.9784
   99MOL   H20019996   2.265   5.510   2.526  0.6584 -1.1167 -1.0625
   99MOL   H20119997   2.324   5.386   2.324 -0.1787 -1.0639 -0.8437
   99MOL   H20219998   2.176   5.395   2.372  0.8755 -0.4467 -0.1620
  100MOL     C119999   0.554   3.541   2.426  0.0558 -0.2193  0.0825
  100MOL     O220000   0.501   3.653   2.415 -0.2778  0.2094 -0.0534
  100MOL     C320001   0.657   3.481   2.332 -0.3012 -0.9439  0.1110
  100MOL     C420002   0.799   3.480   2.376 -0.1475 -0.1606 -0.1959
  100MOL     N520003   0.817   3.381   2.485  0.3502  0.7926 -0.1322
  100MOL     H620004   0.648   3.515   2.229 -0.2491 -1.0503  0.0715
  100MOL     H720005   0.623   3.378   2.318 -0.2971 -0.5754 -2.8549
  100MOL     H820006   0.823   3.581   2.408  0.1394 -0.1372 -0.4723
  100MOL     H920007   0.877   3.458   2.302  1.0995 -2.4162  1.7042
  100MOL    H1020008   0.826   3.407   2.582  0.3290 -1.4388  0.5052
  100MOL    H1120009   0.538   3.467   2.504  1.9130 -1.4125 -0.6433
  100MOL    C1220010   0.851   3.252   2.466  0.0442  0.7705 -0.3333
  100MOL    O1320011   0.839   3.188   2.360 -0.1774  0.4646  0.2538
  100MOL    C1420012   0.910   3.173   2.585 -0.1210  0.2907 -0.2157
  100MOL    C1520013   0.931   3.023   2.565 -0.5461  0.5144 -0.0341
  100MOL    N1620014   1.009   2.959   2.666 -0.1949 -0.8758 -0.3637
  100MOL    H1720015   0.832   3.186   2.659  0.4571 -2.0336  0.8792
  100MOL    H1820016   1.003   3.225   2.610 -0.9920  2.0025 -0.4883
  100MOL    H1920017   0.847   2.955   2.549 -0.6704  0.4124  1.0176
  100MOL    H2020018   0.996   3.017   2.478  0.4173 -1.1280  0.7981
  100MOL    H2120019   1.039   3.009   2.749  1.3200  0.0076 -1.4273
  100MOL    C2220020   1.079   2.843   2.644  0.9876  0.4174 -0.3270
  100MOL    O2320021   1.070   2.775   2.537 -0.1137 -0.2446 -0.0342
  100MOL    C2420022   1.169   2.793   2.757  0.8453 -0.7376 -0.0082
  100MOL    C2520023   1.216   2.649   2.733 -0.0800  0.1251 -0.4038
  100MOL    N2620024   1.111   2.551   2.745 -0.5671  0.0905 -0.6585
  100MOL    H2720025   1.110   2.781   2.848 -3.1256 -0.8195 -2.4639
  100MOL    H2820026   1.250   2.863   2.778 -0.4609  0.9098 -0.3625
  100MOL    H2920027   1.247   2.651   2.629  0.0830  2.1972 -0.3452
  100MOL    H3020028   1.303   2.626   2.795  1.8764  0.6664 -2.8575
  100MOL    H3120029   1.046   2.540   2.669  0.2106 -2.6954 -0.9588
  100MOL    C3220030   1.104   2.466   2.845 -0.6516 -0.0258  0.3237
  100MOL    O3320031   1.198   2.446   2.924 -0.1665  0.1618  0.2222
  100MOL    C3420032   0.989   2.369   2.841  0.0917  0.4196  0.2250
  100MOL    C3520033   0.857   2.412   2.912 -0.2302  0.5227 -0.5183
  100MOL    N3620034   0.862   2.434   3.056  0.0120 -0.3989 -0.5754
  100MOL    H3720035   1.022   2.275   2.885  1.0881  1.4691  1.7491
  100MOL    H3820036   0.955   2.353   2.739  1.2301  0.4133 -0.1593
  100MOL    H3920037   0.837   2.511   2.870  0.9329  1.1388  0.3668
  100MOL    H4020038   0.764   2.362   2.887 -0.8453  0.5062  1.7730
  100MOL    H4120039   0.916   2.514   3.087 -1.7475 -0.1406  2.0270
  100MOL    C4220040   0.808   2.364   3.155  0.2773  0.1898 -0.0477
  100MOL    O4320041   0.744   2.260   3.130 -0.0797  0.4010  1.1410
  100MOL    C4420042   0.820   2.417   3.300 -0.1015  0.4943  0.4913
  100MOL    C4520043   0.701   2.383   3.381 -0.1081  0.2174  0.1099
  100MOL    N4620044   0.666   2.489   3.471 -0.5343  0.5466  0.1093
  100MOL    H4720045   0.913   2.375   3.338  0.0664  1.1665  0.8370
  100MOL    H4820046   0.833   2.525   3.302 -0.5671  0.5440  1.1290
  100MOL    H4920047   0.615   2.370   3.315  0.2576 -1.4773 -0.0563
  100MOL    H5020048   0.696   2.288   3.435  1.4235  0.4346  0.6705
  100MOL    H5120049   0.671   2.587   3.446 -3.1910  0.3645 -1.3070
  100MOL    C5220050   0.610   2.476   3.588  0.0042 -0.6998  0.0164
  100MOL    O5320051   0.574   2.368   3.634  0.9322  0.0306  0.2841
  100MOL    C5420052   0.606   2.604   3.676  0.7195 -0.1609 -0.1238
  100MOL    C5520053   0.753   2.653   3.714 -0.8534 -0.3585 -0.3384
  100MOL    N5620054   0.841   2.558   3.779  0.7470 -0.2389  0.0275
  100MOL    H5720055   0.555   2.685   3.623 -1.2656 -0.6906  0.9604
  100MOL    H5820056   0.546   2.586   3.765  1.9604  0.3128  0.8344
  100MOL    H5920057   0.727   2.726   3.791 -0.7015  1.5053 -2.0245
  100MOL    H6020058   0.797   2.712   3.634 -1.5315  1.2046  0.4299
  100MOL    H6120059   0.813   2.529   3.871  1.8902 -1.3639  0.0377
  100MOL    C6220060   0.962   2.509   3.722  0.1034 -0.4808 -0.6164
  100MOL    O6320061   1.016   2.560   3.620 -0.1902 -0.6207  0.2462
  100MOL    C6420062   1.049   2.410   3.801  0.0861 -0.4303  0.2026
  100MOL    C6520063   1.186   2.461   3.841 -0.5413  0.5207 -0.0452
  100MOL    N6620064   1.269   2.498   3.726  0.4899 -0.2019 -0.0713
  100MOL    H6720065   0.998   2.391   3.895  0.7199 -0.8960  0.4534
  100MOL    H6820066   1.059   2.318   3.743 -1.6239 -0.3979 -0.1635
  100MOL    H6920067   1.183   2.545   3.910 -1.9822  0.8397 -0.4637
  100MOL    H7020068   1.235   2.382   3.897 -0.1173  1.7416  1.3253
  100MOL    H7120069   1.244   2.460   3.636  1.4842  1.1997 -0.9494
  100MOL    C7220070   1.372   2.585   3.739 -0.0884  0.4491 -0.2780
  100MOL    O7320071   1.408   2.636   3.844 -0.0485  0.4420  0.1251
  100MOL    C7420072   1.461   2.613   3.611  0.4393 -0.9322 -0.1435
  100MOL    C7520073   1.437   2.755   3.555  0.2572  0.4587 -1.0509
  100MOL    N7620074   1.516   2.761   3.433  0.3718 -0.4380  0.0787
  100MOL    H7720075   1.564   2.598   3.644  1.0001 -0.5738 -1.6887
  100MOL    H7820076   1.448   2.541   3.530  2.4079 -0.7778 -0.6072
  100MOL    H7920077   1.334   2.783   3.536  0.3610  0.6337 -1.3547
  100MOL    H8020078   1.471   2.822   3.634  0.8664 -0.7510 -0.2680
  100MOL    H8120079   1.474   2.719   3.351 -0.4511  2.0429 -0.8242
  100MOL    C8220080   1.650   2.778   3.430 -0.2372  0.0912 -0.3253
  100MOL    O8320081   1.704   2.808   3.533  0.3305 -0.4527 -0.4662
  100MOL    C8420082   1.724   2.760   3.294  0.6223 -0.0091  0.7966
  100MOL    C8520083   1.835   2.861   3.256 -0.4292 -0.6843  0.0799
  100MOL    N8620084   1.966   2.810   3.280 -0.0353 -0.1326 -0.3352
  100MOL    H8720085   1.763   2.658   3.289 -1.3880 -0.8047  0.5702
  100MOL    H8820086   1.647   2.737   3.221  3.0030 -1.6571 -1.2712
  100MOL    H8920087   1.823   2.880   3.149 -0.5245  0.0821  0.2252
  100MOL    H9020088   1.823   2.951   3.316  0.9332  0.1297 -0.8174
  100MOL    H9120089   1.966   2.715   3.315  3.6429  0.2389  0.9610
  100MOL    C9220090   2.078   2.876   3.311 -0.6952  0.1741  0.6299
  100MOL    O9320091   2.084   3.001   3.321 -0.1238 -0.2959  0.4403
  100MOL    C9420092   2.200   2.788   3.318  0.2911  0.2822 -0.0934
  100MOL    C9520093   2.344   2.865   3.336  0.0825  0.5722  0.5892
  100MOL    N9620094   2.455   2.784   3.284 -0.0081  0.4359 -0.0906
  100MOL    H9720095   2.193   2.746   3.418 -2.9682  0.2971 -0.2553
  100MOL    H9820096   2.203   2.708   3.245  0.8146  0.8844 -0.7365
  100MOL    H9920097   2.339   2.958   3.278 -0.3749  0.9168  1.1736
  100MOL   H10020098   2.366   2.883   3.441  2.9959 -2.0758  0.4862
  100MOL   H10120099   2.462   2.684   3.298  0.5497  0.3578 -0.9126
  100MOL   C10220100   2.547   2.834   3.197  0.5973 -0.7051 -0.1542
  100MOL   O10320101   2.539   2.947   3.145  0.4531 -0.0158 -0.5731
  100MOL   C10420102   2.668   2.756   3.181 -0.3840  0.6904 -0.0535
  100MOL   C10520103   2.777   2.818   3.258 -0.8323  0.8317 -0.4926
  100MOL   N10620104   2.909   2.775   3.225  0.1740  0.5230  0.2421
  100MOL   H10720105   2.689   2.777   3.076 -4.0917  2.7253 -0.4723
  100MOL   H10820106   2.671   2.648   3.192 -3.3699  0.6475  0.8242
  100MOL   H10920107   2.793   2.923   3.233 -0.1234  0.4035 -1.8882
  100MOL   H11020108   2.760   2.817   3.366  1.8654  2.6441  0.0172
  100MOL   H11120109   2.935   2.792   3.128  1.6331  0.0084  0.5243
  100MOL   C11220110   3.000   2.716   3.310 -0.0322 -0.2753 -0.5948
  100MOL   O11320111   2.960   2.688   3.424 -0.7415  0.2790  0.3827
  100MOL   C11420112   3.142   2.693   3.269  0.7932  0.0067  0.5638
  100MOL   C11520113   3.218   2.611   3.372  0.0311  0.0946 -0.2585
  100MOL   N11620114   3.172   2.474   3.379 -0.2047 -0.2083  0.0098
  100MOL   H11720115   3.190   2.791   3.271  2.3641 -0.7485  0.1970
  100MOL   H11820116   3.157   2.654   3.169  0.0001  1.2982 -0.0801
  100MOL   H11920117   3.324   2.627   3.351 -0.0377 -2.5030 -2.9761
  100MOL   H12020118   3.209   2.652   3.473  2.4265  1.4993 -0.5634
  100MOL   H12120119   3.079   2.464   3.342 -0.5847  1.0728  0.5929
  100MOL   C12220120   3.253   2.370   3.398 -0.5853 -0.0202  0.2642
  100MOL   O12320121   3.371   2.380   3.439  0.1382  0.7648 -0.6513
  100MOL   C12420122   3.188   2.239   3.367 -0.0595  0.3890  0.1691
  100MOL   C12520123   3.073   2.205   3.461 -0.9660 -0.5380  0.4373
  100MOL   N12620124   2.947   2.172   3.403 -0.2733 -0.2873  0.7989
  100MOL   H12720125   3.270   2.166   3.367 -2.0727 -1.9935 -2.4895
  100MOL   H12820126   3.159   2.236   3.262 -0.9120 -1.5081  0.4382
  100MOL   H12920127   3.096   2.125   3.532  2.2835  0.3176  0.4269
  100MOL   H13020128   3.065   2.286   3.533 -0.4932  0.2284 -0.3772
  100MOL   H13120129   2.915   2.076   3.401  2.1747 -1.1284 -0.6966
  100MOL   C13220130   2.861   2.271   3.365  0.0562  1.0719  0.1476
  100MOL   O13320131   2.898   2.389   3.353 -0.0593  0.4060 -0.4485
  100MOL   C13420132   2.713   2.227   3.340  0.2714  0.8730  0.6109
  100MOL   C13520133   2.608   2.335   3.291 -0.3589 -0.1525 -0.0900
  100MOL   N13620134   2.469   2.288   3.296  0.0756 -0.7988  0.5884
  100MOL   H13720135   2.677   2.183   3.433 -1.8366 -0.5580 -0.8559
  100MOL   H13820136   2.703   2.157   3.258 -1.2388  3.8649 -1.8702
  100MOL   H13920137   2.616   2.416   3.363  0.9104 -0.5716  0.2514
  100MOL   H14020138   2.629   2.378   3.193  0.0038 -0.9518 -0.3675
  100MOL   H14120139   2.455   2.188   3.300 -0.1429 -0.7527  0.9608
  100MOL   C14220140   2.359   2.371   3.300 -0.5083 -1.2747  0.1688
  100MOL   O14320141   2.367   2.491   3.280 -1.3526  0.2905 -0.1747
  100MOL   C14420142   2.223   2.303   3.327 -0.3904  0.1421 -0.2598
  100MOL   C14520143   2.213   2.245   3.479  0.6975 -0.9406  0.1569
  100MOL   N14620144   2.266   2.114   3.496 -0.1442 -0.5564 -0.5359
  100MOL   H14720145   2.190   2.230   3.254 -1.4179 -0.8672  1.1888
  100MOL   H14820146   2.151   2.385   3.323 -0.8931 -0.2056  1.4360
  100MOL   H14920147   2.260   2.313   3.550  1.1491 -0.4091 -0.6468
  100MOL   H15020148   2.108   2.233   3.503 -0.0757  0.3570 -2.4715
  100MOL   H15120149   2.337   2.083   3.432  0.0146 -0.6128 -0.3321
  100MOL   C15220150   2.213   2.031   3.584  0.0783 -0.0439 -0.5224
  100MOL   O15320151   2.129   2.061   3.673 -0.1177  0.0945  0.5452
  100MOL   C15420152   2.245   1.884   3.553 -0.4681 -0.0857 -0.2523
  100MOL   C15520153   2.237   1.805   3.680  0.5685 -0.0659 -0.3055
  100MOL   N15620154   2.281   1.669   3.651 -0.9058  1.3520  0.2511
  100MOL   H15720155   2.343   1.884   3.505  0.1815  2.8030  0.9340
  100MOL   H15820156   2.168   1.851   3.484  0.3467  0.3981 -1.4075
  100MOL   H15920157   2.301   1.859   3.750  1.2403 -1.8393  0.4779
  100MOL   H16020158   2.135   1.805   3.717  0.4815  0.8236 -0.5402
  100MOL   H16120159   2.211   1.597   3.644 -1.6633  2.0886  0.2715
  100MOL   C16220160   2.408   1.626   3.670 -0.0115 -0.1952  0.1538
  100MOL   O16320161   2.500   1.705   3.693 -0.0070  0.0432 -0.1906
  100MOL   C16420162   2.423   1.477   3.654  0.3528 -0.6216  0.4511
  100MOL   C16520163   2.571   1.439   3.638  0.5042  0.4311  0.5757
  100MOL   N16620164   2.582   1.301   3.627 -0.0288  0.2578 -0.6771
  100MOL   H16720165   2.368   1.451   3.563 -1.4903 -0.4522  1.4839
  100MOL   H16820166   2.368   1.432   3.737 -0.5795 -1.4921 -0.6130
  100MOL   H16920167   2.612   1.483   3.548 -0.3339 -0.9736 -0.5147
  100MOL   H17020168   2.626   1.476   3.725 -1.7933  2.3565  1.2315
  100MOL   H17120169   2.524   1.237   3.679 -0.6278  1.6460  0.3947
  100MOL   C17220170   2.699   1.240   3.590 -0.7458  0.1023 -0.2622
  100MOL   O17320171   2.789   1.308   3.546  0.6740 -0.2551  1.2752
  100MOL   C17420172   2.715   1.086   3.607  0.1424  1.0763 -0.0296
  100MOL   C17520173   2.854   1.031   3.587 -0.4770  0.8200  0.3493
  100MOL   N17620174   2.901   1.013   3.451  0.6083  0.4620  0.4684
  100MOL   H17720175   2.644   1.035   3.540  1.3550 -1.1234  0.2993
  100MOL   H17820176   2.685   1.066   3.710 -0.5467  0.5855 -0.3170
  100MOL   H17920177   2.921   1.092   3.648  0.6948 -2.1662  2.1592
  100MOL   H18020178   2.872   0.939   3.642  0.2698  0.1968 -0.9099
  100MOL   H18120179   2.940   1.094   3.406 -0.4558  0.1896 -0.9851
  100MOL   C18220180   2.897   0.897   3.386 -0.2567  0.1887 -0.2937
  100MOL   O18320181   2.841   0.796   3.433  0.1056 -0.0497  0.4197
  100MOL   C18420182   2.960   0.902   3.248  0.4140 -0.5799  0.1138
  100MOL   C18520183   3.051   0.784   3.226  0.8872 -0.6619  0.3981
  100MOL   N18620184   2.974   0.660   3.214  0.2896 -0.1068 -0.3511
  100MOL   H18720185   3.027   0.987   3.235 -1.5748  0.9919 -0.1760
  100MOL   H18820186   2.887   0.918   3.169  0.2827 -2.6855 -0.1944
  100MOL   H18920187   3.104   0.794   3.132 -1.2735 -1.9536 -1.0044
  100MOL   H19020188   3.128   0.775   3.303  1.0308  0.9826  0.4651
  100MOL   H19120189   2.882   0.673   3.174  0.3243 -0.4139 -0.5281
  100MOL   C19220190   3.012   0.539   3.257 -0.1302  0.4616 -0.3736
  100MOL   O19320191   3.127   0.523   3.298  0.1242  0.1783  1.0215
  100MOL   C19420192   2.919   0.418   3.245  0.0249  0.1134  0.1886
  100MOL   C19520193   2.776   0.438   3.313  0.1079 -0.2776  0.3281
  100MOL   N19620194   2.784   0.488   3.454  0.4990  0.3229  0.2688
  100MOL   H19720195   2.905   0.399   3.139 -3.4309  0.4117  0.5170
  100MOL   H19820196   2.967   0.338   3.301  1.3116  0.3712 -0.5508
  100MOL   H19920197   2.709   0.513   3.269 -0.0494 -0.6531 -0.0706
  100MOL   H20020198   2.721   0.345   3.325 -1.1841  0.2676 -1.1942
  100MOL   H20120199   2.695   0.475   3.499 -0.9397  1.9298 -2.0090
  100MOL   H20220200   2.791   0.589   3.450 -2.7231  0.5324 -1.0591
  101MOL     C120201   3.979   6.380   4.316 -1.4402 -0.1180  0.4549
  101MOL     O220202   3.976   6.498   4.349  0.8535 -0.1189  0.6659
  101MOL     C320203   3.969   6.267   4.416 -0.0960  0.0264  0.2783
  101MOL     C420204   3.855   6.282   4.518 -0.2937  0.0838 -0.0800
  101MOL     N520205   3.726   6.322   4.463  0.5893 -0.2425 -0.1797
  101MOL     H620206   4.065   6.257   4.466 -1.2413  0.4739  2.6321
  101MOL     H720207   3.944   6.177   4.359 -2.7596  0.6365  0.3793
  101MOL     H820208   3.889   6.356   4.591  4.8288  0.0680 -2.2450
  101MOL     H920209   3.855   6.188   4.573 -0.0013  1.0819  1.6571
  101MOL    H1020210   3.728   6.360   4.370 -1.1355 -1.4543 -0.7286
  101MOL    H1120211   4.006   6.354   4.214  0.5924  2.0275  0.4035
  101MOL    C1220212   3.609   6.314   4.539 -0.7591 -0.1311 -0.3787
  101MOL    O1320213   3.607   6.265   4.651 -0.0619  0.0053  0.0950
  101MOL    C1420214   3.476   6.344   4.469 -0.8229  0.3734 -0.3164
  101MOL    C1520215   3.383   6.418   4.567 -0.1582 -0.8908  0.4100
  101MOL    N1620216   3.280   6.473   4.485  0.8089 -0.5575  0.2496
  101MOL    H1720217   3.424   6.259   4.426  1.4901 -0.9056 -0.6989
  101MOL    H1820218   3.499   6.416   4.390  1.4591  1.1404  1.0090
  101MOL    H1920219   3.345   6.349   4.642 -0.8317 -0.7008  0.2484
  101MOL    H2020220   3.442   6.499   4.610 -2.6879  1.2262  0.0525
  101MOL    H2120221   3.275   6.460   4.385  0.2369  0.1989  0.1763
  101MOL    C2220222   3.187   6.545   4.544 -0.4082 -0.1947  0.0796
  101MOL    O2320223   3.204   6.581   4.661 -0.5219  0.2247 -0.3921
  101MOL    C2420224   3.057   6.567   4.467 -0.0569 -0.3933  0.1761
  101MOL    C2520225   2.933   6.575   4.562  0.3232  0.1019 -0.5778
  101MOL    N2620226   2.816   6.560   4.479 -0.2050  0.1246 -0.0317
  101MOL    H2720227   3.037   6.487   4.396 -0.0001 -1.6522  1.5552
  101MOL    H2820228   3.070   6.667   4.426 -0.6062  0.0840  1.1634
  101MOL    H2920229   2.933   6.501   4.642  0.3759  1.2407  0.4742
  101MOL    H3020230   2.931   6.668   4.617  1.7915  1.1345 -2.2123
  101MOL    H3120231   2.791   6.640   4.423  0.7542 -0.3147 -1.1001
  101MOL    C3220232   2.738   6.452   4.456 -0.4564  0.3990 -0.3468
  101MOL    O3320233   2.761   6.340   4.503  0.7194 -0.1706 -0.2364
  101MOL    C3420234   2.613   6.476   4.363 -0.2383 -0.1503 -0.6230
  101MOL    C3520235   2.603   6.393   4.234 -0.2454  0.2820  0.1323
  101MOL    N3620236   2.549   6.261   4.261  0.3741  0.6343  0.0734
  101MOL    H3720237   2.611   6.579   4.328 -0.5726  0.2779  0.6477
  101MOL    H3820238   2.526   6.470   4.429  2.0757  1.2825  2.6984
  101MOL    H3920239   2.540   6.430   4.154  0.9298  0.7859 -0.5756
  101MOL    H4020240   2.702   6.393   4.188 -0.2372 -0.6371  0.1432
  101MOL    H4120241   2.448   6.260   4.274  0.2204  1.7912 -0.9063
  101MOL    C4220242   2.609   6.139   4.239 -0.0007  1.3618  0.3676
  101MOL    O4320243   2.725   6.120   4.202 -0.2836 -0.1973  0.5567
  101MOL    C4420244   2.517   6.012   4.236  0.2738  0.0056  0.8582
  101MOL    C4520245   2.553   5.911   4.342 -0.4872  0.7566 -0.0082
  101MOL    N4620246   2.683   5.850   4.322 -0.2860 -0.1749 -0.3093
  101MOL    H4720247   2.412   6.040   4.248  0.2436  1.1772 -1.7607
  101MOL    H4820248   2.522   5.959   4.141  1.1401  0.4782  0.6366
  101MOL    H4920249   2.559   5.958   4.440 -2.4674  0.2511  0.3657
  101MOL    H5020250   2.470   5.840   4.344  1.0223 -1.0939 -0.4148
  101MOL    H5120251   2.759   5.913   4.303  0.8436 -0.4216  3.1180
  101MOL    C5220252   2.720   5.729   4.357  0.7366  0.1819  0.5102
  101MOL    O5320253   2.640   5.638   4.379 -0.7846 -0.3731 -0.4024
  101MOL    C5420254   2.870   5.703   4.344  0.0341  0.3542 -0.2563
  101MOL    C5520255   2.915   5.570   4.407 -0.2791  0.1334 -0.2498
  101MOL    N5620256   3.054   5.556   4.379 -0.3315 -0.2687  0.5030
  101MOL    H5720257   2.884   5.715   4.236 -1.9385  0.4278 -0.5276
  101MOL    H5820258   2.915   5.792   4.388 -1.6642  1.4887 -0.7787
  101MOL    H5920259   2.852   5.485   4.382 -0.8017 -0.4283  2.8290
  101MOL    H6020260   2.902   5.584   4.514 -0.5321  1.9374 -0.4984
  101MOL    H6120261   3.121   5.594   4.444 -1.5315  0.1892  1.4693
  101MOL    C6220262   3.099   5.504   4.265  0.6555  0.2822  0.3945
  101MOL    O6320263   3.034   5.457   4.174  0.1898  0.5331  0.0823
  101MOL    C6420264   3.257   5.507   4.255 -0.0283  0.3795 -0.7812
  101MOL    C6520265   3.324   5.635   4.196 -0.3100 -0.0029  0.0447
  101MOL    N6620266   3.356   5.731   4.301 -0.3624  1.0682  0.5512
  101MOL    H6720267   3.292   5.471   4.352  1.1599 -0.1538 -1.3929
  101MOL    H6820268   3.284   5.421   4.194  1.1436  1.0221 -1.1905
  101MOL    H6920269   3.420   5.614   4.148  0.6588  4.2660 -0.0680
  101MOL    H7020270   3.257   5.685   4.126  0.4467 -1.7757 -1.9881
  101MOL    H7120271   3.306   5.703   4.384 -0.3310  0.9387  0.5262
  101MOL    C7220272   3.449   5.830   4.298  0.3895 -0.2679  0.3970
  101MOL    O7320273   3.500   5.875   4.195  0.5370 -0.4118 -0.5842
  101MOL    C7420274   3.486   5.892   4.431 -0.0755  0.7717 -0.3772
  101MOL    C7520275   3.620   5.965   4.439 -0.0414  0.5931 -0.2772
  101MOL    N7620276   3.735   5.872   4.456 -0.4512 -0.4470 -0.1608
  101MOL    H7720277   3.398   5.951   4.458  0.3538  0.1881  2.5079
  101MOL    H7820278   3.485   5.808   4.501  0.3805  1.4001  0.3945
  101MOL    H7920279   3.644   6.034   4.358  1.3662 -0.2829 -0.6225
  101MOL    H8020280   3.620   6.021   4.533  3.1004  0.2375 -0.0066
  101MOL    H8120281   3.748   5.804   4.383 -2.0114 -1.3102  0.3363
  101MOL    C8220282   3.818   5.864   4.556 -0.5370 -0.8810 -0.9482
  101MOL    O8320283   3.811   5.920   4.662  0.4384 -0.6932  0.4318
  101MOL    C8420284   3.925   5.752   4.543 -0.1826 -0.2686 -0.6692
  101MOL    C8520285   4.073   5.812   4.532  0.0887 -0.4207  0.8444
  101MOL    N8620286   4.108   5.893   4.649 -0.2009  0.1818  0.5120
  101MOL    H8720287   3.919   5.692   4.634 -1.6236  0.0999 -0.5048
  101MOL    H8820288   3.904   5.676   4.467 -2.9891 -0.5093  0.2945
  101MOL    H8920289   4.149   5.734   4.538 -0.3086 -0.9695 -0.7977
  101MOL    H9020290   4.085   5.874   4.442  0.2124  2.3337  2.7052
  101MOL    H9120291   4.063   5.984   4.649  0.1188  0.3466 -0.3001
  101MOL    C9220292   4.145   5.839   4.765 -0.0239 -0.2358  0.1340
  101MOL    O9320293   4.198   5.730   4.775 -0.1971 -0.0674 -0.6694
  101MOL    C9420294   4.102   5.922   4.884 -0.5727 -0.2283  0.2695
  101MOL    C9520295   4.015   5.849   4.978  0.2897  0.1233  0.1110
  101MOL    N9620296   3.876   5.807   4.928  0.1988 -0.9905  0.0901
  101MOL    H9720297   4.187   5.971   4.931 -0.2898 -0.0445 -0.4195
  101MOL    H9820298   4.043   6.002   4.842 -1.3164 -0.9531 -0.0854
  101MOL    H9920299   4.065   5.760   5.017  1.9702  1.3404  0.7667
  101MOL   H10020300   4.012   5.917   5.063  0.4613 -0.4148  0.5500
  101MOL   H10120301   3.825   5.864   4.863 -0.4229  0.0196  1.4233
  101MOL   C10220302   3.813   5.693   4.954  0.2931 -0.3785 -0.2017
  101MOL   O10320303   3.864   5.608   5.026  0.3997 -0.0509 -0.1079
  101MOL   C10420304   3.671   5.671   4.902  0.4292 -0.5152  0.6447
  101MOL   C10520305   3.650   5.526   4.862  0.3444  0.7075  0.3541
  101MOL   N10620306   3.708   5.483   4.735 -0.7578 -0.4819 -0.1337
  101MOL   H10720307   3.655   5.731   4.812 -1.9180 -0.8156  0.8537
  101MOL   H10820308   3.601   5.697   4.981 -1.0462 -0.1966 -0.7339
  101MOL   H10920309   3.676   5.458   4.944 -1.2531 -1.1922 -0.6526
  101MOL   H11020310   3.541   5.517   4.866  0.3879 -0.9417 -1.4705
  101MOL   H11120311   3.789   5.423   4.722  0.0131  0.6543 -0.5997
  101MOL   C11220312   3.640   5.509   4.622 -0.4623 -0.4893 -0.2496
  101MOL   O11320313   3.541   5.577   4.614 -0.1151  0.3275  0.0923
  101MOL   C11420314   3.687   5.441   4.490  0.2541  0.3274 -0.0922
  101MOL   C11520315   3.598   5.440   4.372  0.2808  0.1299  0.5797
  101MOL   N11620316   3.664   5.443   4.236  0.7133 -0.5621  0.7661
  101MOL   H11720317   3.693   5.338   4.526  0.5723 -0.0679 -1.2484
  101MOL   H11820318   3.790   5.466   4.462  0.1002  0.9116 -0.1351
  101MOL   H11920319   3.542   5.347   4.381 -0.9773  0.5634 -2.1640
  101MOL   H12020320   3.526   5.521   4.381 -0.4210 -0.2207 -1.5820
  101MOL   H12120321   3.637   5.376   4.165 -0.1341  0.7220 -0.1460
  101MOL   C12220322   3.734   5.547   4.189 -0.1188 -0.0619 -0.1528
  101MOL   O12320323   3.776   5.638   4.261 -0.1510 -0.4257 -0.2127
  101MOL   C12420324   3.755   5.548   4.035  0.4513  0.0430 -0.3091
  101MOL   C12520325   3.848   5.657   3.980  0.0793  1.1414  0.0208
  101MOL   N12620326   3.869   5.653   3.837  0.6146 -0.0062 -0.2161
  101MOL   H12720327   3.653   5.552   3.996  0.1595 -2.6565  0.0459
  101MOL   H12820328   3.800   5.450   4.015 -0.3498 -0.5508  0.7495
  101MOL   H12920329   3.816   5.757   4.008 -2.0940  1.0366 -1.9552
  101MOL   H13020330   3.944   5.649   4.032 -0.7764 -0.5700  1.3984
  101MOL   H13120331   3.866   5.559   3.800 -1.2117  0.3262 -0.9969
  101MOL   C13220332   3.914   5.759   3.770  1.0463  0.1350  0.0375
  101MOL   O13320333   3.951   5.860   3.826 -1.0085 -0.2742 -0.1693
  101MOL   C13420334   3.921   5.753   3.616 -0.5539 -0.3878 -0.2939
  101MOL   C13520335   4.062   5.788   3.562 -0.5254 -0.0099  0.0562
  101MOL   N13620336   4.107   5.715   3.444 -0.3658 -0.5378 -0.7631
  101MOL   H13720337   3.843   5.817   3.575  0.0104  0.4418 -0.0892
  101MOL   H13820338   3.894   5.649   3.596 -0.4972 -0.9482  2.2535
  101MOL   H13920339   4.079   5.896   3.558 -0.2212  0.0122  1.6042
  101MOL   H14020340   4.123   5.760   3.648  1.0630 -0.2574 -1.1397
  101MOL   H14120341   4.062   5.634   3.402  0.2517 -1.6139  0.6175
  101MOL   C14220342   4.228   5.727   3.405 -1.6638  0.0819  0.0893
  101MOL   O14320343   4.315   5.793   3.468 -0.5569 -0.0183 -1.0489
  101MOL   C14420344   4.277   5.649   3.285 -0.4382 -0.0699 -0.2044
  101MOL   C14520345   4.420   5.681   3.245 -0.8034  0.0381 -0.7660
  101MOL   N14620346   4.462   5.648   3.111  0.0458 -0.6682  0.0215
  101MOL   H14720347   4.200   5.655   3.208  0.2554  0.5170 -0.8572
  101MOL   H14820348   4.264   5.547   3.320 -0.9726  1.0791  3.2217
  101MOL   H14920349   4.419   5.790   3.251 -2.1117  0.2087 -3.6953
  101MOL   H15020350   4.482   5.644   3.327  0.6009  0.1112 -1.7769
  101MOL   H15120351   4.391   5.649   3.039 -0.3489  1.3704  0.4085
  101MOL   C15220352   4.590   5.642   3.066 -0.4021  0.2575 -0.4246
  101MOL   O15320353   4.688   5.663   3.137 -0.3455 -0.2759  0.2535
  101MOL   C15420354   4.612   5.592   2.922  0.1450 -0.1405 -0.4744
  101MOL   C15520355   4.733   5.495   2.906 -0.1702  0.1443  0.4221
  101MOL   N15620356   4.778   5.495   2.767  0.0945  0.1411  0.4273
  101MOL   H15720357   4.626   5.666   2.843 -0.8478 -1.5395 -1.9804
  101MOL   H15820358   4.520   5.542   2.893 -0.8594  2.0347 -1.1668
  101MOL   H15920359   4.813   5.533   2.970  0.2593  0.0865 -0.0837
  101MOL   H16020360   4.713   5.392   2.937  1.4103 -0.2315  0.2018
  101MOL   H16120361   4.717   5.527   2.693 -0.9912 -0.5733  1.0000
  101MOL   C16220362   4.894   5.429   2.732 -0.8352 -0.4587  0.2908
  101MOL   O16320363   4.974   5.383   2.821  0.2246 -0.0918  0.4771
  101MOL   C16420364   4.921   5.414   2.581 -0.7313  0.0495 -0.2741
  101MOL   C16520365   5.006   5.530   2.514  0.2493 -0.0778  0.0878
  101MOL   N16620366   4.913   5.642   2.491 -0.4881  0.1118 -0.1363
  101MOL   H16720367   4.823   5.402   2.534 -0.8727  0.3909 -0.0708
  101MOL   H16820368   4.981   5.326   2.558 -1.1364 -0.2525 -0.1700
  101MOL   H16920369   5.094   5.556   2.573 -0.7485  2.3261  0.5926
  101MOL   H17020370   5.046   5.503   2.417 -1.5646 -0.8543 -0.4666
  101MOL   H17120371   4.839   5.630   2.423 -0.8076  0.9622  0.0558
  101MOL   C17220372   4.913   5.762   2.551 -0.0919  0.2741  0.3581
  101MOL   O17320373   4.998   5.792   2.637  0.5349  0.0836 -0.3385
  101MOL   C17420374   4.812   5.874   2.502  0.4733  0.1955 -0.0817
  101MOL   C17520375   4.853   6.018   2.531  0.1040 -0.3207 -0.8744
  101MOL   N17620376   4.881   6.059   2.673 -0.0562  0.2340 -0.3199
  101MOL   H17720377   4.721   5.854   2.559  1.4998 -0.2318  1.4738
  101MOL   H17820378   4.798   5.871   2.394  0.3922  1.4055 -0.1078
  101MOL   H17920379   4.942   6.039   2.471 -0.4672  2.8420 -0.7376
  101MOL   H18020380   4.781   6.085   2.485  0.4224  1.7124  1.4585
  101MOL   H18120381   4.934   5.998   2.734 -1.1260 -0.3993 -0.0271
  101MOL   C18220382   4.828   6.165   2.730 -0.4720  0.2781 -0.0467
  101MOL   O18320383   4.757   6.238   2.663  0.3269 -0.2303  0.0404
  101MOL   C18420384   4.853   6.193   2.884  0.1003  0.3922  0.1426
  101MOL   C18520385   5.004   6.192   2.919  0.4972 -0.4129  0.1220
  101MOL   N18620386   5.042   6.086   3.016  0.0515  0.1049 -0.1005
  101MOL   H18720387   4.805   6.104   2.926  0.2098  0.2326 -0.0719
  101MOL   H18820388   4.801   6.274   2.936 -0.3981 -1.4726  2.6793
  101MOL   H18920389   5.066   6.182   2.830  0.7253 -2.2664  0.4746
  101MOL   H19020390   5.034   6.284   2.969  0.8041 -0.5202  0.1378
  101MOL   H19120391   5.069   6.126   3.104 -2.0248 -0.0120  0.6079
  101MOL   C19220392   5.049   5.957   2.981 -0.5685 -0.4943  0.1374
  101MOL   O19320393   5.029   5.930   2.862 -0.5293  0.1367 -0.2770
  101MOL   C19420394   5.112   5.857   3.089 -0.1467 -0.2873  0.5648
  101MOL   C19520395   5.058   5.711   3.072  0.4567 -0.3521  0.0740
  101MOL   N19620396   5.084   5.650   2.943 -0.2505  0.1426 -0.4340
  101MOL   H19720397   5.221   5.857   3.093 -0.1025 -0.8125 -0.6370
  101MOL   H19820398   5.087   5.898   3.187 -0.3750  0.5243  0.1731
  101MOL   H19920399   5.094   5.645   3.151 -0.0742  0.2783  0.8468
  101MOL   H20020400   4.952   5.719   3.097  0.2511  1.8560 -1.3720
  101MOL   H20120401   5.073   5.716   2.868 -1.0725  0.8550  0.2949
  101MOL   H20220402   5.030   5.567   2.926  1.7667 -1.2487 -0.2177
  102MOL     C120403   6.524   2.360   1.587  0.3983 -0.5874  0.3508
  102MOL     O220404   6.425   2.349   1.510 -0.5061 -0.0269 -0.0334
  102MOL     C320405   6.659   2.311   1.539  0.0628 -0.1673 -0.0631
  102MOL     C420406   6.697   2.176   1.600  0.6401 -0.5054  0.3021
  102MOL     N520407   6.651   2.065   1.518 -0.2336 -0.5693 -0.0538
  102MOL     H620408   6.732   2.387   1.567 -0.4180 -0.2009  1.3162
  102MOL     H720409   6.655   2.299   1.430  0.8562  1.6897 -0.3121
  102MOL     H820410   6.661   2.171   1.702  0.2737  1.1923  0.2753
  102MOL     H920411   6.805   2.167   1.610  0.2979 -2.5153  2.4068
  102MOL    H1020412   6.690   2.053   1.426  0.7900 -0.2435  0.3287
  102MOL    H1120413   6.509   2.400   1.687  0.2081  0.0293  0.0784
  102MOL    C1220414   6.547   1.996   1.556 -0.3346 -0.6613  0.1068
  102MOL    O1320415   6.483   2.027   1.659 -0.3084  0.7884 -0.2564
  102MOL    C1420416   6.511   1.877   1.468  0.4039  0.6335 -0.9261
  102MOL    C1520417   6.362   1.837   1.478  0.4301 -0.1057 -0.1166
  102MOL    N1620418   6.352   1.710   1.405  0.0904  0.0831 -0.0258
  102MOL    H1720419   6.574   1.792   1.494 -1.2989  0.3789  2.6590
  102MOL    H1820420   6.533   1.897   1.363 -0.2698  4.6724 -0.3686
  102MOL    H1920421   6.327   1.818   1.580 -1.0619 -2.1280 -0.9590
  102MOL    H2020422   6.292   1.906   1.430 -0.0393  0.2159  0.9974
  102MOL    H2120423   6.392   1.626   1.443  0.2284  0.2681  0.2420
  102MOL    C2220424   6.309   1.698   1.279  0.0958 -0.2304  0.3716
  102MOL    O2320425   6.298   1.791   1.198  0.0518 -0.1967 -0.2748
  102MOL    C2420426   6.282   1.550   1.239 -0.0704  0.1715  0.1784
  102MOL    C2520427   6.151   1.531   1.182  0.1824  0.5010 -1.1299
  102MOL    N2620428   6.072   1.436   1.256  0.4567 -0.5931  0.1980
  102MOL    H2720429   6.301   1.489   1.328  1.2764  0.0883 -0.1514
  102MOL    H2820430   6.360   1.515   1.171 -1.6015 -0.3714 -1.3156
  102MOL    H2920431   6.106   1.629   1.166 -0.1418  0.4723 -0.4123
  102MOL    H3020432   6.162   1.486   1.084  0.0754  0.7037 -1.2353
  102MOL    H3120433   6.115   1.389   1.335 -1.5332 -2.0254  0.4676
  102MOL    C3220434   5.958   1.393   1.215  0.0769 -0.0192 -0.5368
  102MOL    O3320435   5.899   1.440   1.115 -0.2571  0.5627  0.6649
  102MOL    C3420436   5.891   1.281   1.301  0.1037 -0.3126  0.1532
  102MOL    C3520437   5.895   1.135   1.238  0.5301  0.5310  0.0360
  102MOL    N3620438   5.976   1.042   1.322  0.2143  0.2616 -0.4495
  102MOL    H3720439   5.789   1.316   1.285  0.0206  0.6306  2.5389
  102MOL    H3820440   5.907   1.285   1.408  1.6685  1.0713 -0.1089
  102MOL    H3920441   5.793   1.099   1.229  1.1067 -1.4757  1.2936
  102MOL    H4020442   5.933   1.133   1.135  0.8188  0.0919  0.1506
  102MOL    H4120443   5.922   0.994   1.392  0.4287  0.0182 -0.4485
  102MOL    C4220444   6.090   0.989   1.298 -0.1995 -0.1554 -0.5977
  102MOL    O4320445   6.160   1.029   1.204 -0.5117  0.6544  0.4382
  102MOL    C4420446   6.140   0.880   1.395 -0.0368  0.8933  0.2553
  102MOL    C4520447   6.084   0.733   1.367  0.5646 -0.9759  0.3656
  102MOL    N4620448   5.946   0.724   1.430  0.6672  0.4927  0.0680
  102MOL    H4720449   6.241   0.876   1.353 -0.0319  0.4052  0.3169
  102MOL    H4820450   6.140   0.917   1.497  0.9536  2.0496 -0.1511
  102MOL    H4920451   6.068   0.734   1.259  1.0498  2.5768  0.2638
  102MOL    H5020452   6.162   0.660   1.388  3.0205  1.1144 -1.1104
  102MOL    H5120453   5.918   0.786   1.504 -1.2229  0.3756 -0.5161
  102MOL    C5220454   5.853   0.631   1.403 -0.0101  0.0521  0.3888
  102MOL    O5320455   5.852   0.567   1.302  0.0912  0.1855  0.1674
  102MOL    C5420456   5.746   0.613   1.504  0.1289  0.0422  1.1324
  102MOL    C5520457   5.597   0.650   1.484 -0.0939  0.7892 -0.5085
  102MOL    N5620458   5.561   0.790   1.518  0.2695  0.4802 -0.4212
  102MOL    H5720459   5.739   0.505   1.516  1.6721 -0.1426  0.4461
  102MOL    H5820460   5.786   0.641   1.601  0.4284  0.0398  1.0091
  102MOL    H5920461   5.550   0.574   1.547  2.8880 -0.9247 -0.2526
  102MOL    H6020462   5.559   0.639   1.383 -0.3977  1.5958 -0.4859
  102MOL    H6120463   5.498   0.801   1.597 -1.2049 -0.1784 -1.4689
  102MOL    C6220464   5.585   0.907   1.458  0.0812  0.1235  0.5303
  102MOL    O6320465   5.652   0.908   1.355  0.3133  0.3813 -0.4680
  102MOL    C6420466   5.529   1.042   1.506 -0.2099  0.6032  0.0351
  102MOL    C6520467   5.633   1.146   1.546 -0.0800 -0.0276 -0.3226
  102MOL    N6620468   5.571   1.269   1.600  0.4572 -0.3181  0.6056
  102MOL    H6720469   5.476   1.085   1.421 -3.9729  0.5519  2.2646
  102MOL    H6820470   5.458   1.030   1.587  1.2637  2.3432  1.6297
  102MOL    H6920471   5.692   1.106   1.629  0.6194  0.4550 -0.5841
  102MOL    H7020472   5.709   1.164   1.469  0.9713 -1.7426  0.2764
  102MOL    H7120473   5.577   1.284   1.699 -1.2589  0.8967  0.5465
  102MOL    C7220474   5.505   1.360   1.527  0.0679  0.3690 -1.0095
  102MOL    O7320475   5.502   1.358   1.404 -0.1520 -0.5652  0.1948
  102MOL    C7420476   5.446   1.472   1.605  0.3029 -0.5046 -0.2360
  102MOL    C7520477   5.357   1.565   1.534 -0.0578  0.7613 -0.3475
  102MOL    N7620478   5.259   1.507   1.449  0.3560 -0.0801 -0.0189
  102MOL    H7720479   5.379   1.438   1.685 -1.8956 -0.2258 -1.9047
  102MOL    H7820480   5.527   1.530   1.650 -0.3083  1.7384 -1.9865
  102MOL    H7920481   5.307   1.633   1.603  2.3369  1.8060  0.4134
  102MOL    H8020482   5.418   1.626   1.467 -1.4657  1.4649 -1.0301
  102MOL    H8120483   5.224   1.418   1.481  1.8189 -0.7868 -0.3271
  102MOL    C8220484   5.218   1.562   1.333  0.1095  0.7781 -0.4249
  102MOL    O8320485   5.252   1.671   1.285  0.3153 -0.0640 -0.1123
  102MOL    C8420486   5.113   1.480   1.262  0.2715  0.3061  0.0104
  102MOL    C8520487   5.157   1.416   1.127  0.0699  0.5526 -0.2213
  102MOL    N8620488   5.247   1.307   1.148 -0.4174 -0.1185  0.9091
  102MOL    H8720489   5.076   1.392   1.315  1.3972  0.7289  1.5078
  102MOL    H8820490   5.022   1.539   1.249 -1.1896 -1.5049  1.6928
  102MOL    H8920491   5.074   1.386   1.063 -0.2640  1.7763 -0.3887
  102MOL    H9020492   5.215   1.492   1.074  1.6953 -0.4628  0.0596
  102MOL    H9120493   5.341   1.342   1.157 -0.5722  0.6298 -0.2459
  102MOL    C9220494   5.227   1.179   1.142  0.0099  0.5657  0.3276
  102MOL    O9320495   5.115   1.142   1.112 -0.1075  0.3455  0.0815
  102MOL    C9420496   5.334   1.082   1.189  0.1370 -0.0661 -0.7514
  102MOL    C9520497   5.387   0.995   1.076 -0.1906 -0.4714  0.1942
  102MOL    N9620498   5.486   0.898   1.113 -0.4493  0.1346 -0.2530
  102MOL    H9720499   5.418   1.137   1.231  1.9294 -2.9532 -0.4694
  102MOL    H9820500   5.287   1.024   1.269 -1.3052  2.0475 -0.0013
  102MOL    H9920501   5.302   0.939   1.038 -1.6454  1.4748  0.4784
  102MOL   H10020502   5.427   1.065   1.003  1.2510  1.2578  2.5816
  102MOL   H10120503   5.505   0.872   1.209 -2.4557 -0.8161 -0.0728
  102MOL   C10220504   5.531   0.811   1.023 -0.3113 -0.5782  0.4608
  102MOL   O10320505   5.501   0.820   0.905 -0.0718  0.0833 -0.0670
  102MOL   C10420506   5.622   0.695   1.073  0.6310 -0.1236  0.5357
  102MOL   C10520507   5.768   0.731   1.050  0.4982  0.1261  0.5471
  102MOL   N10620508   5.852   0.619   1.040 -0.2754  0.2978  0.8693
  102MOL   H10720509   5.596   0.603   1.022 -1.4461 -0.0187  1.3470
  102MOL   H10820510   5.602   0.675   1.179  0.2106  2.6222  1.0086
  102MOL   H10920511   5.781   0.803   0.969  0.6104  2.4173  2.5552
  102MOL   H11020512   5.797   0.787   1.139 -0.2889 -1.1891  1.6609
  102MOL   H11120513   5.882   0.581   1.129 -2.0294  2.9757  2.6744
  102MOL   C11220514   5.892   0.557   0.923 -0.9657 -0.2953  0.4670
  102MOL   O11320515   5.863   0.604   0.810 -0.1700 -0.5656 -0.5055
  102MOL   C11420516   5.982   0.438   0.938  0.0217  0.0158  0.4122
  102MOL   C11520517   5.920   0.307   0.969 -0.2454  0.0028  0.3605
  102MOL   N11620518   5.879   0.296   1.111 -0.1575 -0.0515  0.1308
  102MOL   H11720519   6.060   0.458   1.012  0.1805 -1.6525  0.7263
  102MOL   H11820520   6.041   0.429   0.847 -0.1497  1.7096  0.1237
  102MOL   H11920521   5.835   0.295   0.903  1.5320 -1.3490 -1.7658
  102MOL   H12020522   5.984   0.223   0.939 -0.2727  0.0743  0.1032
  102MOL   H12120523   5.804   0.358   1.137 -0.4555  0.7680 -2.5919
  102MOL   C12220524   5.943   0.211   1.193 -0.6445 -0.4821 -0.2724
  102MOL   O12320525   6.035   0.136   1.163 -0.0738  0.2869 -0.1926
  102MOL   C12420526   5.898   0.217   1.345  0.2542 -0.5053 -0.1972
  102MOL   C12520527   6.018   0.185   1.431 -0.3456  0.2227 -0.2294
  102MOL   N12620528   5.981   0.175   1.574 -0.7430 -0.1371  0.2276
  102MOL   H12720529   5.816   0.146   1.360 -0.5678  0.4194 -0.2764
  102MOL   H12820530   5.863   0.319   1.360  0.0325 -0.4881 -0.8067
  102MOL   H12920531   6.059   0.087   1.405  1.2779  0.9684 -0.5773
  102MOL   H13020532   6.101   0.253   1.414 -1.6944  2.0287  0.2337
  102MOL   H13120533   5.968   0.081   1.607  1.0757 -0.5952 -0.2676
  102MOL   C13220534   5.977   0.275   1.661  0.7341  0.1166 -0.0825
  102MOL   O13320535   6.018   0.387   1.649 -0.9150  0.2714  0.1454
  102MOL   C13420536   5.910   0.241   1.800  0.6995 -0.0867  0.4419
  102MOL   C13520537   6.006   0.251   1.920  0.2223  0.4785  0.5073
  102MOL   N13620538   6.072   0.122   1.945  0.2221  0.2431 -0.3674
  102MOL   H13720539   5.859   0.145   1.797  0.2431  0.1307  1.1037
  102MOL   H13820540   5.830   0.312   1.819 -0.2320 -0.6554 -1.2574
  102MOL   H13920541   6.085   0.326   1.918  1.7129 -1.0885 -0.1580
  102MOL   H14020542   5.953   0.276   2.012 -0.6174  3.3622 -0.7132
  102MOL   H14120543   6.142   0.094   1.878  1.1502 -0.1719  0.7608
  102MOL   C14220544   6.061   0.054   2.064  0.8628  0.4296 -0.1169
  102MOL   O14320545   5.986   0.091   2.162 -0.0580  0.3391 -0.4054
  102MOL   C14420546   6.155   7.720   2.086  0.1440 -0.7069 -0.3035
  102MOL   C14520547   6.156   7.666   2.234 -0.3635 -0.7930  0.1008
  102MOL   N14620548   6.247   7.545   2.250  0.7333 -0.3932  0.6954
  102MOL   H14720549   6.255   7.749   2.053  0.9467 -1.7119  1.1841
  102MOL   H14820550   6.147   7.633   2.021  1.7067 -1.3941  0.3817
  102MOL   H14920551   6.164   7.739   2.314  0.2380 -1.1561  0.3703
  102MOL   H15020552   6.058   7.625   2.259 -0.7452 -0.7802 -1.3142
  102MOL   H15120553   6.194   7.459   2.246 -2.7716  1.7610 -2.9343
  102MOL   C15220554   6.384   7.547   2.261  0.2705 -0.4460  0.1869
  102MOL   O15320555   6.446   7.654   2.273  0.5894  0.1433  0.2021
  102MOL   C15420556   6.456   7.415   2.252  0.5390 -0.1677 -0.4376
  102MOL   C15520557   6.459   7.348   2.113  0.6150  0.9724 -0.3384
  102MOL   N15620558   6.590   7.381   2.050 -0.4952 -0.0476 -1.0314
  102MOL   H15720559   6.412   7.350   2.327  0.4431  0.6046  0.1787
  102MOL   H15820560   6.556   7.442   2.288  0.1127 -0.5279  1.0394
  102MOL   H15920561   6.459   7.239   2.121 -0.3251  0.7748 -2.5357
  102MOL   H16020562   6.373   7.373   2.051  0.8155  0.6037 -0.7654
  102MOL   H16120563   6.680   7.363   2.093  0.9243  0.7514 -3.5658
  102MOL   C16220564   6.600   7.449   1.934 -0.7220  0.2513  0.5507
  102MOL   O16320565   6.507   7.490   1.866  0.1400 -0.2408  0.2884
  102MOL   C16420566   6.746   7.474   1.899  0.1167 -0.2204 -0.1946
  102MOL   C16520567   6.806   7.389   1.785  0.3893 -0.1567  0.4970
  102MOL   N16620568   6.829   7.248   1.821  0.4840  0.5319  0.1869
  102MOL   H16720569   6.814   7.469   1.984  0.9986 -2.4377 -0.9860
  102MOL   H16820570   6.755   7.577   1.864  1.1935  0.5061  2.1162
  102MOL   H16920571   6.733   7.379   1.705  0.1861 -2.2802  0.9146
  102MOL   H17020572   6.899   7.429   1.744 -0.7568  3.3138  1.1668
  102MOL   H17120573   6.799   7.227   1.915 -3.3747 -1.5702 -1.3710
  102MOL   C17220574   6.859   7.147   1.737  0.0561 -0.1556 -0.1654
  102MOL   O17320575   6.859   7.032   1.775 -0.7522 -0.1776 -0.2993
  102MOL   C17420576   6.880   7.181   1.587 -0.7498  0.1764  0.1340
  102MOL   C17520577   6.932   7.065   1.504 -0.3480  0.3996  0.0142
  102MOL   N17620578   6.965   7.107   1.364  0.0112 -0.3322  0.6538
  102MOL   H17720579   6.953   7.261   1.595 -0.8517  0.1835  1.1021
  102MOL   H17820580   6.798   7.238   1.543 -0.6873  1.3521  1.4761
  102MOL   H17920581   7.019   7.016   1.548 -1.5312 -0.3742  1.5263
  102MOL   H18020582   6.861   6.983   1.495 -0.0348  0.3658 -2.3542
  102MOL   H18120583   7.063   7.124   1.348 -0.3633  0.4120 -0.9422
  102MOL   C18220584   6.881   7.104   1.264 -0.2830  0.1983 -0.0174
  102MOL   O18320585   6.765   7.076   1.281  0.3572 -0.0399 -0.0666
  102MOL   C18420586   6.935   7.137   1.125  0.4285 -0.1378 -0.3078
  102MOL   C18520587   6.887   7.052   1.017  0.1389  0.2784  0.8008
  102MOL   N18620588   6.921   7.120   0.894  0.4723  1.0480 -0.0381
  102MOL   H18720589   7.044   7.132   1.118  0.5150 -0.3612  1.1728
  102MOL   H18820590   6.909   7.240   1.100  1.4523  0.5919  1.5454
  102MOL   H18920591   6.929   6.951   1.022 -1.4368 -0.4717 -0.4143
  102MOL   H19020592   6.781   7.042   1.039  0.6981 -0.9901  3.0584
  102MOL   H19120593   6.870   7.201   0.864 -1.8370 -0.3179  0.0399
  102MOL   C19220594   7.024   7.083   0.811 -0.0399 -0.1866 -0.8633
  102MOL   O19320595   7.088   6.975   0.824  0.0116 -0.3174  0.5912
  102MOL   C19420596   7.057   7.185   0.700 -0.3456  0.7076 -0.7149
  102MOL   C19520597   7.084   7.130   0.556 -0.2002 -0.0825 -0.7712
  102MOL   N19620598   7.216   7.071   0.543  0.1657 -0.1293 -0.2230
  102MOL   H19720599   6.965   7.243   0.703  0.1587  1.4915 -0.2488
  102MOL   H19820600   7.135   7.249   0.739  1.4883 -2.4786  1.1089
  102MOL   H19920601   7.000   7.064   0.540 -1.5566  1.2749  0.6039
  102MOL   H20020602   7.069   7.202   0.476 -1.8591 -0.7423 -1.0706
  102MOL   H20120603   7.256   7.025   0.624  4.5013  2.7410 -0.5542
  102MOL   H20220604   7.207   7.004   0.468 -0.6524  1.5763 -1.6891
  103MOL     C120605   3.430   1.072   3.826  0.3779  0.0065  0.5645
  103MOL     O220606   3.486   0.988   3.765  0.0117  0.2989 -0.1914
  103MOL     C320607   3.463   1.109   3.969  0.3690  0.2108  0.0513
  103MOL     C420608   3.354   1.079   4.073  0.5534  0.2028 -0.3409
  103MOL     N520609   3.266   1.191   4.075 -0.0171  0.2879  0.8113
  103MOL     H620610   3.498   1.211   3.976  0.6336  0.0149  1.9934
  103MOL     H720611   3.554   1.054   3.992  0.4972 -0.0156 -1.0082
  103MOL     H820612   3.396   1.070   4.173  1.2153 -2.8707 -0.8473
  103MOL     H920613   3.300   0.989   4.046  1.5026 -0.2565 -0.7392
  103MOL    H1020614   3.266   1.251   3.994  1.0453  0.9245  1.2753
  103MOL    H1120615   3.352   1.133   3.780  0.5471  0.0630  0.3470
  103MOL    C1220616   3.204   1.241   4.176 -0.1802  0.1189 -0.0089
  103MOL    O1320617   3.207   1.185   4.286 -0.3596  0.0405 -0.3874
  103MOL    C1420618   3.121   1.372   4.159 -0.4505  0.6971 -0.9998
  103MOL    C1520619   3.049   1.419   4.281 -0.5496 -0.1860 -0.2972
  103MOL    N1620620   3.128   1.467   4.389  0.3940 -0.3148  0.1232
  103MOL    H1720621   3.052   1.348   4.078 -0.6650  2.6625 -1.4182
  103MOL    H1820622   3.189   1.453   4.133  2.2785 -0.3502  2.4996
  103MOL    H1920623   2.967   1.482   4.248 -0.5884  0.1539  0.4495
  103MOL    H2020624   3.006   1.331   4.327 -0.3819  0.1111  0.4272
  103MOL    H2120625   3.163   1.392   4.447 -1.5098 -1.2685  0.0957
  103MOL    C2220626   3.138   1.599   4.410  0.1339 -0.2317  0.5241
  103MOL    O2320627   3.063   1.681   4.349 -0.1919  0.0668  0.2568
  103MOL    C2420628   3.239   1.642   4.519 -0.4028  0.1458  0.1347
  103MOL    C2520629   3.172   1.734   4.624 -0.5568 -0.3429 -0.3710
  103MOL    N2620630   3.170   1.666   4.757  0.0566  0.3953  0.4950
  103MOL    H2720631   3.321   1.696   4.471  1.1453 -2.3238 -0.1283
  103MOL    H2820632   3.283   1.553   4.565 -0.7169 -0.8152 -1.3801
  103MOL    H2920633   3.229   1.823   4.650  0.0138 -0.2738 -1.7656
  103MOL    H3020634   3.070   1.761   4.596 -0.8141 -0.3878  0.5180
  103MOL    H3120635   3.243   1.693   4.821  1.3264  0.2224 -0.8727
  103MOL    C3220636   3.071   1.584   4.791 -0.4151  0.8053 -0.1374
  103MOL    O3320637   2.984   1.539   4.714 -0.0639 -0.3367 -0.1212
  103MOL    C3420638   3.073   1.546   4.938 -0.0237  0.0670  0.1916
  103MOL    C3520639   2.966   1.622   5.025  0.5029  0.4933  0.5471
  103MOL    N3620640   2.830   1.591   4.986 -0.0864  0.3676 -0.1318
  103MOL    H3720641   3.172   1.556   4.981  0.2976  3.1110 -1.1151
  103MOL    H3820642   3.051   1.440   4.948  1.3288 -0.2268  0.1419
  103MOL    H3920643   2.977   1.597   5.130  1.8507 -1.8798 -0.1133
  103MOL    H4020644   2.965   1.729   5.008  1.2859  0.3176 -0.6956
  103MOL    H4120645   2.811   1.511   4.928  1.0307  1.4098 -2.0065
  103MOL    C4220646   2.722   1.666   5.019  0.1346 -0.1962 -0.5660
  103MOL    O4320647   2.719   1.769   5.086 -0.1743  0.3424  0.4141
  103MOL    C4420648   2.591   1.617   4.960 -0.0881  0.5946 -0.0008
  103MOL    C4520649   2.476   1.724   4.949  0.3086  0.1557 -0.3062
  103MOL    N4620650   2.376   1.690   4.846  0.6386  0.1010 -0.9022
  103MOL    H4720651   2.601   1.559   4.868  2.0462  1.1147 -0.1253
  103MOL    H4820652   2.552   1.542   5.028  0.0759  1.1383  0.7032
  103MOL    H4920653   2.429   1.723   5.047  1.2847 -0.2488  0.1737
  103MOL    H5020654   2.523   1.821   4.929  1.4545 -0.2232  0.4550
  103MOL    H5120655   2.383   1.605   4.791 -0.7903 -0.1471 -0.7142
  103MOL    C5220656   2.274   1.771   4.812 -0.5638 -0.3570  0.3623
  103MOL    O5320657   2.258   1.882   4.858 -0.2997  0.0424 -0.8091
  103MOL    C5420658   2.175   1.720   4.708  0.1322  0.4127  0.3980
  103MOL    C5520659   2.080   1.826   4.646 -0.6845  0.7799  0.5900
  103MOL    N5620660   1.987   1.780   4.542 -0.7092  0.3513  0.5859
  103MOL    H5720661   2.229   1.663   4.632 -0.8299 -2.1252  1.5434
  103MOL    H5820662   2.126   1.635   4.756  0.3352  0.4410  0.6539
  103MOL    H5920663   2.132   1.916   4.613  1.3134 -0.4725  0.2457
  103MOL    H6020664   2.010   1.850   4.725 -0.5451  2.0915  0.3179
  103MOL    H6120665   1.897   1.757   4.582 -1.2533  0.6747 -0.4288
  103MOL    C6220666   2.021   1.725   4.428  0.1331  0.1833 -0.0689
  103MOL    O6320667   2.135   1.743   4.383  0.2184 -0.5660  0.4758
  103MOL    C6420668   1.928   1.630   4.352 -0.5869  0.0242 -0.1314
  103MOL    C6520669   1.950   1.616   4.196 -0.5041  0.1868 -0.1304
  103MOL    N6620670   2.026   1.504   4.159 -0.8500 -0.1999  0.1208
  103MOL    H6720671   1.950   1.537   4.404  0.3143  0.1058 -0.3560
  103MOL    H6820672   1.824   1.660   4.364 -0.9080 -0.9371 -0.4728
  103MOL    H6920673   1.854   1.625   4.145 -0.2331 -2.0843 -1.1256
  103MOL    H7020674   2.012   1.695   4.155 -1.7075  2.0850  1.6072
  103MOL    H7120675   2.025   1.436   4.233  0.5840 -4.2142 -3.3398
  103MOL    C7220676   2.084   1.486   4.041  0.1153 -0.0771  0.6443
  103MOL    O7320677   2.110   1.579   3.960  0.4010 -0.0936 -0.1008
  103MOL    C7420678   2.146   1.351   4.011 -0.2531 -0.3324 -0.6901
  103MOL    C7520679   2.112   1.313   3.868 -0.6558 -0.2797  0.0281
  103MOL    N7620680   1.975   1.299   3.845 -0.3331  0.0278 -0.0173
  103MOL    H7720681   2.254   1.366   4.015 -0.0941 -1.3308 -0.9955
  103MOL    H7820682   2.124   1.278   4.089  0.6442 -0.8596 -0.9135
  103MOL    H7920683   2.155   1.386   3.800 -0.9099 -1.2478 -1.1994
  103MOL    H8020684   2.178   1.231   3.841  1.1061  1.2268 -0.2904
  103MOL    H8120685   1.934   1.382   3.805  2.3339  1.3965 -0.0793
  103MOL    C8220686   1.904   1.189   3.865 -0.1949  0.0587  0.3777
  103MOL    O8320687   1.955   1.086   3.912 -0.4754 -0.0295  0.1648
  103MOL    C8420688   1.756   1.185   3.812  0.5597  0.4194  0.6431
  103MOL    C8520689   1.709   1.041   3.782  0.2971  0.1234 -0.2101
  103MOL    N8620690   1.786   0.958   3.694 -0.3086 -0.1025 -0.8792
  103MOL    H8720691   1.694   1.236   3.886 -0.8878  0.9106 -0.8907
  103MOL    H8820692   1.758   1.246   3.721  0.7034 -1.8455 -0.9058
  103MOL    H8920693   1.717   0.996   3.880  3.2243 -1.5603 -1.1652
  103MOL    H9020694   1.611   1.048   3.734  1.2683  0.1293 -2.2526
  103MOL    H9120695   1.853   0.990   3.625 -0.7212 -1.8182 -2.1160
  103MOL    C9220696   1.789   0.822   3.707 -0.1852  0.2229 -0.0649
  103MOL    O9320697   1.725   0.752   3.790  0.0157  0.0485  0.3537
  103MOL    C9420698   1.875   0.746   3.610 -0.7041  0.2225  0.3384
  103MOL    C9520699   1.977   0.644   3.674 -0.5294  0.7723  0.3917
  103MOL    N9620700   1.923   0.522   3.746 -0.3022 -0.3169  0.4065
  103MOL    H9720701   1.817   0.703   3.528 -1.9703  0.6243  0.9964
  103MOL    H9820702   1.940   0.817   3.560  2.3090 -1.6567  1.4323
  103MOL    H9920703   2.049   0.613   3.598 -1.1910 -2.2622  0.9285
  103MOL   H10020704   2.021   0.690   3.763  1.4310  1.8093 -1.0694
  103MOL   H10120705   1.869   0.546   3.828 -2.0187 -0.2495 -0.7235
  103MOL   C10220706   1.916   0.399   3.697  0.0233  0.5910  0.2363
  103MOL   O10320707   1.969   0.372   3.590  0.2025 -0.2802 -0.1436
  103MOL   C10420708   1.843   0.284   3.772 -0.7087 -0.2679 -0.0539
  103MOL   C10520709   1.831   0.150   3.694 -0.1619 -0.0926  0.3639
  103MOL   N10620710   1.715   0.072   3.735  0.0119 -0.1550 -0.0947
  103MOL   H10720711   1.745   0.325   3.797 -0.9436 -1.1904  0.5658
  103MOL   H10820712   1.893   0.271   3.867 -0.2774 -0.3153 -0.2869
  103MOL   H10920713   1.822   0.166   3.586 -1.4431  1.3459  0.6635
  103MOL   H11020714   1.923   0.092   3.703 -1.0219 -1.3512  1.1743
  103MOL   H11120715   1.657   0.039   3.659  1.5146 -0.8548 -0.9715
  103MOL   C11220716   1.696   0.024   3.855 -0.7084  0.6392 -0.6316
  103MOL   O11320717   1.767   0.047   3.956 -0.0330  0.6517  0.2050
  103MOL   C11420718   1.580   7.712   3.861  0.1827 -0.1280 -0.0666
  103MOL   C11520719   1.580   7.587   3.957  0.4740  0.3242  0.3516
  103MOL   N11620720   1.644   7.478   3.887 -0.0873 -0.4256  0.1016
  103MOL   H11720721   1.545   7.679   3.763  1.0562  0.0226 -0.4274
  103MOL   H11820722   1.504   7.769   3.914 -0.5746 -0.5176 -0.7178
  103MOL   H11920723   1.632   7.613   4.049  2.5812  1.5255 -1.1426
  103MOL   H12020724   1.474   7.568   3.978  0.4744  1.8543  1.8779
  103MOL   H12120725   1.732   7.492   3.840 -0.2292 -2.4246 -0.8133
  103MOL   C12220726   1.618   7.346   3.913 -0.7969 -0.3369  0.1041
  103MOL   O12320727   1.536   7.307   3.998 -0.1579 -0.1185 -0.3010
  103MOL   C12420728   1.695   7.244   3.823  0.4272  1.0630 -0.0342
  103MOL   C12520729   1.818   7.189   3.893 -0.6508  0.3497  0.1055
  103MOL   N12620730   1.912   7.124   3.799 -0.8890 -0.4248  0.1371
  103MOL   H12720731   1.718   7.305   3.735 -1.4560 -0.9483 -1.9750
  103MOL   H12820732   1.616   7.173   3.798 -0.3979  1.1093  2.2927
  103MOL   H12920733   1.867   7.269   3.949  0.3734  0.1954 -0.5640
  103MOL   H13020734   1.790   7.118   3.972  0.2292  0.6054  0.6526
  103MOL   H13120735   1.867   7.075   3.723 -1.3893  1.4154 -0.7784
  103MOL   C13220736   2.041   7.138   3.805  0.4554 -0.2530 -0.1041
  103MOL   O13320737   2.098   7.213   3.886  0.3832 -0.3439  1.1096
  103MOL   C13420738   2.125   7.069   3.699  0.0776 -0.6871 -0.4702
  103MOL   C13520739   2.198   7.170   3.606  0.4821  0.3473 -0.4239
  103MOL   N13620740   2.312   7.228   3.677  0.7774 -0.4625  0.3441
  103MOL   H13720741   2.064   6.999   3.642  0.6174 -0.8834 -0.8088
  103MOL   H13820742   2.188   7.005   3.761  0.8635 -0.4034 -0.9685
  103MOL   H13920743   2.225   7.115   3.516  0.1080  0.5351 -0.6526
  103MOL   H14020744   2.142   7.251   3.559 -0.0796  0.7061  0.8363
  103MOL   H14120745   2.304   7.261   3.773 -2.0788  0.8645 -0.3185
  103MOL   C14220746   2.435   7.238   3.639  0.0681  0.0214 -0.4213
  103MOL   O14320747   2.467   7.202   3.528  0.1568 -0.0491  0.0716
  103MOL   C14420748   2.532   7.316   3.736 -0.2333 -0.0704 -0.4271
  103MOL   C14520749   2.678   7.274   3.719 -0.3134 -0.5032  0.1518
  103MOL   N14620750   2.769   7.373   3.778  0.1852 -0.2456 -0.3925
  103MOL   H14720751   2.507   7.301   3.840  1.4657  0.7209  0.1159
  103MOL   H14820752   2.513   7.418   3.704  0.1190 -0.2303 -1.1666
  103MOL   H14920753   2.685   7.177   3.768 -0.6144  0.1233  1.4465
  103MOL   H15020754   2.711   7.268   3.615 -2.1139  0.1631 -0.4754
  103MOL   H15120755   2.845   7.341   3.836  0.1605  0.3496 -0.0200
  103MOL   C15220756   2.787   7.495   3.722 -0.2307 -0.5029  0.1984
  103MOL   O15320757   2.729   7.539   3.629 -0.0268  0.0338  0.3935
  103MOL   C15420758   2.892   7.586   3.785  0.3421 -0.0404 -0.3585
  103MOL   C15520759   2.984   7.662   3.684  0.2059  0.0961 -0.0496
  103MOL   N15620760   2.919   0.010   3.655  0.4304  1.1328  0.1754
  103MOL   H15720761   2.968   7.520   3.826 -0.2858 -0.3587  0.2955
  103MOL   H15820762   2.852   7.656   3.858 -1.1053  0.5164 -1.6701
  103MOL   H15920763   3.089   7.679   3.710 -0.5489  5.3519  0.2467
  103MOL   H16020764   2.992   7.612   3.588 -1.7773  0.4808 -0.4340
  103MOL   H16120765   2.862   0.020   3.572 -1.5860 -0.6066  1.2777
  103MOL   C16220766   2.930   0.109   3.736 -0.2212 -0.3725  0.1212
  103MOL   O16320767   3.002   0.101   3.832  0.0771  0.4138  0.4284
  103MOL   C16420768   2.846   0.237   3.718 -0.1853 -0.3036  0.0092
  103MOL   C16520769   2.881   0.374   3.783 -0.7096 -0.3964 -0.4522
  103MOL   N16620770   2.770   0.409   3.873 -0.2213 -0.7047 -0.3562
  103MOL   H16720771   2.742   0.208   3.734 -0.1097 -1.2170 -1.0524
  103MOL   H16820772   2.854   0.254   3.610 -0.7021  0.4964  0.0920
  103MOL   H16920773   2.970   0.377   3.846 -2.4971 -1.3005  2.2133
  103MOL   H17020774   2.893   0.458   3.715  0.2642 -0.3734 -0.2654
  103MOL   H17120775   2.702   0.337   3.894 -1.8205  1.8431  3.6300
  103MOL   C17220776   2.765   0.514   3.948 -0.1270 -0.0532 -0.3978
  103MOL   O17320777   2.844   0.605   3.931  0.1049 -0.3464 -0.1487
  103MOL   C17420778   2.660   0.528   4.061 -0.1479 -0.0341  0.2730
  103MOL   C17520779   2.600   0.670   4.068  0.0352  0.3685  0.9383
  103MOL   N17620780   2.466   0.664   4.115  0.7514 -0.8255  0.5051
  103MOL   H17720781   2.690   0.500   4.162  2.0538  1.3400  0.0186
  103MOL   H17820782   2.583   0.461   4.023 -0.7388  0.5835  0.3833
  103MOL   H17920783   2.660   0.723   4.142 -1.1367  0.6316  1.7045
  103MOL   H18020784   2.605   0.723   3.973 -2.2466 -0.4906  0.3283
  103MOL   H18120785   2.394   0.673   4.044 -0.2643 -2.1465  1.3427
  103MOL   C18220786   2.428   0.643   4.242  0.1662 -0.4957  0.6434
  103MOL   O18320787   2.512   0.621   4.334  0.2862 -0.2176 -0.6192
  103MOL   C18420788   2.279   0.658   4.270 -0.2938 -0.3213  0.0861
  103MOL   C18520789   2.238   0.545   4.369  0.3156  0.0653  0.7623
  103MOL   N18620790   2.094   0.546   4.396  0.4174  0.6296  0.9950
  103MOL   H18720791   2.227   0.656   4.174  2.1347 -0.4072 -1.2777
  103MOL   H18820792   2.272   0.757   4.315 -0.2195 -0.6247  0.7626
  103MOL   H18920793   2.267   0.445   4.337 -0.7456 -0.6304  1.8953
  103MOL   H19020794   2.283   0.545   4.468 -0.9080 -1.3536  1.3479
  103MOL   H19120795   2.043   0.626   4.359  1.9928  0.7731 -0.9804
  103MOL   C19220796   2.030   0.440   4.458 -0.0994 -0.4548 -0.0778
  103MOL   O19320797   2.099   0.347   4.502 -0.5239  0.6541 -0.0689
  103MOL   C19420798   1.878   0.434   4.468  0.5507 -1.1305 -0.0343
  103MOL   C19520799   1.823   0.394   4.611 -0.1315 -0.5637 -0.0574
  103MOL   N19620800   1.855   0.490   4.722 -0.4306 -0.3537 -0.1030
  103MOL   H19720801   1.837   0.530   4.435 -0.2955  0.0162  4.1340
  103MOL   H19820802   1.849   0.356   4.397 -0.8147 -0.8745  0.2295
  103MOL   H19920803   1.717   0.376   4.594 -0.0172 -0.5034 -0.8691
  103MOL   H20020804   1.854   0.292   4.632 -0.9368 -1.3137 -2.3326
  103MOL   H20120805   1.952   0.516   4.710 -0.9647  2.2657  0.8804
  103MOL   H20220806   1.862   0.416   4.790 -0.0608 -0.8919 -0.7107
  104MOL     C120807   0.451   0.691   2.726 -0.3051 -0.1063 -0.0726
  104MOL     O220808   0.516   0.606   2.670 -0.2967  0.5719  0.0727
  104MOL     C320809   0.447   0.722   2.880  0.2122  0.0256  0.2484
  104MOL     C420810   0.477   0.594   2.967 -0.4183  0.4326  0.1254
  104MOL     N520811   0.487   0.626   3.106 -0.1383 -0.4600  0.0445
  104MOL     H620812   0.344   0.744   2.907  0.7666  0.5212  2.0079
  104MOL     H720813   0.502   0.810   2.912 -0.1501  0.2815  0.1672
  104MOL     H820814   0.568   0.549   2.927 -0.3962 -0.2973  0.9680
  104MOL     H920815   0.400   0.517   2.955 -0.2114  0.2187  0.1651
  104MOL    H1020816   0.412   0.684   3.141  0.3426 -0.2962  0.8151
  104MOL    H1120817   0.374   0.748   2.675 -0.5779 -0.0772  0.3678
  104MOL    C1220818   0.560   0.557   3.189 -1.0087 -0.3567 -0.0745
  104MOL    O1320819   0.635   0.463   3.161  0.0656 -0.2028 -0.6215
  104MOL    C1420820   0.551   0.597   3.336  0.1353  0.0418 -0.1679
  104MOL    C1520821   0.610   0.501   3.449  0.3949 -0.5574 -0.0093
  104MOL    N1620822   0.536   0.374   3.470  0.6158 -0.0594  0.6066
  104MOL    H1720823   0.445   0.616   3.353  0.1487  0.1337 -0.1909
  104MOL    H1820824   0.603   0.692   3.334  1.3015 -0.5802  0.1373
  104MOL    H1920825   0.708   0.468   3.416  0.6141 -0.0414  0.1211
  104MOL    H2020826   0.630   0.556   3.541  1.8351 -1.8103  0.4475
  104MOL    H2120827   0.464   0.346   3.405  3.1621 -0.1799 -2.2206
  104MOL    C2220828   0.561   0.298   3.573  0.5489 -0.0929 -0.1479
  104MOL    O2320829   0.648   0.322   3.658  0.3817 -0.5322  0.6238
  104MOL    C2420830   0.472   0.177   3.590  0.3850 -0.3269  0.4186
  104MOL    C2520831   0.427   0.143   3.729 -0.0957  0.5276 -0.4044
  104MOL    N2620832   0.541   0.108   3.817  0.7759 -0.8945 -0.0590
  104MOL    H2720833   0.522   0.086   3.556 -1.7758 -1.3347 -0.1525
  104MOL    H2820834   0.385   0.190   3.526 -0.4534  1.0418  1.7943
  104MOL    H2920835   0.374   0.221   3.782  0.1336  1.1716 -1.1092
  104MOL    H3020836   0.355   0.062   3.720  0.7014  0.0043 -2.5983
  104MOL    H3120837   0.615   0.174   3.832 -0.4316  1.2689 -3.0815
  104MOL    C3220838   0.582   7.760   3.839 -0.0120  0.6446 -0.1676
  104MOL    O3320839   0.492   7.671   3.835 -0.5557  0.5920  0.2268
  104MOL    C3420840   0.726   7.728   3.846 -0.7622 -0.4138  0.4345
  104MOL    C3520841   0.771   7.625   3.947 -0.3937 -0.7319 -0.5845
  104MOL    N3620842   0.920   7.622   3.955 -0.0913  0.1295 -0.2523
  104MOL    H3720843   0.799   0.030   3.849 -0.7365 -0.3843 -0.7397
  104MOL    H3820844   0.747   7.684   3.749  1.0467  2.8237 -0.7454
  104MOL    H3920845   0.730   7.675   4.034 -2.0000 -0.4639 -1.4690
  104MOL    H4020846   0.721   7.529   3.932 -0.1772 -1.3009  2.1958
  104MOL    H4120847   0.979   7.704   3.949  2.9683 -2.0087  0.0150
  104MOL    C4220848   0.986   7.514   3.998  0.4938 -0.1961  0.2300
  104MOL    O4320849   0.931   7.409   4.026  0.2421 -0.0012  0.0467
  104MOL    C4420850   1.139   7.522   3.995 -0.0542 -0.3472  0.3606
  104MOL    C4520851   1.217   7.382   4.022  0.4239  0.1825  0.5053
  104MOL    N4620852   1.222   7.344   4.165 -0.5703 -0.2602 -0.1299
  104MOL    H4720853   1.160   7.535   3.889 -0.8238  1.2398  0.3871
  104MOL    H4820854   1.172   7.607   4.054 -0.8434  1.2063 -1.3669
  104MOL    H4920855   1.158   7.299   3.983  0.4049  0.5270 -0.2103
  104MOL    H5020856   1.312   7.386   3.969 -0.1283 -0.4985 -0.5756
  104MOL    H5120857   1.200   7.247   4.185  0.9105 -0.1182  2.2302
  104MOL    C5220858   1.302   7.411   4.254 -0.2863 -0.1314  0.0357
  104MOL    O5320859   1.362   7.515   4.221  0.2047 -0.5061 -0.0253
  104MOL    C5420860   1.328   7.346   4.393  0.6559  0.1959 -0.3951
  104MOL    C5520861   1.262   7.419   4.508  0.6420  0.0955  0.4586
  104MOL    N5620862   1.275   7.355   4.636  0.3767  0.1496 -0.8026
  104MOL    H5720863   1.296   7.243   4.381  1.7610 -0.2466  0.3722
  104MOL    H5820864   1.432   7.321   4.410  0.2896  0.4554  2.4288
  104MOL    H5920865   1.155   7.423   4.489  1.1795  4.1952 -2.1846
  104MOL    H6020866   1.308   7.517   4.514 -0.6782  0.6076  2.6131
  104MOL    H6120867   1.287   7.255   4.641  0.5593  0.0958 -2.1280
  104MOL    C6220868   1.274   7.424   4.749 -0.3070  0.1373  0.7155
  104MOL    O6320869   1.245   7.542   4.752 -0.0444 -0.0415  0.0078
  104MOL    C6420870   1.285   7.351   4.883 -0.2311  0.6806  0.3365
  104MOL    C6520871   1.421   7.333   4.955 -0.6556  0.4819  0.3444
  104MOL    N6620872   1.513   7.236   4.889  0.0876  0.2043 -0.5208
  104MOL    H6720873   1.216   7.401   4.951  0.8809  3.0397 -0.2145
  104MOL    H6820874   1.238   7.252   4.880  0.5953  0.1580  3.4756
  104MOL    H6920875   1.467   7.432   4.961 -0.3708  0.3198  0.8666
  104MOL    H7020876   1.414   7.296   5.057 -1.0314 -1.6113 -0.4169
  104MOL    H7120877   1.586   7.274   4.831  1.2177 -0.4452  0.4714
  104MOL    C7220878   1.485   7.106   4.888 -0.9796 -0.7889 -0.5035
  104MOL    O7320879   1.394   7.057   4.950  0.1809  0.6740 -0.6547
  104MOL    C7420880   1.571   7.017   4.796  0.3045  0.3041  0.5986
  104MOL    C7520881   1.574   6.875   4.845  0.5120 -0.0667  0.5104
  104MOL    N7620882   1.628   6.787   4.745  0.1948 -0.4867 -0.0097
  104MOL    H7720883   1.521   7.010   4.699  0.7509  0.9870  0.3135
  104MOL    H7820884   1.669   7.050   4.763 -0.6175  1.6767 -0.8107
  104MOL    H7920885   1.629   6.864   4.939  1.8215 -1.4262 -0.3861
  104MOL    H8020886   1.476   6.830   4.860  0.3994 -0.5074 -1.4262
  104MOL    H8120887   1.576   6.783   4.659 -0.8180 -2.1651  0.6466
  104MOL    C8220888   1.738   6.711   4.749 -0.1840 -0.1921 -0.2134
  104MOL    O8320889   1.818   6.714   4.843 -0.4968 -0.2853  0.5520
  104MOL    C8420890   1.754   6.619   4.631  0.1971  0.0941 -0.1852
  104MOL    C8520891   1.701   6.477   4.647 -0.0335 -0.0140 -0.0959
  104MOL    N8620892   1.555   6.475   4.617 -0.2506  0.1231  0.7523
  104MOL    H8720893   1.713   6.665   4.541 -0.8490 -1.6141 -0.6123
  104MOL    H8820894   1.861   6.604   4.617  0.0204 -0.6224 -0.7892
  104MOL    H8920895   1.752   6.398   4.593 -2.2521 -0.4179 -1.6909
  104MOL    H9020896   1.707   6.451   4.753 -1.1741 -1.3615 -0.3413
  104MOL    H9120897   1.509   6.564   4.613 -3.0706 -1.2948  0.1697
  104MOL    C9220898   1.482   6.363   4.627 -0.2237  0.7205 -0.1837
  104MOL    O9320899   1.526   6.249   4.655 -0.1054 -0.6830 -0.2041
  104MOL    C9420900   1.328   6.371   4.601 -0.0182  0.7875  0.4377
  104MOL    C9520901   1.256   6.446   4.712 -0.5209 -0.3663 -0.1785
  104MOL    N9620902   1.111   6.450   4.707 -0.4582  0.6470  0.5989
  104MOL    H9720903   1.320   6.414   4.501  2.8634  1.6581  0.5459
  104MOL    H9820904   1.294   6.267   4.610  1.3162  0.3038 -0.0074
  104MOL    H9920905   1.295   6.410   4.807 -0.1246 -1.7174 -0.8342
  104MOL   H10020906   1.288   6.550   4.712 -0.1882 -0.4591  1.0632
  104MOL   H10120907   1.065   6.510   4.640  2.5713  0.9197 -1.3752
  104MOL   C10220908   1.024   6.389   4.791 -0.0764  0.1609 -0.7613
  104MOL   O10320909   1.061   6.332   4.895 -0.1464 -0.0629 -0.1709
  104MOL   C10420910   0.873   6.424   4.773  1.0125 -0.6083 -0.5731
  104MOL   C10520911   0.788   6.431   4.911 -0.0905  0.1487  0.5174
  104MOL   N10620912   0.650   6.458   4.900 -0.4184 -0.0000 -0.7204
  104MOL   H10720913   0.841   6.342   4.710 -0.8727 -1.0116  0.8860
  104MOL   H10820914   0.851   6.513   4.714  2.3106  0.7776  0.9480
  104MOL   H10920915   0.804   6.335   4.960 -3.3723  0.3330  2.0243
  104MOL   H11020916   0.831   6.509   4.973  0.4004  0.3620 -0.0813
  104MOL   H11120917   0.631   6.518   4.821 -0.3166 -1.1384 -1.6246
  104MOL   C11220918   0.553   6.387   4.951  0.0942  0.2703 -0.1085
  104MOL   O11320919   0.577   6.292   5.031 -0.5733  0.7044  0.1975
  104MOL   C11420920   0.411   6.438   4.921  0.2368  0.0602  0.2002
  104MOL   C11520921   0.339   6.503   5.037  0.7180  0.1929 -0.0980
  104MOL   N11620922   0.413   6.611   5.098  0.6039 -0.2320  0.5230
  104MOL   H11720923   0.345   6.357   4.892  0.2794 -0.0517  0.4201
  104MOL   H11820924   0.404   6.499   4.830 -0.6548 -1.2363 -0.6170
  104MOL   H11920925   0.248   6.549   4.998 -0.1018  2.1835  3.8907
  104MOL   H12020926   0.322   6.427   5.114 -4.9227  3.0937  1.7966
  104MOL   H12120927   0.462   6.596   5.185 -0.3279 -1.1975  0.9013
  104MOL   C12220928   0.407   6.740   5.051 -0.3501  0.4140  0.1992
  104MOL   O12320929   0.351   6.777   4.955 -0.8732  0.0510 -0.6158
  104MOL   C12420930   0.492   6.842   5.131  0.1840 -0.1124 -0.2744
  104MOL   C12520931   0.476   6.995   5.106 -0.0334  0.6842 -0.4818
  104MOL   N12620932   0.352   7.051   5.156  0.0266  0.4846  0.4289
  104MOL   H12720933   0.598   6.826   5.108 -0.0581 -1.9022 -0.2560
  104MOL   H12820934   0.497   6.828   5.239  0.0364 -0.5191 -0.3166
  104MOL   H12920935   0.560   7.050   5.149  0.1701 -1.0569  1.4730
  104MOL   H13020936   0.493   7.034   5.006  1.2424  0.0521 -0.5227
  104MOL   H13120937   0.305   6.999   5.228 -0.2928 -2.9350 -2.1117
  104MOL   C13220938   0.306   7.170   5.125  0.4242  0.3524  0.3163
  104MOL   O13320939   0.367   7.249   5.055  0.1948 -0.5013 -0.0692
  104MOL   C13420940   0.168   7.216   5.181 -0.1908  0.4857  1.3024
  104MOL   C13520941   0.135   7.360   5.152 -0.1413 -0.5827  0.0158
  104MOL   N13620942   0.060   7.390   5.029  0.0691 -0.1129 -0.1120
  104MOL   H13720943   0.171   7.202   5.289 -0.9080 -1.3426  1.0932
  104MOL   H13820944   0.092   7.147   5.144  0.4753  1.5032 -2.1307
  104MOL   H13920945   0.086   7.416   5.231 -0.5659 -1.4949  0.3961
  104MOL   H14020946   0.220   7.429   5.143  0.0368 -0.5151  2.1049
  104MOL   H14120947   0.109   7.440   4.957  0.8649 -2.9589 -1.6441
  104MOL   C14220948   7.708   7.369   5.017  0.4977  0.7055  0.5457
  104MOL   O14320949   7.637   7.342   5.113  0.0798  0.4117 -0.6643
  104MOL   C14420950   7.639   7.374   4.878 -0.0266  0.0755 -0.0436
  104MOL   C14520951   7.505   7.301   4.862  0.5767  0.5715  0.2971
  104MOL   N14620952   7.523   7.166   4.820  0.1259  0.0721 -0.1822
  104MOL   H14720953   7.703   7.347   4.795  2.1284 -0.3247  1.6846
  104MOL   H14820954   7.623   7.479   4.852  0.2790  0.2416  0.4096
  104MOL   H14920955   7.447   7.314   4.953  2.0714  0.2203  1.3182
  104MOL   H15020956   7.445   7.346   4.782 -2.2336  0.1125  2.0853
  104MOL   H15120957   7.610   7.115   4.828  0.2565  0.2047 -0.7425
  104MOL   C15220958   7.423   7.093   4.770  0.9824  0.9578 -0.2338
  104MOL   O15320959   7.307   7.136   4.754 -0.6279  0.7934 -0.3579
  104MOL   C15420960   7.440   6.946   4.733 -0.6638  0.5987 -0.7641
  104MOL   C15520961   7.531   6.921   4.612 -0.7369 -0.2739  1.0477
  104MOL   N15620962   7.475   6.952   4.481  0.3364 -0.3596 -0.2282
  104MOL   H15720963   7.345   6.896   4.714 -0.3377 -0.0834 -0.6184
  104MOL   H15820964   7.477   6.899   4.824 -0.8062 -2.0882 -2.0441
  104MOL   H15920965   7.622   6.979   4.631 -1.6305  1.6527 -0.3062
  104MOL   H16020966   7.586   6.827   4.615  0.0553  0.2355  3.8155
  104MOL   H16120967   7.520   7.026   4.429 -1.7251  2.1543  1.4572
  104MOL   C16220968   7.383   6.886   4.418  0.0201  0.5939  0.3995
  104MOL   O16320969   7.332   6.792   4.477  0.0037  0.3209  0.6161
  104MOL   C16420970   7.343   6.922   4.276 -0.1710  0.5483 -0.4434
  104MOL   C16520971   7.263   6.815   4.200  0.3505  0.1100  0.5252
  104MOL   N16620972   7.122   6.808   4.245  0.1805 -0.4577 -0.3530
  104MOL   H16720973   7.438   6.952   4.230  2.6294 -1.6941  3.5353
  104MOL   H16820974   7.291   7.017   4.290 -0.6466  0.5099 -1.8513
  104MOL   H16920975   7.270   6.821   4.092 -1.6708 -1.0916  0.3098
  104MOL   H17020976   7.297   6.712   4.216 -0.2635 -0.5585 -2.2158
  104MOL   H17120977   7.107   6.763   4.334 -0.0639 -1.6562 -0.9771
  104MOL   C17220978   7.012   6.855   4.180  0.1200 -0.0203 -0.7142
  104MOL   O17320979   7.031   6.926   4.081 -0.1403  0.2876 -0.8297
  104MOL   C17420980   6.876   6.821   4.222 -0.2053  0.5565  0.1288
  104MOL   C17520981   6.795   6.746   4.121 -0.1988 -0.1383 -0.5132
  104MOL   N17620982   6.739   6.836   4.017 -0.1752 -0.5399 -0.4471
  104MOL   H17720983   6.834   6.918   4.250 -1.1420  0.7777 -1.9863
  104MOL   H17820984   6.877   6.767   4.317  0.2819 -0.3318 -0.3769
  104MOL   H17920985   6.856   6.675   4.065  0.1063 -0.8107  0.6648
  104MOL   H18020986   6.733   6.673   4.173 -0.8353  2.3830  2.3905
  104MOL   H18120987   6.800   6.884   3.952 -2.0054  0.7625 -1.2417
  104MOL   C18220988   6.612   6.866   4.027  1.2011  0.1122 -0.0243
  104MOL   O18320989   6.535   6.831   4.118 -0.2132  1.0509  0.1162
  104MOL   C18420990   6.562   6.967   3.919  0.5043  0.1956 -0.1048
  104MOL   C18520991   6.429   7.041   3.949  0.3946 -1.0307  0.3619
  104MOL   N18620992   6.419   7.160   3.860  0.2102  0.5489 -0.1239
  104MOL   H18720993   6.537   6.907   3.831 -0.1912  2.3424 -1.4050
  104MOL   H18820994   6.645   7.027   3.883 -0.3313  0.9726 -0.7327
  104MOL   H18920995   6.345   6.974   3.934 -0.3814  0.3318 -1.5140
  104MOL   H19020996   6.422   7.065   4.055 -3.6220  0.4065 -0.1397
  104MOL   H19120997   6.450   7.149   3.765 -0.2961 -1.8680 -0.0244
  104MOL   C19220998   6.385   7.284   3.905 -0.1927 -0.3787 -0.3073
  104MOL   O19320999   6.332   7.303   4.017  0.1763  0.4046  0.2127
  104MOL   C19421000   6.403   7.391   3.795  0.0081  0.4855  0.2786
  104MOL   C19521001   6.422   7.538   3.842  0.6192 -1.1429  0.4924
  104MOL   N19621002   6.304   7.583   3.921  0.4096  0.2882  0.0137
  104MOL   H19721003   6.486   7.386   3.725 -1.6288  2.2644 -1.8569
  104MOL   H19821004   6.314   7.402   3.733  1.0046  2.4265 -0.8544
  104MOL   H19921005   6.501   7.547   3.916  0.3567 -1.3389  0.7977
  104MOL   H20021006   6.439   7.612   3.763 -0.7045 -0.1347  1.1337
  104MOL   H20121007   6.218   7.591   3.870  1.3164 -1.3409 -1.8249
  104MOL   H20221008   6.292   7.511   3.990  2.1383  0.4602  0.5274
  105MOL     C121009   6.937   2.755   7.736  0.1604 -0.8908 -0.5189
  105MOL     O221010   6.943   2.700   0.067  0.3824 -0.5772  0.0979
  105MOL     C321011   6.866   2.891   7.728 -1.0133 -0.4080 -0.3481
  105MOL     C421012   6.768   2.894   7.605 -0.9101 -0.1786  0.0175
  105MOL     N521013   6.633   2.840   7.639 -0.2317 -0.3856 -0.1329
  105MOL     H621014   6.941   2.969   7.712 -0.5302 -0.7334  0.3211
  105MOL     H721015   6.810   2.920   0.037 -0.4692 -1.3698  0.3127
  105MOL     H821016   6.810   2.843   7.519  1.7046  0.2565  1.0141
  105MOL     H921017   6.753   2.994   7.565  1.6065 -0.2439 -1.1347
  105MOL    H1021018   6.556   2.905   7.648  0.2777  0.0924  0.8512
  105MOL    H1121019   6.977   2.717   7.642 -0.1203 -0.6310 -0.7461
  105MOL    C1221020   6.593   2.713   7.655  0.0166 -0.2882 -0.3580
  105MOL    O1321021   6.669   2.622   7.629  0.3550  0.2299  0.1200
  105MOL    C1421022   6.444   2.691   7.690 -0.1067  0.8437 -0.0878
  105MOL    C1521023   6.370   2.597   7.583  0.2692 -0.2015 -0.4019
  105MOL    N1621024   6.268   2.669   7.517 -0.6784  0.2084 -0.4436
  105MOL    H1721025   6.409   2.793   7.706 -2.7162  0.1772 -1.2260
  105MOL    H1821026   6.446   2.651   0.011 -0.7250 -1.9617 -1.1483
  105MOL    H1921027   6.439   2.552   7.511 -2.1105 -0.1332 -2.7917
  105MOL    H2021028   6.313   2.510   7.617  0.6949 -0.6018 -0.7013
  105MOL    H2121029   6.246   2.763   7.545 -0.7844  1.0034 -3.0144
  105MOL    C2221030   6.190   2.613   7.427 -0.2135  0.2672  0.8897
  105MOL    O2321031   6.214   2.508   7.373 -1.0427 -0.1551  0.1650
  105MOL    C2421032   6.054   2.695   7.394  0.6414 -0.0589  0.3838
  105MOL    C2521033   6.024   2.692   7.250  0.3950 -0.2148 -0.0388
  105MOL    N2621034   6.048   2.815   7.174  0.1040  0.3667  0.4059
  105MOL    H2721035   6.053   2.800   7.423  1.6241 -0.4493  1.8926
  105MOL    H2821036   5.975   2.637   7.441  0.0837  0.1874 -0.2526
  105MOL    H2921037   6.067   2.613   7.188  0.4455 -0.9719  0.9567
  105MOL    H3021038   5.917   2.674   7.245 -0.0233  2.3571 -1.0809
  105MOL    H3121039   6.112   2.798   7.097 -1.5488  2.0773 -1.4037
  105MOL    C3221040   6.008   2.941   7.190  0.2425 -0.2849 -0.0911
  105MOL    O3321041   5.917   2.975   7.270 -0.0831  0.6252  0.4959
  105MOL    C3421042   6.083   3.048   7.101  0.3630  0.7871 -0.1525
  105MOL    C3521043   6.061   3.019   6.952  0.3042  0.4601  0.4134
  105MOL    N3621044   6.186   2.985   6.883 -0.0526 -0.0077  0.3052
  105MOL    H3721045   6.191   3.049   7.118  0.5042  0.5349 -1.0358
  105MOL    H3821046   6.040   3.143   7.131  0.5667  0.9508 -0.3847
  105MOL    H3921047   5.980   2.950   6.930 -0.1902  1.3775 -0.7034
  105MOL    H4021048   6.025   3.114   6.913  0.6197  0.9378  1.2789
  105MOL    H4121049   6.228   3.051   6.820 -1.1739 -0.6980 -1.2131
  105MOL    C4221050   6.235   2.860   6.866 -1.0616  0.5481  0.3545
  105MOL    O4321051   6.183   2.759   6.912 -0.3785 -0.3023 -0.0154
  105MOL    C4421052   6.358   2.851   6.777  0.6896 -0.3815  0.3242
  105MOL    C4521053   6.406   2.710   6.764 -0.5075  0.2983 -0.1697
  105MOL    N4621054   6.524   2.703   6.679 -0.4706 -0.3118  0.2954
  105MOL    H4721055   6.316   2.885   6.682  3.7426  1.9816 -0.2372
  105MOL    H4821056   6.428   2.926   6.812 -0.2655  0.3381  0.7206
  105MOL    H4921057   6.423   2.660   6.860  0.0132  2.2254  0.7573
  105MOL    H5021058   6.332   2.652   6.709  1.0521 -0.9492 -1.0266
  105MOL    H5121059   6.566   2.793   6.661  0.0064 -0.8421 -1.2467
  105MOL    C5221060   6.594   2.589   6.667  0.4203  0.1792  0.3134
  105MOL    O5321061   6.553   2.472   6.693 -0.1283 -0.3825 -0.4364
  105MOL    C5421062   6.739   2.603   6.624 -0.0679 -0.0205  0.1072
  105MOL    C5521063   6.842   2.505   6.685 -0.0767 -0.3015  0.3168
  105MOL    N5621064   6.824   2.379   6.619 -0.1983  0.0824 -0.2342
  105MOL    H5721065   6.752   2.598   6.516 -0.1389 -0.6559  0.1254
  105MOL    H5821066   6.781   2.700   6.650 -0.0248 -0.2194  0.7932
  105MOL    H5921067   6.822   2.500   6.792  0.1217 -0.7583  0.3319
  105MOL    H6021068   6.942   2.547   6.674 -0.8018  1.5175  0.3517
  105MOL    H6121069   6.741   2.370   6.562 -0.6241  0.4645  0.3225
  105MOL    C6221070   6.906   2.281   6.640 -0.2266 -0.1117 -0.3644
  105MOL    O6321071   7.008   2.291   6.713  1.1896 -0.1679 -0.0792
  105MOL    C6421072   6.864   2.148   6.570  0.1411 -0.1470  0.8411
  105MOL    C6521073   6.988   2.101   6.489  0.3904 -0.3004 -0.1213
  105MOL    N6621074   6.947   2.080   6.349 -0.4094  0.5245 -0.0350
  105MOL    H6721075   6.854   2.068   6.643 -1.2516 -0.3472  0.4387
  105MOL    H6821076   6.773   2.147   6.510  0.1807 -3.7846  0.7333
  105MOL    H6921077   7.073   2.170   6.488  0.7156 -0.6760 -2.8539
  105MOL    H7021078   7.020   2.001   6.517 -2.2651 -1.5861 -1.5044
  105MOL    H7121079   6.978   2.157   6.291 -0.0442  0.2286 -0.2339
  105MOL    C7221080   6.878   1.978   6.301 -0.0042  0.0134  0.1100
  105MOL    O7321081   6.832   1.897   6.375  0.0209 -0.8245 -0.0450
  105MOL    C7421082   6.854   1.967   6.150  0.0840  0.0718 -0.2845
  105MOL    C7521083   6.823   1.825   6.101  0.0113  0.2606 -0.1752
  105MOL    N7621084   6.780   1.815   5.959  0.0279 -0.0586 -0.0376
  105MOL    H7721085   6.776   2.040   6.133 -1.0771 -0.3321  2.9365
  105MOL    H7821086   6.939   2.008   6.096 -0.6402  2.9451  0.7079
  105MOL    H7921087   6.912   1.764   6.098  0.6572  1.1334  0.6946
  105MOL    H8021088   6.753   1.773   6.167 -0.8649  2.5599  0.7766
  105MOL    H8121089   6.684   1.792   5.939  0.2955  0.0664 -1.5111
  105MOL    C8221090   6.850   1.846   5.848  0.2569  0.1649  0.2953
  105MOL    O8321091   6.971   1.870   5.866  0.0978 -0.1846  0.0307
  105MOL    C8421092   6.773   1.852   5.717  0.0460  0.3547 -0.4565
  105MOL    C8521093   6.837   1.959   5.624 -0.4162  0.7993 -0.1309
  105MOL    N8621094   6.752   1.980   5.500 -0.0315  0.7926  0.4581
  105MOL    H8721095   6.771   1.758   5.662 -0.6389  1.5132 -2.4296
  105MOL    H8821096   6.668   1.875   5.734 -0.2668  2.7422 -4.9429
  105MOL    H8921097   6.839   2.050   5.684  2.6119  1.5431 -1.2879
  105MOL    H9021098   6.941   1.944   5.596 -0.2921  0.9852  0.2315
  105MOL    H9121099   6.680   1.910   5.490  0.9368 -0.1695  0.1470
  105MOL    C9221100   6.770   2.078   5.409 -0.0716 -0.6118  0.2010
  105MOL    O9321101   6.866   2.156   5.427 -0.0958  0.2263 -0.2146
  105MOL    C9421102   6.681   2.092   5.285  0.2677  0.0291  0.1948
  105MOL    C9521103   6.711   2.208   5.190  0.3165 -0.2238  0.2055
  105MOL    N9621104   6.691   2.337   5.253 -0.0706 -0.0988 -0.4471
  105MOL    H9721105   6.685   1.998   5.230  3.3585  0.1211  0.2266
  105MOL    H9821106   6.579   2.101   5.325  0.0923 -2.0156  0.2747
  105MOL    H9921107   6.814   2.193   5.158  0.4433  0.5734  0.2314
  105MOL   H10021108   6.655   2.194   5.097  0.6110 -1.2061  0.1649
  105MOL   H10121109   6.781   2.381   5.266  1.0722 -2.6672  0.8667
  105MOL   C10221110   6.583   2.407   5.289  0.5208  0.4141  0.5602
  105MOL   O10321111   6.475   2.362   5.262  0.1086  0.5943  0.6910
  105MOL   C10421112   6.595   2.535   5.380 -0.3575 -0.1487 -0.1052
  105MOL   C10521113   6.571   2.513   5.535  0.4005 -0.7139  0.6889
  105MOL   N10621114   6.697   2.472   5.590  0.6199  0.0311  0.4409
  105MOL   H10721115   6.521   2.609   5.349  1.5419  1.4514 -0.9350
  105MOL   H10821116   6.691   2.580   5.355 -0.4089  0.0334  0.0222
  105MOL   H10921117   6.527   2.603   5.579 -2.4323 -2.7597  2.2078
  105MOL   H11021118   6.492   2.439   5.551  0.2477 -0.3623  1.6092
  105MOL   H11121119   6.732   2.386   5.550 -0.6029 -1.2911  2.1037
  105MOL   C11221120   6.760   2.528   5.693  0.6728 -0.2714 -0.5303
  105MOL   O11321121   6.715   2.630   5.747 -0.3689  0.2688  0.6152
  105MOL   C11421122   6.895   2.468   5.746 -0.2976 -0.0446  0.7649
  105MOL   C11521123   6.887   2.311   5.743 -1.1165 -0.4171  0.3483
  105MOL   N11621124   6.984   2.259   5.841 -0.3927 -0.3697 -0.0468
  105MOL   H11721125   6.891   2.515   5.845  1.0820  2.3125 -0.2627
  105MOL   H11821126   6.987   2.503   5.700 -0.4906 -1.3735 -0.6610
  105MOL   H11921127   6.794   2.272   5.784 -1.0017 -0.1769  0.8475
  105MOL   H12021128   6.896   2.277   5.640  1.5390  1.7753 -0.2181
  105MOL   H12121129   6.962   2.263   5.940 -3.0951 -1.1779 -0.5750
  105MOL   C12221130   7.095   2.188   5.808 -0.2908 -0.3742  0.3872
  105MOL   O12321131   7.111   2.152   5.695 -0.6274 -0.2276  0.2607
  105MOL   C12421132   7.193   2.141   5.923  0.5522 -0.6426  0.0403
  105MOL   C12521133   7.311   2.063   5.882 -0.4810  0.2531 -0.3172
  105MOL   N12621134   7.269   1.945   5.808 -0.3537  0.6448  0.2963
  105MOL   H12721135   7.132   2.073   5.982 -0.3810  0.8512  0.8626
  105MOL   H12821136   7.217   2.231   5.980 -0.1292 -1.2199  1.2730
  105MOL   H12921137   7.380   2.130   5.830 -1.0826  0.8595 -0.3258
  105MOL   H13021138   7.370   2.039   5.970 -0.1009  0.4496 -0.5145
  105MOL   H13121139   7.227   1.973   5.720 -0.0377  3.2082  0.9323
  105MOL   C13221140   7.269   1.815   5.838 -0.1758 -1.0817  0.2250
  105MOL   O13321141   7.314   1.769   5.945  0.2790  0.0404 -0.6661
  105MOL   C13421142   7.200   1.724   5.731 -0.3086 -0.5813 -0.1164
  105MOL   C13521143   7.158   1.587   5.779 -0.0963 -0.3419 -0.0566
  105MOL   N13621144   7.093   1.500   5.676  0.0333  0.4836 -0.7242
  105MOL   H13721145   7.287   1.706   5.666  0.7098  2.4241  0.3360
  105MOL   H13821146   7.125   1.778   5.672 -0.2902 -0.3612  0.0615
  105MOL   H13921147   7.234   1.531   5.834  1.3977  1.2344 -0.4936
  105MOL   H14021148   7.080   1.601   5.855  1.1112 -4.7217  2.1819
  105MOL   H14121149   7.006   1.534   5.636  0.4658  0.3133 -1.8368
  105MOL   C14221150   7.161   1.419   5.598 -1.3739  0.0523 -0.0821
  105MOL   O14321151   7.272   1.374   5.626 -0.2189 -0.5952 -0.2242
  105MOL   C14421152   7.108   1.390   5.459  0.3068 -0.2099 -0.1667
  105MOL   C14521153   7.188   1.443   5.339  0.7388  0.2767  0.7152
  105MOL   N14621154   7.302   1.352   5.313  0.0148  0.0680  0.1604
  105MOL   H14721155   7.001   1.410   5.449 -0.2546 -2.4024  1.0508
  105MOL   H14821156   7.101   1.281   5.452 -2.7369  0.0170 -1.4726
  105MOL   H14921157   7.124   1.458   5.253  1.0990 -0.3592  0.3377
  105MOL   H15021158   7.222   1.545   5.359 -0.4763  1.0579 -1.0410
  105MOL   H15121159   7.305   1.266   5.365  1.5300  0.2608  0.4019
  105MOL   C15221160   7.405   1.376   5.230  0.1911  0.7357 -0.1600
  105MOL   O15321161   7.408   1.469   5.150  1.1116 -0.2189  0.2355
  105MOL   C15421162   7.521   1.273   5.236 -0.4884  0.3626  0.2767
  105MOL   C15521163   7.656   1.339   5.277  0.4925 -0.3550  0.6550
  105MOL   N15621164   7.748   1.239   5.327  0.6847 -0.6717 -0.4752
  105MOL   H15721165   7.527   1.220   5.141 -0.0580  0.3900  0.2887
  105MOL   H15821166   7.499   1.185   5.297  0.6382  0.3767  0.7023
  105MOL   H15921167   7.696   1.365   5.179 -0.3455 -0.7748  0.1949
  105MOL   H16021168   7.644   1.421   5.348  1.5567  0.7709 -0.4543
  105MOL   H16121169   0.034   1.198   5.264  2.2280 -0.6328  1.0807
  105MOL   C16221170   7.752   1.193   5.453 -0.3347  0.0887 -0.0661
  105MOL   O16321171   7.683   1.244   5.542 -0.3666  0.6641  0.7762
  105MOL   C16421172   0.076   1.087   5.482  0.0851  0.2286  0.3492
  105MOL   C16521173   0.224   1.131   5.500 -0.3618 -0.5478 -0.1760
  105MOL   N16621174   0.243   1.232   5.612  0.1939  0.8352  0.1476
  105MOL   H16721175   0.071   1.011   5.404  0.5734  0.2736  0.2719
  105MOL   H16821176   0.045   1.035   5.573 -1.0546 -0.1938 -0.2730
  105MOL   H16921177   0.280   1.038   5.504  0.7641  0.1252  0.0106
  105MOL   H17021178   0.260   1.181   5.409  1.3867 -0.6879  0.4127
  105MOL   H17121179   0.211   1.327   5.603  0.7299  0.9776 -0.2894
  105MOL   C17221180   0.296   1.191   5.728 -0.3844  0.6041  0.1997
  105MOL   O17321181   0.351   1.081   5.745 -0.2082  1.2748  0.1423
  105MOL   C17421182   0.285   1.288   5.846  0.2679  0.1900 -0.1694
  105MOL   C17521183   0.202   1.245   5.960  0.2275  0.2187  0.0258
  105MOL   N17621184   0.151   1.338   6.059  0.7336  0.5165 -0.2736
  105MOL   H17721185   0.243   1.381   5.809  0.8190 -0.1664 -1.7449
  105MOL   H17821186   0.389   1.308   5.870  0.4878 -0.4115 -0.6110
  105MOL   H17921187   0.112   1.194   5.925  0.2410 -0.1091  0.4688
  105MOL   H18021188   0.261   1.168   6.010  2.2150  2.3935  1.0722
  105MOL   H18121189   0.065   1.385   6.032  0.7983  0.0714 -1.2869
  105MOL   C18221190   0.224   1.390   6.161 -0.3946 -0.4465 -0.1270
  105MOL   O18321191   0.328   1.328   6.199 -0.9684 -0.1243  0.0832
  105MOL   C18421192   0.166   1.519   6.218  0.5450 -0.0704 -0.9006
  105MOL   C18521193   0.254   1.599   6.322  0.2313  0.4760  0.4547
  105MOL   N18621194   0.169   1.682   6.404  0.0552 -0.7158 -0.3217
  105MOL   H18721195   0.069   1.491   6.259  0.8473 -0.5871 -0.5391
  105MOL   H18821196   0.147   1.585   6.133 -2.4792  0.1571 -0.0861
  105MOL   H18921197   0.329   1.537   6.371  0.7216  1.5297  1.0606
  105MOL   H19021198   0.307   1.672   6.260  0.2805  2.3257  2.6159
  105MOL   H19121199   0.103   1.626   6.456  1.1301 -1.3807  0.3490
  105MOL   C19221200   0.150   1.817   6.403 -0.6375  0.0876  0.2722
  105MOL   O19321201   0.216   1.890   6.327  0.2338 -0.0967 -0.2419
  105MOL   C19421202   0.063   1.863   6.523 -0.2890  0.8768  0.2108
  105MOL   C19521203   7.768   2.001   6.506  0.0594 -0.0100 -0.1514
  105MOL   N19621204   0.074   2.119   6.498 -0.0223  0.1238  0.2300
  105MOL   H19721205   7.773   1.786   6.556 -0.7909  2.0777  2.0825
  105MOL   H19821206   0.135   1.875   6.604  0.6846 -1.0729 -0.3245
  105MOL   H19921207   7.725   1.995   6.406  2.0553  0.3774 -1.0532
  105MOL   H20021208   7.686   2.016   6.577 -0.2383  0.1140 -0.5234
  105MOL   H20121209   0.155   2.118   6.559  0.4374  0.2139 -0.3686
  105MOL   H20221210   0.128   2.114   6.413  1.8227  0.0827  1.3787
  106MOL     C121211   6.822   3.631   6.835 -0.4455  0.8577 -0.1687
  106MOL     O221212   6.707   3.651   6.861  0.1804 -0.2469  0.2656
  106MOL     C321213   6.871   3.630   6.691 -0.2943  0.1841  0.0622
  106MOL     C421214   7.014   3.672   6.681  0.8117 -0.3022 -0.7187
  106MOL     N521215   7.105   3.561   6.650 -0.3375 -0.0334  0.6044
  106MOL     H621216   6.807   3.703   6.641  0.0036 -1.7937 -3.3621
  106MOL     H721217   6.839   3.543   6.634 -2.2255  0.7914  0.1550
  106MOL     H821218   7.047   3.738   6.761  2.6803 -1.0818 -0.8076
  106MOL     H921219   7.012   3.739   6.595  0.1489 -1.9177 -1.9869
  106MOL    H1021220   7.166   3.568   6.570 -2.2554 -1.6461 -1.0528
  106MOL    H1121221   6.904   3.623   6.905 -0.2416 -0.1144 -0.5181
  106MOL    C1221222   7.137   3.457   6.721  0.2564 -0.5456  0.3577
  106MOL    O1321223   7.097   3.439   6.834  0.0997 -0.4389 -0.0559
  106MOL    C1421224   7.227   3.343   6.667 -0.6822  0.2217  0.7964
  106MOL    C1521225   7.237   3.227   6.761  0.4940  0.3137  0.6920
  106MOL    N1621226   7.319   3.258   6.874 -0.1621 -0.0599 -0.4547
  106MOL    H1721227   7.328   3.376   6.642 -1.4782  0.5416 -2.1478
  106MOL    H1821228   7.178   3.309   6.576  0.0658  2.5862 -0.5225
  106MOL    H1921229   7.139   3.195   6.797 -0.6603  3.3310  0.3953
  106MOL    H2021230   7.264   3.137   6.706 -0.0113  0.8326 -0.4221
  106MOL    H2121231   7.386   3.333   6.869 -1.3140  1.2931  2.8442
  106MOL    C2221232   7.303   3.180   6.989  0.1080  0.1773  0.2206
  106MOL    O2321233   7.247   3.070   6.989  0.1994 -0.1391 -0.1294
  106MOL    C2421234   7.369   3.228   7.122 -0.0416 -0.2745  0.1526
  106MOL    C2521235   7.477   3.124   7.158 -0.6036  0.0563  0.2985
  106MOL    N2621236   7.525   3.135   7.292 -0.0029  0.6960  0.0183
  106MOL    H2721237   7.288   3.232   7.195 -0.8368 -0.0494 -0.7175
  106MOL    H2821238   7.406   3.330   7.115 -1.1266  0.1660  0.7045
  106MOL    H2921239   7.431   3.025   7.157  0.3406 -0.3870 -1.8220
  106MOL    H3021240   7.567   3.127   7.098  0.9596  0.2904  2.5884
  106MOL    H3121241   7.459   3.178   7.356  0.1044  0.1838  0.4829
  106MOL    C3221242   7.647   3.092   7.347  0.0810 -0.6325 -0.0568
  106MOL    O3321243   7.730   3.029   7.288 -0.1447 -0.2179  0.0286
  106MOL    C3421244   7.664   3.120   7.492 -0.0876  0.0621 -0.6415
  106MOL    C3521245   0.026   3.105   7.557  0.0530 -1.0333  0.6704
  106MOL    N3621246   0.028   3.169   7.685  0.0892  0.7005 -0.1412
  106MOL    H3721247   7.591   3.074   7.559 -2.3079 -2.1128 -4.3848
  106MOL    H3821248   7.644   3.227   7.502 -4.0378 -0.6508 -0.3599
  106MOL    H3921249   0.047   2.999   7.565  2.9342 -0.5088  0.3996
  106MOL    H4021250   0.101   3.161   7.501 -1.3379 -0.5093 -0.7234
  106MOL    H4121251   0.072   3.260   7.683 -0.2366  0.8991  1.1300
  106MOL    C4221252   7.778   3.112   0.018 -0.1311 -0.3643 -0.5097
  106MOL    O4321253   7.726   3.004   0.031 -0.2756 -0.0965 -0.0392
  106MOL    C4421254   0.019   3.189   0.146  0.0053  0.2636  0.0420
  106MOL    C4521255   0.120   3.114   0.241 -0.4252  0.2845  0.1928
  106MOL    N4621256   0.164   3.187   0.354  0.4643  0.2038 -1.3019
  106MOL    H4721257   0.057   3.288   0.117  3.2344 -0.5989  1.0756
  106MOL    H4821258   7.701   3.206   0.190  0.1605  1.1745  0.0544
  106MOL    H4921259   0.079   3.014   0.256 -0.7991  0.5481  1.0090
  106MOL    H5021260   0.206   3.097   0.177  0.1392  0.4209  0.9052
  106MOL    H5121261   0.142   3.153   0.447 -1.9868  0.2376 -1.8404
  106MOL    C5221262   0.237   3.295   0.359 -0.5406 -0.3358 -0.1495
  106MOL    O5321263   0.274   3.355   0.259  0.3754  0.1776  0.5994
  106MOL    C5421264   0.275   3.352   0.499  0.0632  0.4780 -0.5585
  106MOL    C5521265   0.367   3.479   0.508 -0.6024 -0.6078  0.1227
  106MOL    N5621266   0.468   3.482   0.609 -0.1212  0.1380 -0.0205
  106MOL    H5721267   0.182   3.360   0.555  0.8354  0.0849  0.8264
  106MOL    H5821268   0.321   3.276   0.562 -1.9337 -1.9805 -1.9636
  106MOL    H5921269   0.312   3.573   0.512  0.6550  0.1423  0.0220
  106MOL    H6021270   0.424   3.485   0.416  1.2539 -0.2170  1.2734
  106MOL    H6121271   0.529   3.402   0.621 -0.4112  0.0103  0.6273
  106MOL    C6221272   0.462   3.549   0.720  0.2412 -0.8334  0.6157
  106MOL    O6321273   0.384   3.643   0.742 -0.3268  0.1412 -0.4272
  106MOL    C6421274   0.569   3.526   0.823 -0.3373  0.0693  0.4929
  106MOL    C6521275   0.687   3.627   0.824  0.5049  0.4156 -0.5491
  106MOL    N6621276   0.791   3.607   0.728  0.1085 -0.0239 -0.4340
  106MOL    H6721277   0.518   3.533   0.919  1.3883 -3.5386  1.7749
  106MOL    H6821278   0.613   3.428   0.805 -0.0026  0.4479 -0.7673
  106MOL    H6921279   0.653   3.730   0.839 -1.1072 -0.0382 -0.9756
  106MOL    H7021280   0.742   3.610   0.917 -1.8642  1.0570  1.0238
  106MOL    H7121281   0.776   3.655   0.641  0.2384  0.0293 -0.4273
  106MOL    C7221282   0.906   3.532   0.745 -0.5261  0.0327 -0.2666
  106MOL    O7321283   0.946   3.475   0.850 -0.3387 -0.0888  0.1958
  106MOL    C7421284   1.006   3.537   0.639  0.4835 -0.3342  0.2410
  106MOL    C7521285   1.001   3.411   0.542 -0.0168 -0.4906  0.6200
  106MOL    N7621286   1.052   3.451   0.412 -0.6066 -0.2610 -0.1333
  106MOL    H7721287   0.982   3.627   0.582 -0.1777  0.0611  1.1305
  106MOL    H7821288   1.108   3.545   0.675  0.5242 -0.0962  0.0767
  106MOL    H7921289   1.048   3.320   0.580 -1.0683 -1.3336 -0.0726
  106MOL    H8021290   0.897   3.382   0.526  0.7550 -2.3786 -1.0793
  106MOL    H8121291   0.985   3.460   0.337 -1.7410 -0.8450  0.8014
  106MOL    C8221292   1.180   3.477   0.390 -0.4273 -0.8052 -0.9131
  106MOL    O8321293   1.276   3.461   0.467 -0.1679  0.2770 -0.2619
  106MOL    C8421294   1.210   3.524   0.247  0.3040 -0.4046  1.0044
  106MOL    C8521295   1.336   3.605   0.225 -0.4875  1.5098  0.1047
  106MOL    N8621296   1.324   3.720   0.307  0.7807  0.1554 -0.4365
  106MOL    H8721297   1.214   3.433   0.188  3.3570 -0.2989  0.9481
  106MOL    H8821298   1.129   3.581   0.200  1.8240 -1.4710 -3.1126
  106MOL    H8921299   1.420   3.540   0.249 -1.0768  1.0427  0.9388
  106MOL    H9021300   1.330   3.629   0.119 -3.7282  2.8730  0.5110
  106MOL    H9121301   1.242   3.740   0.362  0.5106 -2.3827  0.1535
  106MOL    C9221302   1.432   3.793   0.349  0.3655  0.1663 -0.0043
  106MOL    O9321303   1.548   3.757   0.321 -0.5370  0.0337 -0.0729
  106MOL    C9421304   1.400   3.904   0.448  0.2415 -0.1653 -0.6246
  106MOL    C9521305   1.353   4.032   0.377  0.7150 -0.6072 -0.4661
  106MOL    N9621306   1.296   4.135   0.467  0.6797 -0.0233 -0.0700
  106MOL    H9721307   1.329   3.866   0.521 -1.1037  1.7515 -0.9157
  106MOL    H9821308   1.491   3.924   0.504  0.2733 -1.3967 -0.2094
  106MOL    H9921309   1.438   4.060   0.316  0.4805 -0.9675 -0.9682
  106MOL   H10021310   1.277   4.004   0.303 -1.2073  1.7438  0.5445
  106MOL   H10121311   1.209   4.177   0.437  0.7702  2.1690  2.5374
  106MOL   C10221312   1.356   4.193   0.572  0.3000 -0.6535 -0.0647
  106MOL   O10321313   1.462   4.155   0.618 -0.1002 -0.0350  0.0483
  106MOL   C10421314   1.294   4.315   0.630 -0.3150 -0.1516 -0.2858
  106MOL   C10521315   1.375   4.440   0.611 -0.0452  0.2921 -0.0676
  106MOL   N10621316   1.384   4.494   0.466  0.0879  0.3597  0.0944
  106MOL   H10721317   1.292   4.292   0.736  1.6685 -0.7775 -0.3681
  106MOL   H10821318   1.189   4.325   0.602 -0.8797 -2.2734  0.9747
  106MOL   H10921319   1.333   4.518   0.674 -0.7536  0.0704 -0.2544
  106MOL   H11021320   1.474   4.419   0.650 -0.1719  1.1241  0.6947
  106MOL   H11121321   1.474   4.533   0.443 -0.4940  1.1234 -0.8931
  106MOL   C11221322   1.291   4.509   0.370 -0.3110 -0.0324  0.6979
  106MOL   O11321323   1.176   4.480   0.390 -0.5025 -0.3783  0.4531
  106MOL   C11421324   1.335   4.583   0.245  0.0803 -0.5846 -0.9228
  106MOL   C11521325   1.250   4.713   0.220 -0.6276 -0.0451  0.8405
  106MOL   N11621326   1.289   4.825   0.310  0.1145  0.0690 -0.4123
  106MOL   H11721327   1.321   4.526   0.154  0.3782  0.1228 -1.4120
  106MOL   H11821328   1.441   4.606   0.240 -0.5558  3.7785  1.9768
  106MOL   H11921329   1.254   4.730   0.112  0.9036  0.1460  0.9193
  106MOL   H12021330   1.145   4.692   0.238 -1.0284  1.0663 -0.1208
  106MOL   H12121331   1.242   4.822   0.400 -0.8903 -2.3606 -0.9855
  106MOL   C12221332   1.377   4.915   0.275  0.6586  0.7100 -0.7583
  106MOL   O12321333   1.429   4.919   0.162  0.4562  0.6737 -0.8468
  106MOL   C12421334   1.409   5.025   0.376 -0.0084 -0.4301  0.3984
  106MOL   C12521335   1.563   5.055   0.382  0.6363  0.9046  0.2137
  106MOL   N12621336   1.616   5.160   0.295  0.1501  0.2546 -0.1947
  106MOL   H12721337   1.391   4.982   0.475  1.5567  2.0058  1.7896
  106MOL   H12821338   1.345   5.111   0.361  1.3887  0.7677  1.1182
  106MOL   H12921339   1.599   5.071   0.483  1.7363  0.6311 -0.1305
  106MOL   H13021340   1.610   4.959   0.358 -3.5592 -1.1363 -0.3420
  106MOL   H13121341   1.552   5.195   0.226 -0.9424 -0.8379  0.2456
  106MOL   C13221342   1.747   5.191   0.284 -0.0893 -0.4191  0.4440
  106MOL   O13321343   1.832   5.136   0.350  0.4585 -0.0072 -0.0271
  106MOL   C13421344   1.800   5.292   0.188 -0.2823 -0.0436  0.1627
  106MOL   C13521345   1.861   5.222   0.060 -0.0191  0.1411 -0.3143
  106MOL   N13621346   1.976   5.136   0.095 -0.2330 -0.0631 -0.1257
  106MOL   H13721347   1.884   5.346   0.232  0.3681 -0.6755 -0.2818
  106MOL   H13821348   1.717   5.359   0.165 -0.6090  0.0634  1.6367
  106MOL   H13921349   1.778   5.159   0.027  0.0843 -0.2367  0.1322
  106MOL   H14021350   1.896   5.285   7.759 -0.0724  3.0473  1.8208
  106MOL   H14121351   2.053   5.185   0.138  1.8062 -1.8883 -1.5717
  106MOL   C14221352   1.981   5.005   0.091  0.1563  0.3481  0.2820
  106MOL   O14321353   1.899   4.929   0.043 -0.1040 -0.3596 -0.2013
  106MOL   C14421354   2.114   4.940   0.133 -0.8347 -0.5379  0.0210
  106MOL   C14521355   2.207   4.917   0.010 -0.3213  0.2257 -0.0628
  106MOL   N14621356   2.247   4.774   0.014  0.1390  0.6598 -0.1863
  106MOL   H14721357   2.102   4.862   0.208  1.2942  0.1919  1.1382
  106MOL   H14821358   2.160   5.018   0.194 -0.5179 -2.0479  1.7313
  106MOL   H14921359   2.154   4.958   7.704  0.4274  0.0117 -0.6344
  106MOL   H15021360   2.301   4.972   0.016 -0.2531  0.0568  0.4600
  106MOL   H15121361   2.287   4.741   0.100 -0.3753  3.5196  1.1981
  106MOL   C15221362   2.288   4.720   7.681  0.5703  0.2585 -0.1985
  106MOL   O15321363   2.296   4.785   7.577  0.2999  0.4137  0.4767
  106MOL   C15421364   2.350   4.580   7.682  0.2788  0.0338 -0.4495
  106MOL   C15521365   2.304   4.503   7.552  0.6265  0.3265 -0.1064
  106MOL   N15621366   2.363   4.374   7.530  0.0649  0.5251 -0.2566
  106MOL   H15721367   2.311   4.514   7.760  0.2305  1.1157  0.4460
  106MOL   H15821368   2.458   4.568   7.692  0.2611 -0.8881 -1.2877
  106MOL   H15921369   2.196   4.496   7.557  0.7617 -0.5678  1.7807
  106MOL   H16021370   2.333   4.563   7.465  0.9062 -0.2508 -0.4152
  106MOL   H16121371   2.309   4.290   7.544 -0.1670  0.2145 -2.8371
  106MOL   C16221372   2.482   4.355   7.472 -0.5804  0.1218 -0.4241
  106MOL   O16321373   2.559   4.453   7.439 -0.1155 -0.1437  0.1614
  106MOL   C16421374   2.527   4.214   7.448 -0.0017  0.2275 -0.0784
  106MOL   C16521375   2.678   4.188   7.453  0.3398 -0.3734  0.2457
  106MOL   N16621376   2.706   4.065   7.377  0.2149  0.2039 -0.2954
  106MOL   H16721377   2.484   4.185   7.352 -1.6521 -1.4428  1.1243
  106MOL   H16821378   2.472   4.142   7.509 -2.0779  1.3568 -0.5649
  106MOL   H16921379   2.736   4.268   7.408  0.1870 -0.4137 -0.0266
  106MOL   H17021380   2.712   4.168   7.555 -1.6990 -0.3735  0.9568
  106MOL   H17121381   2.627   4.003   7.362  2.2643 -2.3116 -1.1417
  106MOL   C17221382   2.828   4.009   7.349  0.7211 -0.1368  0.6912
  106MOL   O17321383   2.927   4.074   7.377 -0.2018 -0.0901 -0.9364
  106MOL   C17421384   2.829   3.871   7.284  0.3154 -0.0243 -0.0314
  106MOL   C17521385   2.907   3.871   7.148 -0.4320 -0.3301  0.1904
  106MOL   N17621386   2.864   3.743   7.084 -0.6048  0.3185  0.4734
  106MOL   H17721387   2.727   3.845   7.259  0.2988  0.3634 -0.3698
  106MOL   H17821388   2.872   3.796   7.349  1.4959  2.2651  1.9053
  106MOL   H17921389   2.880   3.957   7.087  1.2476  1.2861  1.6678
  106MOL   H18021390   3.016   3.869   7.152 -0.4231 -2.0570 -0.6317
  106MOL   H18121391   2.820   3.676   7.145  1.0362 -1.2587 -0.0676
  106MOL   C18221392   2.869   3.716   6.955  0.1112 -0.3981 -0.3735
  106MOL   O18321393   2.895   3.800   6.869 -0.1068 -0.1671  0.4031
  106MOL   C18421394   2.837   3.572   6.915  0.2050  0.9863 -0.4396
  106MOL   C18521395   2.792   3.561   6.765 -0.0811  0.2293  0.1531
  106MOL   N18621396   2.722   3.436   6.740  0.4039 -0.0451 -0.5078
  106MOL   H18721397   2.756   3.539   6.980 -1.3042  0.8043 -2.3567
  106MOL   H18821398   2.926   3.516   6.941 -0.6760 -0.2293  0.0167
  106MOL   H18921399   2.725   3.641   6.733  0.3953  1.5279  2.2910
  106MOL   H19021400   2.877   3.569   6.697 -1.0899  0.8331 -1.0582
  106MOL   H19121401   2.707   3.376   6.820 -0.2752  2.0194  0.9705
  106MOL   C19221402   2.689   3.382   6.619 -0.0718  0.2077  0.2009
  106MOL   O19321403   2.702   3.451   6.517  0.2664 -0.6826 -0.4849
  106MOL   C19421404   2.615   3.244   6.604 -0.2526 -0.2840 -0.2051
  106MOL   C19521405   2.667   3.166   6.479  0.2021  0.8252  0.0333
  106MOL   N19621406   2.806   3.138   6.469  0.0033 -0.0745 -0.1455
  106MOL   H19721407   2.628   3.183   6.693  0.3974  0.1099 -0.0169
  106MOL   H19821408   2.509   3.263   6.586 -0.3015 -0.8310 -0.4802
  106MOL   H19921409   2.614   3.070   6.474  1.8651 -0.0836 -0.6189
  106MOL   H20021410   2.645   3.217   6.385  1.0612  1.9172  0.4205
  106MOL   H20121411   2.833   3.079   6.546  0.6022 -1.0826 -1.1200
  106MOL   H20221412   2.828   3.073   6.395  0.2098  0.8676 -0.9157
  107MOL     C121413   5.815   1.799   4.141  0.0931  0.0363  0.0430
  107MOL     O221414   5.769   1.911   4.118  0.0699  0.5217 -0.5459
  107MOL     C321415   5.964   1.788   4.186 -0.1488 -0.3171  0.2663
  107MOL     C421416   6.040   1.684   4.106 -0.0259  0.2003 -0.3141
  107MOL     N521417   6.076   1.724   3.969 -0.8463 -0.2497 -0.2956
  107MOL     H621418   5.979   1.779   4.294 -0.1419  0.5891  0.3494
  107MOL     H721419   6.016   1.884   4.181  0.2117 -0.6187 -2.3891
  107MOL     H821420   5.985   1.590   4.109 -1.8137  1.2469  0.6275
  107MOL     H921421   6.133   1.658   4.157 -1.0513  0.3875  1.6884
  107MOL    H1021422   6.007   1.704   3.898 -0.1824  0.6892 -1.2196
  107MOL    H1121423   5.752   1.711   4.130  0.2705  0.4444 -5.0701
  107MOL    C1221424   6.184   1.799   3.941  0.6128  0.5024 -0.6494
  107MOL    O1321425   6.268   1.834   4.028  0.1543  0.2280  0.3225
  107MOL    C1421426   6.187   1.864   3.804  0.0421  0.2528 -0.0751
  107MOL    C1521427   6.232   2.013   3.797  0.4456 -0.8520 -0.5927
  107MOL    N1621428   6.309   2.051   3.680 -0.0215  0.1400 -0.0811
  107MOL    H1721429   6.091   1.851   3.755  1.3142 -1.9961 -2.0603
  107MOL    H1821430   6.253   1.798   3.747 -3.2468 -1.0444 -2.5440
  107MOL    H1921431   6.142   2.075   3.802  1.5489  1.0386 -3.5562
  107MOL    H2021432   6.287   2.039   3.888 -3.8473 -2.2141  2.6043
  107MOL    H2121433   6.409   2.051   3.695 -0.0156  3.5788  0.3472
  107MOL    C2221434   6.267   2.091   3.559 -0.2871 -0.1463 -0.1388
  107MOL    O2321435   6.149   2.093   3.538 -0.0062  0.2829  0.1454
  107MOL    C2421436   6.375   2.115   3.457 -0.2072 -0.0097  0.6669
  107MOL    C2521437   6.333   2.118   3.312  0.6286 -0.3703 -0.6589
  107MOL    N2621438   6.280   1.990   3.260 -0.2503 -0.9004 -0.3255
  107MOL    H2721439   6.443   2.033   3.477 -1.7580 -1.3052  0.7404
  107MOL    H2821440   6.429   2.208   3.478 -0.3844 -0.1039  1.5524
  107MOL    H2921441   6.264   2.202   3.300 -0.5144 -1.3813 -1.3530
  107MOL    H3021442   6.414   2.146   3.245  1.4569 -0.7722  0.1697
  107MOL    H3121443   6.267   1.912   3.324 -1.0747 -1.0889 -0.7046
  107MOL    C3221444   6.256   1.972   3.128  0.7420 -0.0858 -0.7032
  107MOL    O3321445   6.263   2.058   3.044  0.3172  0.8378 -0.4440
  107MOL    C3421446   6.219   1.830   3.089  0.2082  0.8326 -1.0597
  107MOL    C3521447   6.327   1.725   3.137 -0.1770  0.4082  0.0927
  107MOL    N3621448   6.273   1.631   3.232 -0.2208  0.0364 -0.7509
  107MOL    H3721449   6.214   1.831   2.980 -0.5257 -0.1357 -1.0425
  107MOL    H3821450   6.127   1.800   3.138  1.8139 -0.1443  1.4644
  107MOL    H3921451   6.360   1.675   3.046  0.3469 -0.9001  0.9878
  107MOL    H4021452   6.423   1.765   3.169  0.2857 -1.4284  1.0775
  107MOL    H4121453   6.282   1.534   3.204 -2.6473 -1.3807  3.0339
  107MOL    C4221454   6.237   1.657   3.361  0.5400  0.2997  0.1010
  107MOL    O4321455   6.251   1.767   3.411  0.1992  0.1841  0.8219
  107MOL    C4421456   6.175   1.540   3.429  0.3535  0.0264 -0.3462
  107MOL    C4521457   6.115   1.577   3.563  0.3634  0.0817  0.2936
  107MOL    N4621458   6.023   1.476   3.614  0.4013  0.4994 -0.5845
  107MOL    H4721459   6.111   1.493   3.354 -1.9978  0.3711  1.4041
  107MOL    H4821460   6.258   1.472   3.449  0.0702  0.3916  2.2882
  107MOL    H4921461   6.192   1.585   3.640  2.0214  0.7583 -1.3935
  107MOL    H5021462   6.066   1.674   3.558 -2.3694 -1.2945 -0.2406
  107MOL    H5121463   6.066   1.399   3.663 -0.0263  0.4439 -0.2922
  107MOL    C5221464   5.897   1.451   3.578 -0.1290 -0.6319  0.4336
  107MOL    O5321465   5.830   1.512   3.501 -0.1579 -0.4056 -0.3239
  107MOL    C5421466   5.829   1.334   3.653  0.7626 -0.0311 -0.0285
  107MOL    C5521467   5.689   1.295   3.608  0.0491 -0.3066  0.3355
  107MOL    N5621468   5.707   1.174   3.528 -0.1618  0.1753 -0.2706
  107MOL    H5721469   5.898   1.251   3.637 -0.0012 -0.4956 -1.0019
  107MOL    H5821470   5.814   1.363   3.756 -0.6845  2.4665 -0.9079
  107MOL    H5921471   5.632   1.374   3.560 -0.5837  0.0077  1.5868
  107MOL    H6021472   5.630   1.268   3.696  1.0265 -0.9924  0.7911
  107MOL    H6121473   5.754   1.197   3.442  2.4373  3.0623  1.7631
  107MOL    C6221474   5.671   1.043   3.549 -0.2937 -0.6337 -0.0940
  107MOL    O6321475   5.613   1.008   3.657  0.2100  0.0161 -0.3843
  107MOL    C6421476   5.706   0.946   3.435  0.4576  0.1324 -0.0425
  107MOL    C6521477   5.629   0.806   3.441  0.0438  0.5127 -0.0058
  107MOL    N6621478   5.699   0.698   3.497 -0.2981 -0.0790 -0.5363
  107MOL    H6721479   5.692   0.987   3.336 -0.5572 -0.2853 -0.0814
  107MOL    H6821480   5.811   0.928   3.461  0.5847  1.1949  0.1780
  107MOL    H6921481   5.537   0.817   3.499 -0.9108  1.2658 -1.6174
  107MOL    H7021482   5.592   0.779   3.342 -1.1301  0.3298  0.4734
  107MOL    H7121483   5.667   0.676   3.590  1.4867 -0.1288  0.0802
  107MOL    C7221484   5.790   0.631   3.432  1.1946 -0.0743  0.3102
  107MOL    O7321485   5.826   0.657   3.316  0.2323 -0.2738 -0.2607
  107MOL    C7421486   5.854   0.524   3.516  0.6528  0.1549  0.4065
  107MOL    C7521487   5.982   0.459   3.451 -0.6086  0.5159  0.4090
  107MOL    N7621488   6.066   0.375   3.541  0.5315  0.0946 -0.2385
  107MOL    H7721489   5.878   0.560   3.616 -0.6816 -0.9185  1.1343
  107MOL    H7821490   5.780   0.450   3.547  0.6646  0.5149  1.3396
  107MOL    H7921491   5.934   0.398   3.374 -0.1034 -1.7499  1.8491
  107MOL    H8021492   6.042   0.538   3.406  0.1904 -1.5592 -2.2935
  107MOL    H8121493   6.158   0.412   3.561 -0.1414  0.5810  2.1662
  107MOL    C8221494   6.018   0.275   3.613  0.2853 -1.0548  0.2522
  107MOL    O8321495   5.903   0.228   3.600  0.1475 -0.6253  0.8781
  107MOL    C8421496   6.107   0.210   3.718 -0.1554 -0.6667  0.3244
  107MOL    C8521497   6.097   0.056   3.712  0.6295  0.6032 -0.5079
  107MOL    N8621498   5.976   0.005   3.773 -0.3323 -0.3886 -0.0546
  107MOL    H8721499   6.214   0.220   3.697 -0.4462 -0.6451 -1.1980
  107MOL    H8821500   6.080   0.250   3.816 -1.9114  0.5867 -0.6463
  107MOL    H8921501   6.116   0.022   3.611  1.1782 -2.1580  0.4862
  107MOL    H9021502   6.182   0.010   3.761 -2.1673 -4.1139  0.2075
  107MOL    H9121503   5.896   0.066   3.764 -1.3108 -1.6340  0.0712
  107MOL    C9221504   5.961   7.664   3.820  0.0778 -0.3221 -1.1269
  107MOL    O9321505   6.052   7.580   3.823 -1.1955  0.9612 -0.3648
  107MOL    C9421506   5.819   7.629   3.859  0.3962  0.2094  0.1911
  107MOL    C9521507   5.805   7.524   3.965 -0.1578  0.1623 -0.1800
  107MOL    N9621508   5.679   7.517   4.036  0.3040 -0.0818  0.2955
  107MOL    H9721509   5.786   7.719   3.912 -0.9941  1.7813 -3.1542
  107MOL    H9821510   5.746   7.625   3.778  1.2273 -0.4163 -0.5265
  107MOL    H9921511   5.838   7.432   3.916 -0.4473  0.6377 -1.2863
  107MOL   H10021512   5.885   7.542   4.036 -2.3610 -0.5807  2.6119
  107MOL   H10121513   5.618   7.441   4.010  1.7496 -1.6723  1.4586
  107MOL   C10221514   5.639   7.610   4.128  0.4691 -0.1337  0.1072
  107MOL   O10321515   5.704   7.711   4.168 -0.0382  0.0894  0.6964
  107MOL   C10421516   5.501   7.589   4.188 -0.1629  0.0574 -0.8178
  107MOL   C10521517   5.412   7.694   4.137 -0.7404  0.1325  0.3777
  107MOL   N10621518   5.279   7.684   4.196 -0.2051  0.3688  0.2173
  107MOL   H10721519   5.488   7.597   4.296 -0.8330  0.2760 -0.9124
  107MOL   H10821520   5.453   7.499   4.149 -0.5333  0.0336 -0.3090
  107MOL   H10921521   5.433   0.018   4.163  1.3575 -0.2398  0.2555
  107MOL   H11021522   5.409   7.680   4.029  1.2835 -0.4132  0.3767
  107MOL   H11121523   5.271   7.680   4.297 -0.0960  1.7460  0.3019
  107MOL   C11221524   5.166   7.706   4.128 -0.2885  0.0900 -0.1965
  107MOL   O11321525   5.161   7.722   4.005  0.1036 -0.5437 -0.3828
  107MOL   C11421526   5.036   7.726   4.209  0.4048 -0.9195 -0.2743
  107MOL   C11521527   4.900   7.717   4.141 -0.5100  0.2407 -0.2025
  107MOL   N11621528   4.846   7.577   4.121  0.4698 -0.1240 -0.7220
  107MOL   H11721529   5.055   0.047   4.244 -0.2225 -1.2973  1.1828
  107MOL   H11821530   5.036   7.665   4.299  3.4654  2.0289  1.8200
  107MOL   H11921531   4.828   7.772   4.203 -2.1365 -1.0596 -0.8770
  107MOL   H12021532   4.899   7.773   4.047 -0.8058 -0.9185 -0.8950
  107MOL   H12121533   4.769   7.542   4.177  2.1513 -1.3404  0.8834
  107MOL   C12221534   4.870   7.508   4.010  0.1300  0.3952 -0.4652
  107MOL   O12321535   4.930   7.551   3.915 -0.1079  0.0335  0.2365
  107MOL   C12421536   4.818   7.364   4.007 -0.1430  0.0345 -0.3030
  107MOL   C12521537   4.791   7.316   3.863 -1.0592 -0.0944  0.3767
  107MOL   N12621538   4.744   7.171   3.858 -0.7929 -0.5399 -0.3349
  107MOL   H12721539   4.732   7.353   4.073  1.3131  0.0163  1.6211
  107MOL   H12821540   4.892   7.296   4.051  0.4835  0.4607 -0.6862
  107MOL   H12921541   4.714   7.377   3.815 -1.5281 -0.0990  1.1194
  107MOL   H13021542   4.877   7.321   3.796 -0.2857 -0.2928  1.3415
  107MOL   H13121543   4.719   7.120   3.941 -1.3826  2.0697  1.1423
  107MOL   C13221544   4.729   7.109   3.738 -0.1454  0.8112 -0.6083
  107MOL   O13321545   4.759   7.165   3.633  0.5817 -0.3006  0.1056
  107MOL   C13421546   4.684   6.962   3.737 -0.4547  0.9425 -0.6970
  107MOL   C13521547   4.531   6.954   3.728  0.0553  0.3510 -0.0015
  107MOL   N13621548   4.451   6.983   3.851  0.5078 -0.2604  0.4010
  107MOL   H13721549   4.711   6.916   3.832  2.4653  0.6625 -1.5893
  107MOL   H13821550   4.728   6.903   3.656  1.3257  1.1333  0.1099
  107MOL   H13921551   4.493   7.011   3.644 -1.6177 -1.0610 -0.2515
  107MOL   H14021552   4.513   6.852   3.692 -0.2087  1.4306 -3.0834
  107MOL   H14121553   4.388   7.061   3.853  0.4777 -0.2902  0.7644
  107MOL   C14221554   4.448   6.903   3.958 -0.3022  0.2444  0.3232
  107MOL   O14321555   4.499   6.788   3.958  0.3806  0.6068  0.5619
  107MOL   C14421556   4.365   6.947   4.081  0.5424 -0.2761  0.1904
  107MOL   C14521557   4.458   7.009   4.184 -0.0350  0.0788  0.1403
  107MOL   N14621558   4.399   7.011   4.318 -0.9117  0.4057 -0.0106
  107MOL   H14721559   4.313   6.861   4.122  0.6225  1.0390  3.1704
  107MOL   H14821560   4.286   7.019   4.059 -0.6106 -1.8435 -0.9471
  107MOL   H14921561   4.551   6.953   4.192  0.0647  0.1095 -0.7573
  107MOL   H15021562   4.487   7.105   4.144  0.4291 -0.9368 -2.0123
  107MOL   H15121563   4.326   7.080   4.330 -0.8389  0.7493 -1.3465
  107MOL   C15221564   4.449   6.938   4.418  0.4688 -0.5154 -0.4716
  107MOL   O15321565   4.552   6.869   4.413  0.1562 -0.4651 -0.2621
  107MOL   C15421566   4.380   6.958   4.556  0.8203 -1.2260  0.2725
  107MOL   C15521567   4.395   6.838   4.653  0.8137 -0.4179  0.0518
  107MOL   N15621568   4.296   6.739   4.631  0.6162  0.2523  0.2894
  107MOL   H15721569   4.280   7.000   4.563  0.3619 -2.1813 -0.4437
  107MOL   H15821570   4.449   7.025   4.607  0.5356  0.1144 -1.0720
  107MOL   H15921571   4.493   6.792   4.658  0.2442 -1.6386  0.2456
  107MOL   H16021572   4.374   6.888   4.748  0.9499 -0.6175  0.1848
  107MOL   H16121573   4.231   6.736   4.555  0.2058  0.3466  0.6362
  107MOL   C16221574   4.281   6.636   4.711  0.5402  0.1962 -0.3711
  107MOL   O16321575   4.360   6.615   4.807 -0.7557 -0.7450  0.5994
  107MOL   C16421576   4.171   6.529   4.673 -0.6872 -0.0829  0.2732
  107MOL   C16521577   4.198   6.379   4.710  0.2408  0.7472  0.2788
  107MOL   N16621578   4.311   6.309   4.644  0.0321 -0.1452 -0.0920
  107MOL   H16721579   4.150   6.529   4.566  2.0162  1.2705 -0.2837
  107MOL   H16821580   4.078   6.550   4.725 -0.0629 -3.5420  2.9890
  107MOL   H16921581   4.237   6.380   4.812  0.7476  0.2683  0.0879
  107MOL   H17021582   4.111   6.313   4.700  1.2867 -0.9110  1.7198
  107MOL   H17121583   4.366   6.348   4.569 -0.1423 -1.6099 -1.0004
  107MOL   C17221584   4.360   6.188   4.689  0.5253 -1.1149  0.1909
  107MOL   O17321585   4.333   6.141   4.800  0.1675  0.0295 -0.2777
  107MOL   C17421586   4.452   6.093   4.605 -0.3236 -0.6865 -1.1856
  107MOL   C17521587   4.406   6.058   4.472  0.2203  0.2672 -0.4006
  107MOL   N17621588   4.479   5.946   4.407 -0.8216  0.3724  0.4768
  107MOL   H17721589   4.463   6.002   4.663 -0.5018 -0.2152 -0.4085
  107MOL   H17821590   4.549   6.145   4.605 -0.2425 -0.8093 -2.3596
  107MOL   H17921591   4.305   6.017   4.468  0.6863 -0.8838 -0.7017
  107MOL   H18021592   4.404   6.143   4.404  2.4801  0.6838 -0.0026
  107MOL   H18121593   4.423   5.870   4.371 -0.2743  1.0898 -1.9859
  107MOL   C18221594   4.609   5.948   4.376  0.7118 -0.4982  0.5024
  107MOL   O18321595   4.679   6.044   4.398 -0.1753  0.2433  0.5364
  107MOL   C18421596   4.664   5.829   4.306  0.3192 -0.2837  0.2982
  107MOL   C18521597   4.801   5.778   4.367  0.2386 -0.3087  0.1409
  107MOL   N18621598   4.855   5.669   4.295  0.1012 -0.7386  0.3200
  107MOL   H18721599   4.693   5.862   4.207 -1.7118  0.3983 -0.0918
  107MOL   H18821600   4.600   5.741   4.301  3.0142 -2.5876  3.9381
  107MOL   H18921601   4.879   5.854   4.373  2.1151 -2.0890 -0.9402
  107MOL   H19021602   4.790   5.746   4.471  0.1971 -0.9611 -0.0637
  107MOL   H19121603   4.928   5.681   4.227  0.8960  2.1340  1.5739
  107MOL   C19221604   4.813   5.542   4.310 -0.3328  0.3624  0.2226
  107MOL   O19321605   4.729   5.514   4.394 -0.1373  0.0408  0.0162
  107MOL   C19421606   4.863   5.432   4.215  0.1537 -0.2932 -0.0756
  107MOL   C19521607   4.992   5.361   4.257 -0.8570 -0.0987  0.3514
  107MOL   N19621608   5.116   5.446   4.249 -0.0044 -0.2412 -0.6762
  107MOL   H19721609   4.775   5.369   4.198  1.0643 -1.8341  0.8309
  107MOL   H19821610   4.881   5.486   4.122 -0.6447 -3.0141 -1.8569
  107MOL   H19921611   4.981   5.320   4.358  1.3432 -0.1137  0.6084
  107MOL   H20021612   5.001   5.277   4.189  0.7916  1.5756 -1.5515
  107MOL   H20121613   5.177   5.428   4.327 -1.0529 -1.3308 -0.0818
  107MOL   H20221614   5.163   5.394   4.175  0.5955 -0.5642 -0.0716
  108MOL     C121615   5.420   6.027   3.864  0.4539  0.5458  0.1875
  108MOL     O221616   5.427   5.989   3.746  0.0786  0.0885  0.1636
  108MOL     C321617   5.543   6.068   3.940  0.4195 -1.2602 -0.1999
  108MOL     C421618   5.657   5.977   3.917 -0.1856  0.6470 -0.3548
  108MOL     N521619   5.769   6.014   4.008 -0.1535  0.0213  0.1504
  108MOL     H621620   5.522   6.071   4.046  0.9142  1.6560 -0.1302
  108MOL     H721621   5.572   6.167   3.906 -1.6335 -0.1843  1.0749
  108MOL     H821622   5.675   5.982   3.809  0.3651 -1.8838 -0.3929
  108MOL     H921623   5.628   5.873   3.929 -1.0003  0.6675 -1.9682
  108MOL    H1021624   5.766   5.992   4.107  0.1381 -0.4777  0.0503
  108MOL    H1121625   5.322   6.034   3.910  0.2411  0.3328 -0.2235
  108MOL    C1221626   5.882   6.073   3.969  0.2316  0.4083  0.6282
  108MOL    O1321627   5.907   6.101   3.848  0.1713  0.4683 -0.1857
  108MOL    C1421628   5.990   6.095   4.073  0.4587 -1.4407 -0.3357
  108MOL    C1521629   6.122   6.018   4.063 -0.1615  0.1290  0.4381
  108MOL    N1621630   6.103   5.885   4.114  0.3318  0.9057  0.4678
  108MOL    H1721631   5.937   6.086   4.168  1.4452 -0.8674  0.2752
  108MOL    H1821632   6.023   6.198   4.073 -1.2819 -0.8688 -0.2480
  108MOL    H1921633   6.150   6.001   3.959  0.8150  1.5027  0.4566
  108MOL    H2021634   6.200   6.080   4.107 -0.3587 -0.0178  1.0018
  108MOL    H2121635   6.124   5.811   4.048  1.0181 -0.0214  1.7070
  108MOL    C2221636   6.088   5.852   4.243  0.3439 -0.3521 -0.5501
  108MOL    O2321637   6.073   5.935   4.331 -0.1611 -0.7975 -0.3737
  108MOL    C2421638   6.075   5.702   4.270 -0.1615  0.6854  0.3479
  108MOL    C2521639   6.023   5.656   4.410  0.1979  0.1661  0.2252
  108MOL    N2621640   6.138   5.656   4.498  0.2251  0.2001  0.9208
  108MOL    H2721641   6.166   5.651   4.240 -1.3898 -2.7308  2.0618
  108MOL    H2821642   6.000   5.671   4.197  1.1639  2.2941 -1.7555
  108MOL    H2921643   5.957   5.732   4.452  0.6558 -0.3098  1.8645
  108MOL    H3021644   5.970   5.563   4.394 -1.7268  1.4687 -1.0769
  108MOL    H3121645   6.136   5.720   4.576  0.4150  1.8297 -0.3809
  108MOL    C3221646   6.211   5.547   4.510 -0.2706 -0.1714 -0.3671
  108MOL    O3321647   6.215   5.464   4.423 -0.4440 -0.2954  0.5101
  108MOL    C3421648   6.300   5.539   4.633 -0.0003  0.0797 -0.4138
  108MOL    C3521649   6.369   5.404   4.668  0.0498 -0.9602  0.9991
  108MOL    N3621650   6.283   5.294   4.681 -0.2482 -0.3687 -0.7879
  108MOL    H3721651   6.247   5.569   4.723  1.6437  1.9287 -0.0082
  108MOL    H3821652   6.367   5.625   4.629  1.2433 -0.8652 -0.4374
  108MOL    H3921653   6.457   5.380   4.609 -1.5205 -0.5985 -1.5808
  108MOL    H4021654   6.417   5.415   4.765  3.3319  0.4158 -0.7196
  108MOL    H4121655   6.197   5.295   4.628  0.1706 -0.4286 -1.4807
  108MOL    C4221656   6.293   5.197   4.774  0.0671 -0.5080 -0.3070
  108MOL    O4321657   6.395   5.177   4.837 -0.3120  0.3957  0.1602
  108MOL    C4421658   6.176   5.107   4.774  0.2361  0.2366  0.0184
  108MOL    C4521659   6.169   5.009   4.893  0.1173  0.3182  0.0325
  108MOL    N4621660   6.052   4.922   4.897 -0.2867 -1.0421  0.4294
  108MOL    H4721661   6.080   5.156   4.792 -1.0451 -1.7865 -1.0219
  108MOL    H4821662   6.167   5.060   4.676 -0.8253  0.3030  0.0761
  108MOL    H4921663   6.257   4.946   4.889  0.3287  0.5966  0.2852
  108MOL    H5021664   6.180   5.056   4.991  2.3732 -1.2495  0.5541
  108MOL    H5121665   5.970   4.957   4.850  0.1653  1.8239  1.6542
  108MOL    C5221666   6.039   4.811   4.965 -0.2947  0.2714 -1.2060
  108MOL    O5321667   6.136   4.766   5.029 -0.2867  0.0014 -0.0951
  108MOL    C5421668   5.901   4.740   4.966 -0.0768 -0.3213  0.1511
  108MOL    C5521669   5.906   4.622   5.069 -0.0834 -0.9853  0.5925
  108MOL    N5621670   5.927   4.659   5.212 -0.1242 -0.0277  0.6821
  108MOL    H5721671   5.814   4.805   4.980  0.8024  1.2532 -1.5697
  108MOL    H5821672   5.881   4.713   4.863 -2.6616 -0.1881  0.5834
  108MOL    H5921673   5.989   4.558   5.039  0.2839 -0.7582  1.1014
  108MOL    H6021674   5.824   4.552   5.085  0.7120 -2.4288 -1.4653
  108MOL    H6121675   6.019   4.637   5.249  0.8165 -0.1006 -1.6433
  108MOL    C6221676   5.832   4.717   5.290  0.0728 -0.2388  0.5873
  108MOL    O6321677   5.723   4.748   5.238 -0.1435  0.5266 -0.3984
  108MOL    C6421678   5.865   4.754   5.427  0.1428  0.0223 -0.7061
  108MOL    C6521679   5.767   4.711   5.532 -0.4029  0.6457 -0.1756
  108MOL    N6621680   5.839   4.687   5.659  0.2321 -0.3322 -0.3180
  108MOL    H6721681   5.965   4.715   5.443  0.6743  1.8071  0.5219
  108MOL    H6821682   5.881   4.861   5.419 -0.7689  0.4140  2.1456
  108MOL    H6921683   5.682   4.779   5.539 -2.1125 -1.4600  0.3276
  108MOL    H7021684   5.732   4.610   5.510 -1.5011  1.3041 -1.5289
  108MOL    H7121685   5.927   4.639   5.646  0.3072 -1.1967  2.7926
  108MOL    C7221686   5.788   4.704   5.780 -0.1671  0.0359  0.9804
  108MOL    O7321687   5.679   4.761   5.794  0.3882 -0.1050 -0.1509
  108MOL    C7421688   5.870   4.674   5.898  0.3618 -0.0928 -0.7338
  108MOL    C7521689   5.885   4.523   5.931 -0.1749  0.2139  0.3421
  108MOL    N7621690   5.801   4.478   6.050 -0.1185 -0.3519  0.2921
  108MOL    H7721691   5.968   4.720   5.896  0.0325  0.7041  0.7574
  108MOL    H7821692   5.819   4.716   5.984 -0.2324 -0.2314 -1.0140
  108MOL    H7921693   5.856   4.463   5.845  3.0615  0.7277 -1.1717
  108MOL    H8021694   5.991   4.502   5.946 -0.1952  0.7809  1.3402
  108MOL    H8121695   5.742   4.546   6.097  1.2330 -0.1022  1.6386
  108MOL    C8221696   5.775   4.350   6.076  0.6503 -0.3081 -0.6704
  108MOL    O8321697   5.827   4.267   6.017  0.1696 -0.0698 -0.1197
  108MOL    C8421698   5.689   4.321   6.201  0.1148  0.2987  0.2389
  108MOL    C8521699   5.764   4.274   6.326 -0.1792  0.5202  0.3030
  108MOL    N8621700   5.847   4.379   6.376 -0.3966  0.2852  0.2874
  108MOL    H8721701   5.620   4.404   6.216 -1.1322 -0.2770 -2.0932
  108MOL    H8821702   5.617   4.244   6.173 -0.9206  0.1731  3.0633
  108MOL    H8921703   5.684   4.259   6.398 -0.6646  0.0341 -0.3344
  108MOL    H9021704   5.820   4.183   6.302 -0.8189  0.3509 -0.5593
  108MOL    H9121705   5.862   4.455   6.312  0.1515 -0.7487 -0.8321
  108MOL    C9221706   5.902   4.383   6.496 -0.1902 -0.1038 -0.8656
  108MOL    O9321707   5.899   4.286   6.567 -0.1463 -0.1629 -0.1463
  108MOL    C9421708   5.977   4.504   6.532  0.0361  0.4802  0.6954
  108MOL    C9521709   6.018   4.516   6.685 -0.1820  0.6078 -0.8716
  108MOL    N9621710   6.069   4.647   6.722 -0.0979  0.3334  0.2658
  108MOL    H9721711   6.064   4.524   6.469 -1.8724  3.1958 -1.1964
  108MOL    H9821712   5.908   4.586   6.511 -1.8634 -0.4514  2.9929
  108MOL    H9921713   5.929   4.491   6.742  0.7212  0.3996  0.4723
  108MOL   H10021714   6.096   4.443   6.706  0.4647  1.6198  0.3165
  108MOL   H10121715   6.032   4.695   6.802 -1.5361  0.1217 -0.2480
  108MOL   C10221716   6.168   4.711   6.661 -0.2851  0.1019  0.0921
  108MOL   O10321717   6.239   4.667   6.572  0.1850 -0.1853 -0.5205
  108MOL   C10421718   6.210   4.845   6.718  0.0952 -0.3750  0.7031
  108MOL   C10521719   6.096   4.947   6.716 -0.7352 -0.0914  0.4559
  108MOL   N10621720   6.041   4.985   6.587  0.1522  0.3915  0.0048
  108MOL   H10721721   6.300   4.876   6.665  0.6979 -3.2965 -0.0249
  108MOL   H10821722   6.238   4.826   6.821  1.5920  0.2797  0.4375
  108MOL   H10921723   6.018   4.921   6.787 -2.2144  1.5445 -0.5314
  108MOL   H11021724   6.128   5.038   6.767 -1.7682 -0.0946  1.1258
  108MOL   H11121725   6.096   5.043   6.525 -2.3250  0.4340 -2.2614
  108MOL   C11221726   5.923   4.934   6.540  0.4632  0.8763 -0.1240
  108MOL   O11321727   5.851   4.863   6.612  0.8644  0.3508  0.5300
  108MOL   C11421728   5.879   4.963   6.395  0.0176  0.5978  0.2757
  108MOL   C11521729   5.875   4.856   6.293 -0.1586 -0.4010 -0.5758
  108MOL   N11621730   6.010   4.845   6.227  0.6598 -0.4230 -0.4898
  108MOL   H11721731   5.927   5.052   6.357 -0.8304  1.3337  0.9088
  108MOL   H11821732   5.777   4.997   6.412 -0.2123  0.5782 -1.0216
  108MOL   H11921733   5.845   4.759   6.333  1.1903 -1.1008 -1.2170
  108MOL   H12021734   5.790   4.867   6.226 -0.7793  2.7340  0.6497
  108MOL   H12121735   6.051   4.934   6.202 -0.6842  1.0633  2.4264
  108MOL   C12221736   6.077   4.729   6.207  0.5251  0.6608 -0.1450
  108MOL   O12321737   6.041   4.611   6.233  0.0148  0.1441 -0.4552
  108MOL   C12421738   6.221   4.745   6.151  0.3123  0.7935  0.1553
  108MOL   C12521739   6.328   4.663   6.221 -0.8806 -0.1705  0.1218
  108MOL   N12621740   6.384   4.740   6.332 -0.1571  0.1885  0.0556
  108MOL   H12721741   6.245   4.851   6.160 -2.0455  1.3988 -0.4303
  108MOL   H12821742   6.211   4.718   6.046 -1.2318 -1.2371  0.7929
  108MOL   H12921743   6.284   4.567   6.245 -0.1014 -0.5612  0.0051
  108MOL   H13021744   6.406   4.630   6.152 -1.3849 -0.0427 -0.5217
  108MOL   H13121745   6.328   4.740   6.416  1.6517  0.6012  1.3168
  108MOL   C13221746   6.506   4.781   6.344  0.0857  0.0999  0.2671
  108MOL   O13321747   6.581   4.777   6.246 -0.4830 -0.1591  0.5880
  108MOL   C13421748   6.548   4.839   6.482 -0.6364  0.4187  0.1002
  108MOL   C13521749   6.691   4.895   6.465 -0.0323 -0.0433  0.2115
  108MOL   N13621750   6.750   4.920   6.590  0.2533  0.1820  0.2612
  108MOL   H13721751   6.534   4.757   6.553  2.4703  0.6451  1.0354
  108MOL   H13821752   6.479   4.920   6.505  0.3348  1.2311  0.1729
  108MOL   H13921753   6.758   4.835   6.403  0.1976  0.4670 -0.0415
  108MOL   H14021754   6.686   4.990   6.411  1.4394 -0.3348 -0.4593
  108MOL   H14121755   6.699   4.896   6.673  0.9833 -2.5149 -0.0329
  108MOL   C14221756   6.875   4.956   6.604 -0.1902  0.4450  0.4188
  108MOL   O14321757   6.958   4.948   6.512 -0.0524  0.0441 -0.4424
  108MOL   C14421758   6.926   5.004   6.741 -0.1604  0.3992 -0.3445
  108MOL   C14521759   7.037   4.924   6.796 -0.9578  0.0386  0.2515
  108MOL   N14621760   7.088   4.980   6.921  0.1357 -0.2472  0.0425
  108MOL   H14721761   6.844   5.008   6.813  0.3942  0.5943  0.2853
  108MOL   H14821762   6.958   5.108   6.737  0.5969  0.3535  2.7481
  108MOL   H14921763   7.018   4.817   6.806 -0.4211 -0.2285 -1.4060
  108MOL   H15021764   7.119   4.924   6.724 -1.2215  0.3624 -0.0445
  108MOL   H15121765   7.069   4.933   7.008  0.8446  2.7918  1.9294
  108MOL   C15221766   7.152   5.102   6.930 -1.0376 -0.3180  0.5682
  108MOL   O15321767   7.183   5.171   6.834 -0.0629  0.2460  0.0440
  108MOL   C15421768   7.173   5.160   7.067 -0.5431  0.1614 -0.4404
  108MOL   C15521769   7.082   5.280   7.085 -0.1744 -0.5905  0.2643
  108MOL   N15621770   6.939   5.236   7.097 -0.0325  0.1707 -0.4693
  108MOL   H15721771   7.276   5.189   7.087 -0.8062  2.4507 -2.2108
  108MOL   H15821772   7.152   5.093   7.151 -0.3762  0.4731 -0.1503
  108MOL   H15921773   7.116   5.338   7.171  1.4724 -0.5076 -0.4237
  108MOL   H16021774   7.086   5.357   7.009  0.9526 -0.6911  0.2026
  108MOL   H16121775   6.889   5.212   7.013 -1.5331  0.2971  0.3667
  108MOL   C16221776   6.884   5.231   7.220 -0.1210  0.2816  0.2225
  108MOL   O16321777   6.947   5.260   7.324  0.3203  0.2373  0.7140
  108MOL   C16421778   6.739   5.193   7.222 -0.0675  0.2171 -0.3017
  108MOL   C16521779   6.632   5.298   7.246  0.3389  0.0142 -0.3381
  108MOL   N16621780   6.581   5.281   7.381  0.5851 -0.3141 -0.1023
  108MOL   H16721781   6.731   5.121   7.304 -0.9358  1.9455  1.1557
  108MOL   H16821782   6.717   5.142   7.128  1.2341 -0.7627 -0.1025
  108MOL   H16921783   6.664   5.402   7.234 -2.1932  1.0606  1.5192
  108MOL   H17021784   6.548   5.286   7.177  0.1952  0.9853 -0.3324
  108MOL   H17121785   6.630   5.215   7.440  0.2539 -0.5462 -0.0893
  108MOL   C17221786   6.472   5.342   7.429  0.0640 -0.0687  0.8546
  108MOL   O17321787   6.403   5.426   7.371  0.0858 -0.1142  0.3936
  108MOL   C17421788   6.420   5.291   7.567  0.0169 -0.4062 -0.0416
  108MOL   C17521789   6.414   5.393   7.676 -0.2169 -0.3674  0.4232
  108MOL   N17621790   6.329   5.359   0.004  0.0258 -0.5486  0.3018
  108MOL   H17721791   6.480   5.205   7.597  0.1789 -0.1699  0.3020
  108MOL   H17821792   6.321   5.256   7.538  0.8618 -0.8598 -2.5486
  108MOL   H17921793   6.513   5.436   7.694  0.4923 -0.0813 -3.8148
  108MOL   H18021794   6.373   5.482   7.630  0.7221  0.2807  0.8122
  108MOL   H18121795   6.233   5.341   7.758 -0.0653 -0.5054  0.6019
  108MOL   C18221796   6.347   5.391   0.136  0.2461 -0.0027  0.0273
  108MOL   O18321797   6.452   5.425   0.183 -0.1782  0.4936  0.3891
  108MOL   C18421798   6.229   5.376   0.233  0.3019 -0.5437  0.0296
  108MOL   C18521799   6.192   5.224   0.267  0.6016  0.5076  0.9857
  108MOL   N18621800   6.103   5.226   0.377  0.5638 -0.3032  0.0898
  108MOL   H18721801   6.143   5.421   0.183 -1.1587 -0.6591  2.3791
  108MOL   H18821802   6.261   5.430   0.321  0.3304 -0.5615  0.0301
  108MOL   H18921803   6.151   5.175   0.179  0.0034  1.4341  0.7344
  108MOL   H19021804   6.284   5.173   0.293 -0.0881 -0.0949  2.2633
  108MOL   H19121805   6.004   5.244   0.368  1.1019  1.4678 -3.1901
  108MOL   C19221806   6.146   5.226   0.504 -0.3567 -0.1294 -0.4254
  108MOL   O19321807   6.268   5.228   0.523  0.1751  0.2261 -0.1819
  108MOL   C19421808   6.044   5.245   0.608 -0.3613 -0.2579 -0.1642
  108MOL   C19521809   6.041   5.131   0.705  0.4952 -0.0284  0.0968
  108MOL   N19621810   6.023   4.994   0.642  0.6211 -0.2582  0.1430
  108MOL   H19721811   6.079   5.331   0.666  0.4531  1.6161 -3.3233
  108MOL   H19821812   5.949   5.257   0.554  0.8204  0.9793 -2.0290
  108MOL   H19921813   6.137   5.136   0.757 -0.0346 -2.2598  1.3752
  108MOL   H20021814   5.966   5.146   0.784  1.2441  0.0298  0.8028
  108MOL   H20121815   6.035   4.920   0.710  2.8591  0.6439  0.7774
  108MOL   H20221816   6.101   4.963   0.586  1.0212  1.2659 -0.1656
  109MOL     C121817   2.086   1.765   7.456  0.0234  0.5901 -0.8623
  109MOL     O221818   2.177   1.683   7.454  0.3679 -0.0013  0.0960
  109MOL     C321819   2.117   1.914   7.468  0.7725  0.0850  0.2623
  109MOL     C421820   2.267   1.935   7.479 -0.2470 -0.3613 -0.0291
  109MOL     N521821   2.304   2.080   7.466  0.4547 -0.0745  0.0930
  109MOL     H621822   2.067   1.934   7.563 -0.7353 -2.4406  0.0482
  109MOL     H721823   2.068   1.974   7.392  2.0356 -0.2794 -0.8759
  109MOL     H821824   2.324   1.892   7.397 -0.7258 -1.7072  0.3267
  109MOL     H921825   2.299   1.893   7.574 -0.4244 -1.9575 -0.6619
  109MOL    H1021826   2.352   2.103   7.380 -1.3532 -0.8565 -1.1357
  109MOL    H1121827   1.983   1.733   7.442 -0.1221  0.7336 -0.1327
  109MOL    C1221828   2.336   2.168   7.563  0.5276 -0.1495 -0.1162
  109MOL    O1321829   2.317   2.151   7.680  0.2362 -0.0687 -0.0791
  109MOL    C1421830   2.403   2.293   7.506  0.5454 -0.6015  0.2268
  109MOL    C1521831   2.405   2.417   7.599  0.2604  0.1443 -0.5110
  109MOL    N1621832   2.280   2.454   7.658  0.5491  0.0078 -0.0335
  109MOL    H1721833   2.352   2.314   7.413  0.8726 -1.6932 -0.2081
  109MOL    H1821834   2.510   2.286   7.485  0.3924 -0.6972 -0.5270
  109MOL    H1921835   2.470   2.404   7.686  1.8138  2.2475 -1.3094
  109MOL    H2021836   2.453   2.495   7.540 -0.1046  0.6659 -0.1258
  109MOL    H2121837   2.252   2.419   7.749 -0.8163 -2.0057 -1.1906
  109MOL    C2221838   2.183   2.519   7.589 -0.1943 -0.5764  0.0488
  109MOL    O2321839   2.198   2.536   7.468  0.3612 -0.1427 -0.0942
  109MOL    C2421840   2.048   2.557   7.648 -0.9341 -0.2302  0.1543
  109MOL    C2521841   1.919   2.528   7.564 -0.0423 -0.0970  0.4183
  109MOL    N2621842   1.903   2.593   7.436 -1.0149  0.8113 -0.0616
  109MOL    H2721843   2.046   2.662   7.677  1.8941  0.1497 -0.8755
  109MOL    H2821844   2.051   2.491   7.734 -1.2805  0.6996  0.8922
  109MOL    H2921845   1.915   2.419   7.566  1.2890 -0.1648 -0.2808
  109MOL    H3021846   1.843   2.564   7.633  0.5611 -0.0418  1.0617
  109MOL    H3121847   1.975   2.656   7.405  0.5554  0.8471  3.4336
  109MOL    C3221848   1.793   2.582   7.360  0.1463 -0.7818  0.1041
  109MOL    O3321849   1.698   2.515   7.399  0.1652 -0.5274 -0.1261
  109MOL    C3421850   1.788   2.657   7.233 -0.3811 -0.8423  0.4532
  109MOL    C3521851   1.825   2.588   7.103 -0.0315  0.0840 -0.3865
  109MOL    N3621852   1.967   2.548   7.091 -0.4290 -0.7276 -0.8800
  109MOL    H3721853   1.841   2.752   7.243 -1.7963  0.0578 -0.4916
  109MOL    H3821854   1.683   2.684   7.223 -0.6061 -1.9594 -0.2483
  109MOL    H3921855   1.760   2.501   7.094  1.1306 -1.0441  1.6679
  109MOL    H4021856   1.799   2.649   7.017 -1.1978 -0.4703 -0.4379
  109MOL    H4121857   2.036   2.600   7.143 -1.3528  1.3482 -1.6853
  109MOL    C4221858   2.016   2.450   7.024  0.4225 -0.4505 -0.0001
  109MOL    O4321859   1.951   2.385   6.942 -0.7219 -0.3785  0.0274
  109MOL    C4421860   2.166   2.433   7.053  0.4935  0.0689  0.3160
  109MOL    C4521861   2.189   2.353   7.183 -0.6843  0.2579  0.1497
  109MOL    N4621862   2.237   2.220   7.156  0.1013 -1.0560  0.4021
  109MOL    H4721863   2.209   2.383   6.966 -1.5473 -1.1576 -0.0361
  109MOL    H4821864   2.206   2.534   7.059  1.2495 -0.2128  0.0450
  109MOL    H4921865   2.276   2.411   7.214  0.2781 -1.1808  0.1939
  109MOL    H5021866   2.111   2.355   7.260 -1.9607 -0.3767 -1.1138
  109MOL    H5121867   2.333   2.203   7.132  0.3422 -2.2721  2.1347
  109MOL    C5221868   2.153   2.114   7.128  0.1587 -0.8339 -0.3819
  109MOL    O5321869   2.031   2.122   7.155 -0.0294  0.0425  0.0266
  109MOL    C5421870   2.219   1.986   7.077 -0.1174  0.3054  0.0967
  109MOL    C5521871   2.183   1.971   6.920  0.6219  0.2298 -0.9112
  109MOL    N5621872   2.039   1.947   6.895 -0.1792 -0.2819 -1.1225
  109MOL    H5721873   2.326   2.001   7.086 -0.2094  0.8951  0.1974
  109MOL    H5821874   2.193   1.905   7.146  3.6794 -1.5440 -0.5060
  109MOL    H5921875   2.249   1.890   6.889 -0.3580 -0.8135 -0.3034
  109MOL    H6021876   2.210   2.058   6.860 -0.8830  2.6294  1.7433
  109MOL    H6121877   1.984   2.012   6.841  0.0157  0.8643  0.0431
  109MOL    C6221878   1.956   1.863   6.952 -0.5047 -0.0565 -0.3595
  109MOL    O6321879   1.993   1.787   7.046 -0.4043  0.7124 -0.0078
  109MOL    C6421880   1.811   1.873   6.906  0.3470 -0.3101 -0.2821
  109MOL    C6521881   1.746   1.745   6.856 -0.7933  0.1721 -0.0155
  109MOL    N6621882   1.774   1.714   6.708 -0.2914 -0.9135 -1.1981
  109MOL    H6721883   1.748   1.899   6.991  0.5673 -0.5061 -0.0598
  109MOL    H6821884   1.789   1.951   6.833 -0.5463  0.9610  1.3041
  109MOL    H6921885   1.774   1.659   6.917 -1.0340  0.3321  0.3238
  109MOL    H7021886   1.639   1.733   6.875 -1.0736 -0.6623 -1.9849
  109MOL    H7121887   1.860   1.667   6.684  1.1462  0.2978  1.2769
  109MOL    C7221888   1.695   1.737   6.605 -0.2119  0.1820  0.0831
  109MOL    O7321889   1.585   1.786   6.609 -0.0491 -0.1970 -0.1996
  109MOL    C7421890   1.756   1.686   6.474 -0.2387 -0.2601 -0.5503
  109MOL    C7521891   1.698   1.761   6.352  0.0463 -0.0123 -0.2576
  109MOL    N7621892   1.767   1.731   6.223  0.6575 -0.1255  0.1052
  109MOL    H7721893   1.864   1.695   6.478 -0.0920 -1.8669 -0.4702
  109MOL    H7821894   1.734   1.580   6.485  0.3269 -0.4747 -1.4663
  109MOL    H7921895   1.591   1.740   6.345  0.3972 -1.1510 -2.8642
  109MOL    H8021896   1.709   1.867   6.375  1.3155  0.3418 -2.3745
  109MOL    H8121897   1.812   1.807   6.174 -0.3941 -0.0899 -0.8216
  109MOL    C8221898   1.752   1.618   6.152  0.4408 -0.0627  0.4956
  109MOL    O8321899   1.683   1.529   6.202  0.3216  0.3693 -0.0800
  109MOL    C8421900   1.788   1.621   6.003 -0.3716  0.2256  0.6402
  109MOL    C8521901   1.783   1.490   5.931 -0.4556  0.4400 -0.0282
  109MOL    N8621902   1.824   1.515   5.791  0.3504 -0.4962 -0.1455
  109MOL    H8721903   1.720   1.692   5.956 -0.2010  0.4534  0.7382
  109MOL    H8821904   1.890   1.661   5.996  0.0513 -0.9442 -0.0474
  109MOL    H8921905   1.831   1.405   5.980  1.0539  0.3132 -1.6809
  109MOL    H9021906   1.678   1.463   5.922 -0.7452  1.3299  0.5688
  109MOL    H9121907   1.850   1.611   5.778 -1.7607  0.3027  1.3556
  109MOL    C9221908   1.824   1.418   5.697 -1.2989  0.7745 -0.4336
  109MOL    O9321909   1.789   1.301   5.708 -0.0269  0.2054 -0.1857
  109MOL    C9421910   1.883   1.455   5.557 -0.5887  0.0444 -0.6055
  109MOL    C9521911   2.037   1.475   5.558 -0.3964  0.3088  0.8275
  109MOL    N9621912   2.103   1.349   5.526  0.7496  0.1475  0.8276
  109MOL    H9721913   1.847   1.383   5.483 -1.6596  0.5065 -0.5455
  109MOL    H9821914   1.822   1.540   5.525  1.2975  1.3164 -0.8686
  109MOL    H9921915   2.062   1.544   5.477 -2.1372 -1.6242 -1.4529
  109MOL   H10021916   2.067   1.506   5.658 -0.7701 -0.5376  1.2032
  109MOL   H10121917   2.049   1.267   5.503  0.2296  0.4594  0.9548
  109MOL   C10221918   2.234   1.344   5.524  0.3350  0.0599 -0.5195
  109MOL   O10321919   2.310   1.432   5.547  0.2555  0.8471 -0.9345
  109MOL   C10421920   2.293   1.206   5.483 -0.0990 -0.2860  0.1782
  109MOL   C10521921   2.446   1.175   5.507 -0.6309  0.0654  0.3384
  109MOL   N10621922   2.521   1.242   5.402  0.0204 -0.4375 -0.4637
  109MOL   H10721923   2.271   1.185   5.378 -0.9808 -0.7787  0.4587
  109MOL   H10821924   2.247   1.128   5.543  0.9091  0.0263  1.3705
  109MOL   H10921925   2.482   1.207   5.605 -0.4054  0.1293  0.2328
  109MOL   H11021926   2.459   1.068   5.493  1.5408  0.3299  0.1494
  109MOL   H11121927   2.477   1.316   5.350 -1.0013  1.1104  2.5039
  109MOL   C11221928   2.651   1.221   5.367  0.1475 -0.8287  0.1999
  109MOL   O11321929   2.720   1.133   5.420 -0.1903  0.1285 -0.4941
  109MOL   C11421930   2.706   1.294   5.248  0.0767  0.2763  0.1283
  109MOL   C11521931   2.803   1.207   5.164  0.1688 -1.0862 -0.1115
  109MOL   N11621932   2.813   1.245   5.023  0.0878  0.0528  0.6334
  109MOL   H11721933   2.742   1.395   5.268  4.0311 -1.1427  0.5783
  109MOL   H11821934   2.609   1.299   5.197  1.0890  0.9295 -1.7852
  109MOL   H11921935   2.904   1.198   5.203  0.0062 -1.4235  0.2324
  109MOL   H12021936   2.761   1.107   5.162 -0.0433 -1.0537  1.6505
  109MOL   H12121937   2.907   1.266   4.992 -0.8208  0.6020 -1.8579
  109MOL   C12221938   2.728   1.215   4.923 -0.0850 -0.0757 -0.4941
  109MOL   O12321939   2.617   1.165   4.946 -0.0665  0.2821 -0.0256
  109MOL   C12421940   2.770   1.232   4.777 -0.6976 -0.1142  0.2821
  109MOL   C12521941   2.773   1.100   4.692 -0.6069  0.1613 -0.1295
  109MOL   N12621942   2.882   1.022   4.748  0.2898 -0.5868 -0.7703
  109MOL   H12721943   2.862   1.290   4.765  0.7428 -2.2707  0.6419
  109MOL   H12821944   2.701   1.305   4.735  0.0205 -1.1842 -2.8992
  109MOL   H12921945   2.671   1.063   4.691 -0.8483  0.7859  0.9591
  109MOL   H13021946   2.794   1.135   4.590 -3.1018  1.4317 -0.2312
  109MOL   H13121947   2.978   1.051   4.732  0.1584 -0.0369 -0.5755
  109MOL   C13221948   2.879   0.895   4.781  0.7129  0.1302  0.2960
  109MOL   O13321949   2.778   0.831   4.759  0.2066  0.4200 -0.0650
  109MOL   C13421950   3.010   0.832   4.827  0.4837 -0.2686 -0.8948
  109MOL   C13521951   3.084   0.901   4.943 -0.8873  0.4333 -0.7665
  109MOL   N13621952   3.177   1.010   4.894  0.1355 -0.1804  0.3592
  109MOL   H13721953   3.077   0.825   4.741  1.5501  1.0724 -0.1776
  109MOL   H13821954   2.985   0.729   4.853  1.3917 -0.3059 -0.1681
  109MOL   H13921955   3.014   0.934   5.019  2.3887 -1.1859  3.1740
  109MOL   H14021956   3.149   0.831   4.994 -1.7818  0.4404  0.3883
  109MOL   H14121957   3.265   0.979   4.856  0.1929 -0.9651  1.1061
  109MOL   C14221958   3.179   1.134   4.935 -0.2657  0.1488 -0.5877
  109MOL   O14321959   3.095   1.180   5.014 -0.0637  0.3281  0.1121
  109MOL   C14421960   3.263   1.233   4.857  0.4598  0.0552  0.2937
  109MOL   C14521961   3.213   1.254   4.718 -0.6693 -0.3917  0.1280
  109MOL   N14621962   3.281   1.162   4.635  0.0881  0.0902 -0.3343
  109MOL   H14721963   3.368   1.204   4.861  0.1479 -0.7901  3.9678
  109MOL   H14821964   3.270   1.331   4.905  0.6208 -0.9574  2.3777
  109MOL   H14921965   3.104   1.249   4.711 -0.6685  1.3167 -1.1510
  109MOL   H15021966   3.245   1.348   4.675 -1.0771 -0.5447 -0.5177
  109MOL   H15121967   3.381   1.176   4.626  0.3420 -2.1564 -1.1650
  109MOL   C15221968   3.218   1.067   4.565 -0.2553 -0.3120  0.0158
  109MOL   O15321969   3.097   1.051   4.569 -0.1205 -0.2048  0.3967
  109MOL   C15421970   3.310   0.975   4.480 -0.7149  0.3334 -0.2196
  109MOL   C15521971   3.225   0.883   4.379 -0.3697  0.3789 -0.3228
  109MOL   N15621972   3.164   0.771   4.456  0.2068 -0.3607 -0.3121
  109MOL   H15721973   3.373   0.912   4.542  0.7429  1.6387 -0.3540
  109MOL   H15821974   3.370   1.038   4.414 -1.8069  0.1097 -1.4537
  109MOL   H15921975   3.161   0.943   4.314 -0.5239  1.3342  0.6951
  109MOL   H16021976   3.306   0.837   4.323  0.0881  0.2806  0.4100
  109MOL   H16121977   3.190   0.764   4.554  0.6070 -0.5056 -0.4303
  109MOL   C16221978   3.070   0.688   4.412 -0.4682 -0.4717  0.5048
  109MOL   O16321979   3.042   0.692   4.298 -0.2550 -0.1384  0.3314
  109MOL   C16421980   3.009   0.592   4.509  0.4943 -0.7549 -0.0871
  109MOL   C16521981   2.925   0.473   4.445  0.0044 -0.5661 -0.1471
  109MOL   N16621982   2.908   0.363   4.535 -0.3340 -0.2648  0.0419
  109MOL   H16721983   2.948   0.654   4.575  0.1117 -0.9857 -0.2208
  109MOL   H16821984   3.096   0.560   4.567  0.7668 -3.0296 -1.6705
  109MOL   H16921985   2.827   0.508   4.412  0.0729  0.1330  0.3879
  109MOL   H17021986   2.975   0.434   4.356  2.0042 -1.7663  1.4623
  109MOL   H17121987   2.833   0.378   4.602 -0.6646 -0.3309 -0.3111
  109MOL   C17221988   2.995   0.261   4.554 -0.0412  0.2110  0.3552
  109MOL   O17321989   3.111   0.254   4.509 -0.0753 -0.5435  0.4095
  109MOL   C17421990   2.941   0.138   4.632  0.1838 -0.3937 -0.3821
  109MOL   C17521991   3.017   0.007   4.591  0.2144 -0.7675  0.1174
  109MOL   N17621992   3.010   7.762   4.442  0.1621  0.3715  0.7153
  109MOL   H17721993   2.837   0.131   4.600  0.2009  2.8233 -1.3227
  109MOL   H17821994   2.951   0.158   4.739  1.0335 -1.1276 -0.3210
  109MOL   H17921995   3.118   0.007   4.631  0.1586  2.3991  0.3726
  109MOL   H18021996   2.956   7.715   4.646  0.2985 -0.7947  0.1742
  109MOL   H18121997   3.070   0.030   4.376  0.1856 -1.6333 -0.7546
  109MOL   C18221998   2.926   7.668   4.387 -0.3567 -0.4210  0.4619
  109MOL   O18321999   2.838   7.619   4.458  0.2895 -0.1354 -0.0887
  109MOL   C18422000   2.924   7.651   4.229  0.1726  0.0620 -0.2548
  109MOL   C18522001   2.895   7.506   4.178  0.0152 -0.7989  0.0292
  109MOL   N18622002   3.005   7.448   4.098  0.4874  0.7625  0.3016
  109MOL   H18722003   3.025   7.676   4.195  0.3781  1.2995  1.2170
  109MOL   H18822004   2.857   7.725   4.183 -0.4517 -0.3609 -0.0250
  109MOL   H18922005   2.870   7.441   4.262 -0.7014 -2.0267 -1.1068
  109MOL   H19022006   2.810   7.509   4.110 -1.1419 -0.0797  1.4786
  109MOL   H19122007   3.024   7.474   4.002 -0.7649 -1.9197 -0.7142
  109MOL   C19222008   3.083   7.350   4.134  0.6403 -0.6722  0.0331
  109MOL   O19322009   3.075   7.292   4.240 -0.2823  0.1159  0.6295
  109MOL   C19422010   3.178   7.321   4.026 -0.3517 -0.0605  0.8600
  109MOL   C19522011   3.132   7.216   3.928  0.8040 -0.1652 -0.3613
  109MOL   N19622012   3.031   7.253   3.829 -0.5607 -1.3797 -0.3678
  109MOL   H19722013   3.201   7.416   3.978 -1.0682 -0.2820  0.0669
  109MOL   H19822014   3.269   7.282   4.071 -1.5265 -0.0570  3.3617
  109MOL   H19922015   3.207   7.166   3.867  0.0246 -1.1548 -0.5335
  109MOL   H20022016   3.091   7.132   3.984  0.1986 -0.2157 -0.8671
  109MOL   H20122017   3.072   7.287   3.743 -3.6271  1.8506 -0.6631
  109MOL   H20222018   2.995   7.167   3.789  0.1616 -0.6708 -2.6584
  110MOL     C122019   4.585   4.344   6.285 -0.0675 -0.0050  0.1250
  110MOL     O222020   4.562   4.279   6.384  0.1055 -0.1627 -0.2765
  110MOL     C322021   4.507   4.336   6.150  0.0179  0.1041 -0.5292
  110MOL     C422022   4.356   4.314   6.164  0.2816 -0.2031 -0.4348
  110MOL     N522023   4.284   4.427   6.215  0.2846 -0.1968 -0.0691
  110MOL     H622024   4.561   4.252   6.108 -2.6719 -3.0195  2.0138
  110MOL     H722025   4.529   4.428   6.096  0.2161 -0.3634 -1.2485
  110MOL     H822026   4.336   4.233   6.235 -1.2142  0.0841 -0.4974
  110MOL     H922027   4.310   4.280   6.071  2.1553  0.3905 -1.5941
  110MOL    H1022028   4.339   4.501   6.255 -0.8384  1.3675 -1.3669
  110MOL    H1122029   4.664   4.418   6.286 -0.6570  0.6233  1.0629
  110MOL    C1222030   4.153   4.443   6.218  0.5163  0.9877 -0.0749
  110MOL    O1322031   4.079   4.351   6.182  0.2781 -0.7524 -0.1544
  110MOL    C1422032   4.091   4.566   6.285  0.7120 -0.8177 -0.2347
  110MOL    C1522033   3.947   4.615   6.244 -0.7344  0.6384  0.6030
  110MOL    N1622034   3.943   4.694   6.122  0.1399 -0.5408 -0.3215
  110MOL    H1722035   4.161   4.650   6.280 -1.2082  0.8530  0.2272
  110MOL    H1822036   4.076   4.546   6.391  1.1885  1.8214  0.3678
  110MOL    H1922037   3.873   4.535   6.235  1.4518 -1.2435 -1.2167
  110MOL    H2022038   3.912   4.676   6.327  1.0163  0.8029  1.2382
  110MOL    H2122039   4.008   4.769   6.104 -1.3394  1.2473  1.6217
  110MOL    C2222040   3.839   4.702   6.040 -0.5640  0.3282  0.4975
  110MOL    O2322041   3.740   4.632   6.060 -0.3443  0.0245  0.1419
  110MOL    C2422042   3.848   4.788   5.915 -0.3987  0.7864  0.6036
  110MOL    C2522043   3.792   4.928   5.930  0.0856  0.7784 -0.2257
  110MOL    N2622044   3.780   4.991   5.798  0.3161 -0.3945  0.1764
  110MOL    H2722045   3.799   4.735   5.834 -1.1716 -0.3258  1.7845
  110MOL    H2822046   3.949   4.788   5.875 -1.3261  0.8543 -1.7795
  110MOL    H2922047   3.694   4.913   5.976 -0.8134  1.5362 -1.8347
  110MOL    H3022048   3.851   4.985   6.002  1.0828 -0.8298  0.2547
  110MOL    H3122049   3.711   4.950   5.737  2.3214 -2.4434 -0.7606
  110MOL    C3222050   3.857   5.080   5.745  0.3491 -0.3006 -0.5750
  110MOL    O3322051   3.825   5.124   5.636  0.7142 -0.2172  0.0276
  110MOL    C3422052   3.993   5.094   5.812  0.4152 -0.3650 -0.0264
  110MOL    C3522053   4.075   5.207   5.739  0.2342 -0.3794 -0.1425
  110MOL    N3622054   4.205   5.223   5.814  0.1042  0.7204 -0.5464
  110MOL    H3722055   4.051   5.002   5.807  0.5975 -0.1631 -2.4775
  110MOL    H3822056   3.982   5.119   5.917  0.2511 -2.5615  0.5009
  110MOL    H3922057   4.082   5.186   5.633 -1.5522  0.3843 -0.4192
  110MOL    H4022058   4.020   5.301   5.747  1.3696  0.5025 -2.2669
  110MOL    H4122059   4.211   5.287   5.893  1.1154  0.5695 -0.4835
  110MOL    C4222060   4.318   5.169   5.782  0.0537 -0.0075 -0.5916
  110MOL    O4322061   4.331   5.085   5.691 -0.3854 -0.2216 -0.2520
  110MOL    C4422062   4.445   5.213   5.859  0.7675  0.6395 -0.1224
  110MOL    C4522063   4.571   5.127   5.842 -0.1935 -0.5195  0.2277
  110MOL    N4622064   4.670   5.158   5.945  0.0179 -0.0493 -0.5402
  110MOL    H4722065   4.447   5.318   5.831  0.2773  0.6428 -0.1535
  110MOL    H4822066   4.412   5.212   5.963  0.5999  0.7026 -0.1740
  110MOL    H4922067   4.540   5.022   5.844 -0.9078 -0.3226 -0.3241
  110MOL    H5022068   4.617   5.143   5.745  0.3868  0.3848  0.6499
  110MOL    H5122069   4.748   5.211   5.908  0.2561  0.0043  0.0397
  110MOL    C5222070   4.675   5.123   6.075  0.6491  0.4421  0.3294
  110MOL    O5322071   4.582   5.058   6.121 -0.5487 -0.6883  0.3304
  110MOL    C5422072   4.795   5.153   6.159 -0.3570 -0.6789  0.5030
  110MOL    C5522073   4.769   5.150   6.312 -0.0435  0.1999 -0.3487
  110MOL    N5622074   4.687   5.261   6.372  0.6577  0.8806  0.3796
  110MOL    H5722075   4.856   5.064   6.140 -0.1777 -0.2268 -1.1411
  110MOL    H5822076   4.856   5.238   6.127 -0.7854 -0.1579  1.0502
  110MOL    H5922077   4.863   5.158   6.366  1.0229 -0.7812 -2.0493
  110MOL    H6022078   4.705   5.068   6.344 -1.5904  1.8995  1.1084
  110MOL    H6122079   4.591   5.267   6.342 -0.5172 -1.2010  3.4708
  110MOL    C6222080   4.727   5.348   6.465 -0.2429  0.1539  0.5535
  110MOL    O6322081   4.828   5.332   6.541  0.0933  0.1243  0.2624
  110MOL    C6422082   4.643   5.470   6.487 -0.0218 -0.0366  0.1129
  110MOL    C6522083   4.728   5.593   6.531  0.2370 -0.5846 -0.4134
  110MOL    N6622084   4.652   5.715   6.525 -0.4735 -0.3270 -0.2841
  110MOL    H6722085   4.592   5.487   6.393 -0.1719  1.3051  0.4388
  110MOL    H6822086   4.568   5.457   6.565 -0.4590  1.6931 -0.0065
  110MOL    H6922087   4.764   5.585   6.633 -1.5028  0.8281  0.3409
  110MOL    H7022088   4.820   5.609   6.476  1.0872  0.1307  1.1897
  110MOL    H7122089   4.560   5.715   6.568  0.3726  3.0828  1.7434
  110MOL    C7222090   4.695   5.830   6.482 -0.0513  0.9485  0.4102
  110MOL    O7322091   4.809   5.851   6.446  0.2241  0.2564  1.0111
  110MOL    C7422092   4.591   5.940   6.446 -0.9320  0.0223 -0.1993
  110MOL    C7522093   4.622   6.004   6.311 -0.3871 -0.4328 -0.4469
  110MOL    N7622094   4.503   6.055   6.238 -0.1573 -0.1243  0.3184
  110MOL    H7722095   4.491   5.897   6.451 -0.7723 -0.6028 -2.0973
  110MOL    H7822096   4.589   6.014   6.527 -0.9766  1.8773 -1.8711
  110MOL    H7922097   4.691   6.087   6.327 -0.2085 -0.3668 -1.4914
  110MOL    H8022098   4.674   5.932   6.248 -0.1700 -1.1308  0.5249
  110MOL    H8122099   4.432   6.103   6.291 -0.3055  0.4255 -0.3666
  110MOL    C8222100   4.487   6.018   6.104  0.0367  0.4448  0.4682
  110MOL    O8322101   4.566   5.943   6.043  0.5949 -0.5238 -0.0367
  110MOL    C8422102   4.362   6.075   6.035 -0.1304 -0.0677 -0.9019
  110MOL    C8522103   4.386   6.163   5.910  0.1061 -0.2929 -0.1561
  110MOL    N8622104   4.468   6.286   5.923 -0.1456  0.2907  0.8454
  110MOL    H8722105   4.310   5.987   5.997 -0.1970  0.2618 -1.5829
  110MOL    H8822106   4.303   6.130   6.108  3.7221  1.3330  1.3170
  110MOL    H8922107   4.426   6.104   5.827  2.5785  0.2700  0.6004
  110MOL    H9022108   4.291   6.173   5.858  0.2033 -1.8636 -0.6676
  110MOL    H9122109   4.564   6.291   5.892 -0.3999  2.0049  0.2624
  110MOL    C9222110   4.433   6.396   5.993  0.2303 -0.0745 -0.9240
  110MOL    O9322111   4.316   6.416   6.020 -0.2084 -0.5198  0.0746
  110MOL    C9422112   4.538   6.498   6.029  0.4619 -1.0295  0.1568
  110MOL    C9522113   4.512   6.641   5.998 -0.6092 -0.0250 -0.3593
  110MOL    N9622114   4.403   6.701   6.074 -0.0486 -0.3720  0.2706
  110MOL    H9722115   4.553   6.492   6.137 -1.3881  0.6879  0.5562
  110MOL    H9822116   4.635   6.466   5.991  1.5928  1.1367  1.1229
  110MOL    H9922117   4.600   6.695   6.033 -0.7517  0.4699 -0.7484
  110MOL   H10022118   4.513   6.666   5.892 -0.5755 -1.4394 -0.6950
  110MOL   H10122119   4.376   6.659   6.161 -0.0600 -0.1335  0.3817
  110MOL   C10222120   4.344   6.811   6.026 -0.0895 -0.7539  0.5272
  110MOL   O10322121   4.375   6.860   5.916 -0.3780  0.3836  0.2297
  110MOL   C10422122   4.222   6.868   6.101 -0.2933  0.6872  0.0115
  110MOL   C10522123   4.186   7.014   6.063 -0.4000 -0.4358 -0.7973
  110MOL   N10622124   4.104   7.017   5.943 -0.4298 -0.2765  0.0065
  110MOL   H10722125   4.250   6.866   6.207 -1.5661  2.6244  0.4207
  110MOL   H10822126   4.131   6.808   6.096  0.1918 -0.1188  0.8362
  110MOL   H10922127   4.131   7.067   6.140  0.1652 -2.8213  1.2932
  110MOL   H11022128   4.278   7.071   6.052 -0.4211 -0.0856  0.7389
  110MOL   H11122129   4.124   6.955   5.865  1.2879  0.1018  0.1191
  110MOL   C11222130   3.999   7.096   5.922 -0.0547 -0.0316  0.9364
  110MOL   O11322131   3.952   7.173   6.006  0.7285  0.2395 -0.0653
  110MOL   C11422132   3.949   7.085   5.780  0.3683  0.0568 -0.7768
  110MOL   C11522133   3.841   7.192   5.739  0.5242  0.2048  0.2175
  110MOL   N11622134   3.907   7.321   5.720 -0.2994  0.7565  0.1776
  110MOL   H11722135   3.907   6.989   5.751  0.5728 -0.5845  1.0380
  110MOL   H11822136   4.041   7.101   5.724  0.9203 -2.5942 -0.6932
  110MOL   H11922137   3.779   7.163   5.655 -1.0694  1.6256  0.8825
  110MOL   H12022138   3.769   7.209   5.819 -1.3492  0.2671 -1.4554
  110MOL   H12122139   4.007   7.328   5.724 -0.2125  1.2829 -2.2036
  110MOL   C12222140   3.833   7.434   5.694  0.7617  0.8378  0.1135
  110MOL   O12322141   3.709   7.434   5.690  0.3182 -0.3625 -0.4133
  110MOL   C12422142   3.908   7.565   5.650  0.3083  0.0431  0.2996
  110MOL   C12522143   3.850   7.608   5.512 -0.5232 -0.0871  0.0119
  110MOL   N12622144   3.886   7.750   5.472  0.3709 -0.3260  0.6399
  110MOL   H12722145   4.015   7.551   5.637  0.0935 -2.1793  0.7179
  110MOL   H12822146   3.889   7.635   5.732  0.2370  2.2468 -1.5550
  110MOL   H12922147   3.869   7.543   5.427 -0.4798 -0.7624  0.5371
  110MOL   H13022148   3.742   7.600   5.520 -0.5728  0.9690  0.4570
  110MOL   H13122149   3.814   0.040   5.476  1.3822  0.7152  0.9113
  110MOL   C13222150   4.008   0.008   5.415  1.4965 -0.2748  0.3595
  110MOL   O13322151   4.096   7.710   5.395 -0.2528 -0.2083  0.5899
  110MOL   C13422152   4.014   0.158   5.370  0.1309 -0.0227 -0.3106
  110MOL   C13522153   4.161   0.209   5.338  0.2894 -0.5990 -0.6594
  110MOL   N13622154   4.207   0.167   5.210 -0.2278  0.1243  0.2437
  110MOL   H13722155   3.968   0.222   5.445 -0.3163  0.2247 -0.7928
  110MOL   H13822156   3.952   0.168   5.281 -0.7696  0.1178  0.3280
  110MOL   H13922157   4.162   0.316   5.362 -2.3342 -0.9096  1.0618
  110MOL   H14022158   4.225   0.166   5.415  1.3145  1.4851 -0.2895
  110MOL   H14122159   4.184   0.073   5.181  1.8403 -0.0400 -0.9979
  110MOL   C14222160   4.250   0.250   5.113  0.6576 -0.2541 -0.1525
  110MOL   O14322161   4.227   0.371   5.111  0.1264 -0.3700  0.4782
  110MOL   C14422162   4.324   0.184   4.997  0.1965 -0.2601  0.0150
  110MOL   C14522163   4.445   0.253   4.937 -0.4912  0.1982 -0.0953
  110MOL   N14622164   4.558   0.232   5.029 -0.0015 -0.7217 -0.1068
  110MOL   H14722165   4.255   0.176   4.913 -0.5113 -0.3237  0.6007
  110MOL   H14822166   4.355   0.083   5.023  1.3837  0.2516  0.6421
  110MOL   H14922167   4.470   0.220   4.836  0.2298 -0.7729  0.4044
  110MOL   H15022168   4.426   0.359   4.916  1.6028  1.0117  1.8928
  110MOL   H15122169   4.572   0.299   5.103 -1.5067 -0.9587  0.4141
  110MOL   C15222170   4.634   0.127   5.020 -0.1715 -0.4599 -0.0541
  110MOL   O15322171   4.633   0.044   4.928  0.2151  0.1292  0.2967
  110MOL   C15422172   4.720   0.104   5.140  0.3068 -0.0028 -0.6677
  110MOL   C15522173   4.678   7.765   5.229  0.0685 -0.0859 -0.3033
  110MOL   N15622174   4.593   0.020   5.343 -0.2241  0.2234  0.0060
  110MOL   H15722175   4.748   0.193   5.196 -0.2906 -0.3694  0.2217
  110MOL   H15822176   4.820   0.069   5.111 -0.0842 -1.1217 -0.6784
  110MOL   H15922177   4.638   7.687   5.164  0.8000 -2.1816  1.6782
  110MOL   H16022178   4.768   7.723   5.273  0.4296 -0.3713 -1.3156
  110MOL   H16122179   4.616   0.100   5.401 -1.6722  0.1840  0.6477
  110MOL   C16222180   4.509   7.712   5.393 -0.5705  0.8667  0.2543
  110MOL   O16322181   4.486   7.607   5.338 -0.0203 -0.0074  0.7221
  110MOL   C16422182   4.444   7.738   5.528  0.3970  0.6991 -1.1743
  110MOL   C16522183   4.340   7.628   5.574 -0.7588 -0.9120 -0.5374
  110MOL   N16622184   4.403   7.507   5.615  0.3274  0.2194 -0.3872
  110MOL   H16722185   4.400   0.056   5.511  2.8471  2.1837  0.7853
  110MOL   H16822186   4.528   7.745   5.597  1.4379 -2.3351 -2.0491
  110MOL   H16922187   4.287   7.673   5.658  0.0490 -0.6534 -0.1598
  110MOL   H17022188   4.277   7.613   5.486  1.6874 -0.1147 -2.4629
  110MOL   H17122189   4.504   7.501   5.616  0.1904 -3.2055  1.7646
  110MOL   C17222190   4.326   7.405   5.661  1.0114 -0.2498 -0.0151
  110MOL   O17322191   4.204   7.407   5.675  0.1877  0.5917  0.3057
  110MOL   C17422192   4.400   7.282   5.698  0.2261  1.0159  0.4273
  110MOL   C17522193   4.321   7.147   5.690 -0.0131  0.0738 -0.2731
  110MOL   N17622194   4.408   7.029   5.679  0.8213 -0.9396  0.0829
  110MOL   H17722195   4.438   7.298   5.799  0.5154 -1.7790  0.7778
  110MOL   H17822196   4.484   7.279   5.628 -0.7346  1.2450 -0.7596
  110MOL   H17922197   4.262   7.150   5.782 -0.3214  0.3561 -0.4792
  110MOL   H18022198   4.248   7.145   5.609 -0.4268  1.4529  0.0505
  110MOL   H18122199   4.405   6.975   5.764 -1.3364 -2.0717 -0.6629
  110MOL   C18222200   4.490   6.979   5.584 -0.4033 -0.1661  0.1807
  110MOL   O18322201   4.511   7.036   5.477 -0.6006  0.1434 -0.0385
  110MOL   C18422202   4.548   6.842   5.610  0.1048  0.0484  0.3814
  110MOL   C18522203   4.669   6.800   5.517  0.3756 -0.5968 -0.7147
  110MOL   N18622204   4.733   6.678   5.568 -0.0666 -0.1561 -0.0469
  110MOL   H18722205   4.480   6.757   5.616 -0.0488  0.1205 -0.3386
  110MOL   H18822206   4.597   6.855   5.706  1.0499  2.2619 -0.3684
  110MOL   H18922207   4.631   6.765   5.421  0.3169 -0.7850 -0.6237
  110MOL   H19022208   4.729   6.888   5.497 -2.0691  1.3198  0.0995
  110MOL   H19122209   4.736   6.597   5.508 -0.1460  0.9713 -1.5907
  110MOL   C19222210   4.818   6.687   5.668 -0.0574 -0.4460 -0.4366
  110MOL   O19322211   4.817   6.778   5.751  0.2998  0.6554 -0.0964
  110MOL   C19422212   4.924   6.579   5.665  0.1145  0.2573 -0.5725
  110MOL   C19522213   5.015   6.559   5.785 -0.1519 -0.1124 -0.3272
  110MOL   N19622214   4.934   6.507   5.894 -0.6306  0.0857 -0.2160
  110MOL   H19722215   4.871   6.485   5.648  0.0992  0.0217  0.7169
  110MOL   H19822216   4.995   6.603   5.585  0.0320  1.1503 -0.3717
  110MOL   H19922217   5.090   6.487   5.753 -0.7651 -1.2545  0.7402
  110MOL   H20022218   5.061   6.649   5.827 -0.5961 -0.2108  0.3904
  110MOL   H20122219   4.897   6.416   5.870  1.1988 -0.3794 -1.4043
  110MOL   H20222220   4.851   6.564   5.892 -0.7204 -0.0130  0.6844
  111MOL     C122221   5.400   6.040   2.959 -0.3418  0.8809  0.4705
  111MOL     O222222   5.338   6.120   2.894  0.0246 -0.2407  0.0472
  111MOL     C322223   5.514   6.078   3.056 -0.3731 -0.0973 -0.5151
  111MOL     C422224   5.478   6.153   3.180 -0.1651 -0.5570 -0.2963
  111MOL     N522225   5.415   6.081   3.287  0.7335 -0.4020 -0.1995
  111MOL     H622226   5.588   6.130   2.994 -1.3052  2.7847  0.7225
  111MOL     H722227   5.562   5.982   3.078 -0.7976 -0.1013  0.3684
  111MOL     H822228   5.433   6.250   3.159 -0.6227 -0.2140  2.1456
  111MOL     H922229   5.571   6.195   3.217 -0.9223  1.2231 -0.3434
  111MOL    H1022230   5.471   6.051   3.366  0.4056 -0.7209 -0.0848
  111MOL    H1122231   5.382   5.933   2.947  0.3439  0.8605 -0.4650
  111MOL    C1222232   5.285   6.084   3.311  0.7869 -0.1453  0.5136
  111MOL    O1322233   5.201   6.136   3.236  0.3581  0.3714  0.1873
  111MOL    C1422234   5.243   6.009   3.438 -0.0144  0.6440 -0.5931
  111MOL    C1522235   5.095   6.037   3.485  0.6628  0.2109 -0.3826
  111MOL    N1622236   5.001   5.939   3.431 -0.0051 -0.1267 -0.0175
  111MOL    H1722237   5.291   6.036   3.532 -2.6108  0.2000  0.9176
  111MOL    H1822238   5.254   5.901   3.427 -4.0073  0.0159  0.4836
  111MOL    H1922239   5.086   6.063   3.590 -0.1703 -0.0152 -0.4005
  111MOL    H2022240   5.060   6.134   3.449  0.0506 -0.0612 -0.5174
  111MOL    H2122241   4.947   5.975   3.354  0.0072  0.5780  0.2891
  111MOL    C2222242   4.986   5.806   3.466 -1.0519 -0.3727 -0.5581
  111MOL    O2322243   5.046   5.762   3.567  0.1437 -0.2945 -0.2062
  111MOL    C2422244   4.910   5.703   3.392 -0.7317 -0.2722 -0.2573
  111MOL    C2522245   4.797   5.648   3.480 -0.1697 -0.1658  0.3030
  111MOL    N2622246   4.705   5.558   3.405  0.1457  0.6193  0.0508
  111MOL    H2722247   4.975   5.626   3.351  1.4371 -0.3263  3.1831
  111MOL    H2822248   4.872   5.763   3.308  0.1148  0.1498 -0.3430
  111MOL    H2922249   4.845   5.604   3.568  2.1601 -0.2891 -0.9923
  111MOL    H3022250   4.727   5.721   3.520 -0.2448 -0.4826  0.7607
  111MOL    H3122251   4.702   5.569   3.305  1.2978 -3.5775 -0.5441
  111MOL    C3222252   4.651   5.447   3.448 -0.7419  0.2998 -0.2233
  111MOL    O3322253   4.657   5.411   3.570 -0.7643  0.1973  0.4896
  111MOL    C3422254   4.586   5.358   3.336 -0.3098  0.0827  0.0537
  111MOL    C3522255   4.533   5.218   3.388  1.0970  0.0700  0.4196
  111MOL    N3622256   4.455   5.151   3.277 -0.1946 -0.0960 -0.3435
  111MOL    H3722257   4.651   5.357   3.249 -1.2885 -0.1722 -0.6796
  111MOL    H3822258   4.507   5.425   3.300  0.3382  0.9234  0.1648
  111MOL    H3922259   4.607   5.140   3.409  0.4165 -0.9080 -0.7915
  111MOL    H4022260   4.467   5.233   3.474 -2.7663 -0.1667 -2.3747
  111MOL    H4122261   4.504   5.073   3.236  2.1666  1.0430  0.2630
  111MOL    C4222262   4.341   5.199   3.233  0.0514  0.7061 -0.0103
  111MOL    O4322263   4.268   5.288   3.283 -0.0943  0.4447 -0.4081
  111MOL    C4422264   4.280   5.113   3.121 -0.2770  0.3393 -0.2541
  111MOL    C4522265   4.136   5.062   3.145 -0.4021  0.0531 -0.2796
  111MOL    N4622266   4.111   4.939   3.074 -0.3542 -0.3558  0.5365
  111MOL    H4722267   4.266   5.167   3.027  0.2184 -1.7836 -1.5910
  111MOL    H4822268   4.354   5.036   3.099  0.3758  0.7174  0.5739
  111MOL    H4922269   4.112   5.056   3.251  0.2311 -2.2949 -0.2424
  111MOL    H5022270   4.078   5.137   3.091  1.9021  2.4095  0.4138
  111MOL    H5122271   4.156   4.935   2.984 -0.0145  1.6826  0.5877
  111MOL    C5222272   4.018   4.853   3.109  0.2650  0.3818 -0.1274
  111MOL    O5322273   3.979   4.854   3.230  0.4406  0.0204  0.3245
  111MOL    C5422274   3.965   4.766   3.000  0.0881  0.3286 -0.4983
  111MOL    C5522275   3.817   4.790   2.980 -0.1008 -0.1146  0.0589
  111MOL    N5622276   3.726   4.777   3.101  0.0004 -0.1786 -0.4910
  111MOL    H5722277   4.009   4.784   2.902  0.4482  0.9489 -0.2236
  111MOL    H5822278   3.992   4.661   3.014 -0.1184 -0.0029 -2.4998
  111MOL    H5922279   3.783   4.728   2.897  0.5242 -0.2292 -0.1142
  111MOL    H6022280   3.803   4.890   2.938  1.4306 -0.1286 -0.5060
  111MOL    H6122281   3.679   4.861   3.131 -0.5046  0.5462 -3.2401
  111MOL    C6222282   3.703   4.659   3.164  0.8380  1.2066  0.1743
  111MOL    O6322283   3.772   4.557   3.136 -0.8661 -0.2492  0.0203
  111MOL    C6422284   3.589   4.649   3.270 -0.7931 -0.2104  0.2492
  111MOL    C6522285   3.449   4.714   3.232 -0.0386 -0.1970  0.0379
  111MOL    N6622286   3.443   4.854   3.207  0.0260 -0.2612 -0.6317
  111MOL    H6722287   3.572   4.548   3.308 -2.4932 -0.0044  0.0654
  111MOL    H6822288   3.623   4.705   3.357  0.4893 -2.0316  0.9489
  111MOL    H6922289   3.405   4.662   3.148  0.3848  3.1609 -2.3610
  111MOL    H7022290   3.380   4.697   3.315 -1.4842  2.9169 -0.4429
  111MOL    H7122291   3.426   4.884   3.112  0.9167 -1.8304 -1.3001
  111MOL    C7222292   3.437   4.943   3.307  0.0666  0.1122  0.3645
  111MOL    O7322293   3.441   4.911   3.428  0.2678 -0.3413  0.3310
  111MOL    C7422294   3.426   5.085   3.253 -0.7910  0.8852 -0.2658
  111MOL    C7522295   3.473   5.202   3.348  0.2196 -0.1299 -0.4197
  111MOL    N7622296   3.606   5.195   3.399  0.4363 -0.3761  0.0018
  111MOL    H7722297   3.483   5.110   3.164 -0.4934 -0.0394 -0.3401
  111MOL    H7822298   3.321   5.093   3.227 -0.6178  1.3014 -0.8391
  111MOL    H7922299   3.452   5.297   3.299  0.2302 -0.6518 -1.4542
  111MOL    H8022300   3.409   5.202   3.436 -0.0627 -1.3064 -0.6251
  111MOL    H8122301   3.614   5.161   3.494  4.0879 -0.0656 -0.1276
  111MOL    C8222302   3.717   5.245   3.345  0.0487  0.1493 -0.0433
  111MOL    O8322303   3.713   5.295   3.231  0.5201  0.7637  0.5250
  111MOL    C8422304   3.845   5.256   3.420  0.0376 -0.0785  0.1613
  111MOL    C8522305   3.915   5.385   3.396  0.5382 -0.5734  0.2405
  111MOL    N8622306   4.048   5.378   3.443  0.4993 -0.7587 -0.1095
  111MOL    H8722307   3.819   5.258   3.526  0.1003  1.2664  0.1628
  111MOL    H8822308   3.893   5.160   3.400 -0.8409 -0.6840  0.9422
  111MOL    H8922309   3.916   5.412   3.291  1.3241 -0.2924  0.3199
  111MOL    H9022310   3.854   5.465   3.438 -1.4054 -0.3550 -2.8314
  111MOL    H9122311   4.115   5.355   3.372 -0.6994 -2.2460 -0.8022
  111MOL    C9222312   4.091   5.392   3.574 -0.0202  0.7140  0.6915
  111MOL    O9322313   4.018   5.443   3.665 -0.4496  0.0416  0.4018
  111MOL    C9422314   4.238   5.376   3.600  0.7169 -0.0097  0.4193
  111MOL    C9522315   4.275   5.407   3.749  0.2984 -0.5507  0.3584
  111MOL    N9622316   4.414   5.447   3.758 -0.0179  0.3118 -0.2230
  111MOL    H9722317   4.272   5.273   3.587 -1.2930 -1.1603  3.6070
  111MOL    H9822318   4.294   5.435   3.527 -0.8794  1.1045  0.0690
  111MOL    H9922319   4.215   5.488   3.791  0.4518  0.3314 -1.0891
  111MOL   H10022320   4.246   5.324   3.815 -0.6180 -0.1795  0.4380
  111MOL   H10122321   4.485   5.379   3.734 -0.1433  0.5609 -1.3285
  111MOL   C10222322   4.463   5.564   3.813  0.8132  0.1412  0.6182
  111MOL   O10322323   4.388   5.661   3.832  0.0932  0.1452 -0.1657
  111MOL   C10422324   4.608   5.574   3.843  0.1681  0.1782  0.6213
  111MOL   C10522325   4.653   5.671   3.952 -0.0774 -0.0487 -0.1208
  111MOL   N10622326   4.707   5.787   3.888 -0.3989 -0.2508  0.1626
  111MOL   H10722327   4.661   5.596   3.750 -1.8044  2.5253  0.0151
  111MOL   H10822328   4.644   5.475   3.872 -0.6773 -0.1960  0.4008
  111MOL   H10922329   4.574   5.700   4.021  2.6785  4.6941  1.2656
  111MOL   H11022330   4.734   5.632   4.014 -0.4134 -1.1189 -0.3473
  111MOL   H11122331   4.644   5.839   3.828  2.2703  0.3529 -2.2152
  111MOL   C11222332   4.837   5.823   3.906  0.1511 -1.0439  0.3355
  111MOL   O11322333   4.920   5.767   3.972 -0.0173  0.2186  0.1476
  111MOL   C11422334   4.882   5.949   3.830  1.1434  0.0364  0.1481
  111MOL   C11522335   4.892   6.063   3.925  0.7032 -0.0834 -0.1268
  111MOL   N11622336   4.770   6.142   3.949 -0.0278  0.3268  0.1239
  111MOL   H11722337   4.829   5.980   3.740  2.0677  1.1179 -0.0314
  111MOL   H11822338   4.980   5.930   3.787  0.0114 -1.2098 -1.9284
  111MOL   H11922339   4.951   6.036   4.012  0.8962  1.7644  0.3474
  111MOL   H12022340   4.955   6.139   3.877  0.2322  1.4903  1.7094
  111MOL   H12122341   4.689   6.108   3.899  0.8689 -1.1557 -0.3591
  111MOL   C12222342   4.752   6.245   4.035 -0.3381  0.4328  0.3700
  111MOL   O12322343   4.846   6.287   4.102  0.2501  0.3210  0.3405
  111MOL   C12422344   4.612   6.299   4.055 -0.6000  0.1228 -0.0190
  111MOL   C12522345   4.506   6.189   4.078 -0.3265 -0.4713  0.0367
  111MOL   N12622346   4.411   6.174   3.970 -0.5830 -0.5676  0.2984
  111MOL   H12722347   4.573   6.355   3.970  2.0059  0.9022 -0.7537
  111MOL   H12822348   4.616   6.364   4.143 -0.4513  0.2017 -0.0849
  111MOL   H12922349   4.553   6.091   4.082  1.5051  0.4609  2.6705
  111MOL   H13022350   4.459   6.208   4.174 -0.7712  0.1795 -0.3046
  111MOL   H13122351   4.315   6.201   3.987  0.3337  3.5437 -0.4714
  111MOL   C13222352   4.424   6.107   3.856  0.5388 -0.2207  0.5902
  111MOL   O13322353   4.526   6.054   3.823  0.2012  0.3841  0.0264
  111MOL   C13422354   4.298   6.084   3.769 -0.4479  0.0782 -0.2453
  111MOL   C13522355   4.315   6.129   3.624 -0.4695 -0.0763  0.1147
  111MOL   N13622356   4.409   6.049   3.548  0.2506 -0.1505  0.8231
  111MOL   H13722357   4.207   6.124   3.814  0.5811  2.1688  0.0497
  111MOL   H13822358   4.285   5.976   3.774 -2.3092  0.2595 -1.0288
  111MOL   H13922359   4.220   6.141   3.572 -1.2521 -0.2739  1.4632
  111MOL   H14022360   4.349   6.232   3.627 -0.5397 -0.0681  0.7759
  111MOL   H14122361   4.373   5.961   3.513  1.4256 -0.3310  0.0571
  111MOL   C14222362   4.521   6.086   3.489 -0.0046 -0.7431  0.2551
  111MOL   O14322363   4.568   6.201   3.499 -0.0112  0.8565 -0.3160
  111MOL   C14422364   4.590   5.983   3.408 -0.3350  0.2851 -1.1288
  111MOL   C14522365   4.607   5.994   3.260  0.4081  0.5545  0.0146
  111MOL   N14622366   4.648   6.131   3.220 -0.4470  0.2963  0.5030
  111MOL   H14722367   4.562   5.884   3.444  1.5454  0.7483  1.7809
  111MOL   H14822368   4.688   5.971   3.454 -0.7860  0.0897 -0.2177
  111MOL   H14922369   4.674   5.914   3.230  1.7220  1.1391  1.3031
  111MOL   H15022370   4.510   5.976   3.214  1.3378 -3.9485 -0.3491
  111MOL   H15122371   4.572   6.194   3.200  0.4140  1.3373  0.4545
  111MOL   C15222372   4.775   6.183   3.231  0.4698 -0.2974  0.4398
  111MOL   O15322373   4.871   6.113   3.263 -0.4350  0.2175  0.3813
  111MOL   C15422374   4.792   6.335   3.218 -0.0019 -0.6563  0.6902
  111MOL   C15522375   4.857   6.408   3.341  0.5624  0.4556 -0.6978
  111MOL   N15622376   4.783   6.395   3.466  0.7695 -0.2115  0.4031
  111MOL   H15722377   4.697   6.386   3.201 -0.1746 -2.1681 -3.3257
  111MOL   H15822378   4.870   6.353   3.144 -0.7775  0.3218  0.0990
  111MOL   H15922379   4.954   6.360   3.354  1.4238  1.3989 -3.2548
  111MOL   H16022380   4.870   6.513   3.316  0.4923  0.8573  0.9166
  111MOL   H16122381   4.699   6.339   3.468  0.2712  0.5254  0.2486
  111MOL   C16222382   4.810   6.460   3.575 -0.1182  0.4459 -0.5701
  111MOL   O16322383   4.901   6.542   3.581 -0.4301  0.1581 -0.2832
  111MOL   C16422384   4.705   6.449   3.692  0.1447  0.4281 -0.7617
  111MOL   C16522385   4.720   6.564   3.798 -0.1177  0.1332 -0.3154
  111MOL   N16622386   4.839   6.545   3.878  0.1813 -0.1433  0.0773
  111MOL   H16722387   4.723   6.347   3.724  1.2859  0.3429 -1.6360
  111MOL   H16822388   4.607   6.452   3.645 -0.4225 -0.5006  0.3381
  111MOL   H16922389   4.706   6.651   3.734  1.8423 -0.1237 -1.1470
  111MOL   H17022390   4.631   6.569   3.860 -0.8929  1.2065 -1.4748
  111MOL   H17122391   4.906   6.479   3.841 -0.0566 -0.2860 -0.0998
  111MOL   C17222392   4.873   6.611   3.985 -0.0761 -0.6023  0.6602
  111MOL   O17322393   4.990   6.608   4.023  0.3974  0.1951 -0.4663
  111MOL   C17422394   4.767   6.694   4.062 -0.1155  0.0824  0.7013
  111MOL   C17522395   4.802   6.761   4.191 -0.4998 -0.1683 -0.3299
  111MOL   N17622396   4.913   6.853   4.187  0.1867  0.3486 -0.5366
  111MOL   H17722397   4.677   6.633   4.069 -1.3492  1.7539 -0.2657
  111MOL   H17822398   4.744   6.765   3.983  1.1341  1.0106  1.1562
  111MOL   H17922399   4.717   6.818   4.228  1.4570  0.5409  3.2303
  111MOL   H18022400   4.807   6.688   4.271 -2.0781 -0.3876 -0.4209
  111MOL   H18122401   5.006   6.820   4.209  0.4959  1.6675  0.1836
  111MOL   C18222402   4.905   6.975   4.148  0.6358  0.3209  0.1064
  111MOL   O18322403   4.802   7.035   4.122 -0.1099  0.4810  0.3301
  111MOL   C18422404   5.037   7.039   4.127  0.2105 -0.3109 -0.2597
  111MOL   C18522405   5.078   7.058   3.981  0.3306 -0.7988  0.0955
  111MOL   N18622406   5.101   6.931   3.911  0.5884  0.3617  0.7335
  111MOL   H18722407   5.114   6.983   4.179  2.4212  1.8966 -1.0475
  111MOL   H18822408   5.035   7.134   4.180 -0.1428 -0.1336 -0.5877
  111MOL   H18922409   5.003   7.113   3.925  2.1549 -0.1333 -1.7844
  111MOL   H19022410   5.166   7.122   3.972 -0.2064  0.0461  0.8163
  111MOL   H19122411   5.045   6.852   3.939  0.7306 -0.4705 -1.2511
  111MOL   C19222412   5.167   6.921   3.792  0.4648 -0.4100 -0.0748
  111MOL   O19322413   5.229   7.018   3.747 -0.2744 -0.0476  0.8393
  111MOL   C19422414   5.161   6.799   3.704 -0.2929  0.0505 -0.2470
  111MOL   C19522415   5.122   6.833   3.567  0.2611  0.6098 -0.2602
  111MOL   N19622416   5.110   6.710   3.482  0.1038 -0.4464  0.4712
  111MOL   H19722417   5.256   6.748   3.717  0.7740  2.5502  2.1168
  111MOL   H19822418   5.082   6.731   3.734  1.6028 -2.1001  0.0133
  111MOL   H19922419   5.025   6.882   3.555  0.2382  0.1297 -2.1586
  111MOL   H20022420   5.194   6.905   3.529  1.2734  0.0629  0.5800
  111MOL   H20122421   5.067   6.732   3.393 -1.2923 -1.7019  0.8194
  111MOL   H20222422   5.045   6.647   3.527 -1.5508  1.2502  0.5398
  112MOL     C122423   7.056   3.928   7.687  0.4693 -0.0868 -0.6863
  112MOL     O222424   7.078   3.968   0.023 -0.5883 -0.3781 -0.4086
  112MOL     C322425   7.151   3.937   7.571 -0.3190  0.2184 -0.2286
  112MOL     C422426   7.285   3.864   7.594 -0.1434  0.7377  0.0772
  112MOL     N522427   7.388   3.956   7.645 -0.0046 -0.1007 -0.3563
  112MOL     H622428   7.165   4.040   7.539  1.5882  0.1959  0.4862
  112MOL     H722429   7.102   3.887   7.487 -1.3567  3.3954 -1.5716
  112MOL     H822430   7.330   3.824   7.503  0.8549 -0.2765  1.0118
  112MOL     H922431   7.262   3.776   7.655 -0.9608  0.9604  0.0994
  112MOL    H1022432   7.354   4.044   7.682  2.7479  0.7211  0.3438
  112MOL    H1122433   6.964   3.870   7.673  1.0883 -0.9417 -1.2687
  112MOL    C1222434   7.517   3.927   7.654  0.5375 -0.4177  0.3935
  112MOL    O1322435   7.562   3.820   7.616  0.4114 -0.2896 -0.1829
  112MOL    C1422436   7.614   4.025   7.722 -0.1862 -0.5795 -1.0659
  112MOL    C1522437   7.722   4.078   7.625 -0.9456  0.5641 -0.5292
  112MOL    N1622438   0.069   4.004   7.623  0.3774 -0.1747 -0.1537
  112MOL    H1722439   7.657   3.968   0.024 -0.1212  1.7681  0.5471
  112MOL    H1822440   7.561   4.094   0.006 -1.8775 -2.3456 -0.4861
  112MOL    H1922441   7.677   4.073   7.525  1.1222  0.4701 -1.4856
  112MOL    H2022442   7.752   4.182   7.639  1.9500 -0.4661  1.2453
  112MOL    H2122443   0.130   4.023   7.701  1.4767 -1.1227 -0.7741
  112MOL    C2222444   0.123   3.921   7.529 -0.2634  0.4547 -0.3888
  112MOL    O2322445   0.061   3.887   7.427 -0.1947  0.2191  0.6904
  112MOL    C2422446   0.266   3.874   7.553  0.9901 -0.3532  0.3187
  112MOL    C2522447   0.296   3.728   7.490 -0.3271 -0.1654 -0.3022
  112MOL    N2622448   0.260   3.707   7.352  0.2518 -0.5433 -0.1555
  112MOL    H2722449   0.278   3.866   7.661  0.0380  0.2185  0.4735
  112MOL    H2822450   0.343   3.943   7.519 -0.9458  1.6925 -0.0208
  112MOL    H2922451   0.393   3.691   7.523 -0.9616 -1.2755  0.3610
  112MOL    H3022452   0.230   3.655   7.538  1.3361 -1.7595 -0.4070
  112MOL    H3122453   0.195   3.776   7.317  1.4914  0.3843 -0.6570
  112MOL    C3222454   0.308   3.622   7.265 -0.0272 -0.7615 -0.2242
  112MOL    O3322455   0.391   3.540   7.295  0.2562 -0.1576 -0.1143
  112MOL    C3422456   0.252   3.627   7.120  0.0863 -0.3898  0.0356
  112MOL    C3522457   0.355   3.583   7.018  0.4337  0.2698 -0.1030
  112MOL    N3622458   0.304   3.510   6.904  0.1188 -0.1439 -0.2281
  112MOL    H3722459   0.225   3.730   7.097  0.6796 -0.4380 -0.8863
  112MOL    H3822460   0.157   3.575   7.108 -0.1475 -0.1225  0.6908
  112MOL    H3922461   0.414   3.669   6.989  0.2603  0.8764  1.2687
  112MOL    H4022462   0.421   3.508   7.062  0.8062  0.7963  0.2475
  112MOL    H4122463   0.307   3.410   6.909  1.9827 -0.2593 -2.5513
  112MOL    C4222464   0.241   3.555   6.796 -0.4024  0.8372  0.3650
  112MOL    O4322465   0.217   3.672   6.775 -0.3898  0.5045  0.0784
  112MOL    C4422466   0.191   3.442   6.703 -0.4934 -0.3470 -0.7324
  112MOL    C4522467   0.101   3.479   6.588  0.6405 -0.2800 -0.3076
  112MOL    N4622468   0.162   3.489   6.461 -0.2101  0.3926  0.3409
  112MOL    H4722469   0.274   3.378   6.674  0.8104  1.1509 -0.4019
  112MOL    H4822470   0.129   3.380   6.768  1.5265 -2.1900 -0.5335
  112MOL    H4922471   0.035   3.392   6.578  1.8713 -1.3471  0.6484
  112MOL    H5022472   0.035   3.564   6.602 -2.7589 -3.0334  1.3027
  112MOL    H5122473   0.258   3.457   6.460 -0.3828 -0.1232 -1.5728
  112MOL    C5222474   0.101   3.500   6.345 -0.6160 -0.0430  0.2341
  112MOL    O5322475   7.772   3.551   6.334  0.1955 -0.4206 -0.4799
  112MOL    C5422476   0.177   3.460   6.219  0.2609 -0.0527 -0.3880
  112MOL    C5522477   0.329   3.439   6.225 -0.0008 -0.0549 -0.6241
  112MOL    N5622478   0.392   3.569   6.252  0.1116  0.5435 -0.3679
  112MOL    H5722479   0.135   3.364   6.189 -1.3133  1.0499 -1.7957
  112MOL    H5822480   0.145   3.525   6.138 -2.1533 -1.3216 -0.4741
  112MOL    H5922481   0.378   3.402   6.136  0.1252  1.0940 -1.0386
  112MOL    H6022482   0.351   3.363   6.300 -2.1039 -1.1554 -1.0758
  112MOL    H6122483   0.380   3.644   6.185 -0.9921  0.6260 -0.0896
  112MOL    C6222484   0.481   3.595   6.339 -0.1682 -0.9141 -0.2851
  112MOL    O6322485   0.518   3.512   6.427  0.1635 -0.3140  0.3122
  112MOL    C6422486   0.551   3.733   6.330 -0.1875 -0.6892  0.4289
  112MOL    C6522487   0.619   3.776   6.468 -0.3846  0.0578  0.2968
  112MOL    N6622488   0.704   3.888   6.459  0.1090 -0.5449 -0.8848
  112MOL    H6722489   0.633   3.726   6.258  0.6841 -1.3248  1.4727
  112MOL    H6822490   0.487   3.815   6.297  0.7919 -0.4951 -1.0482
  112MOL    H6922491   0.541   3.800   6.541  0.3472  0.6178  0.8973
  112MOL    H7022492   0.679   3.697   6.512  1.7444  0.6513 -1.4876
  112MOL    H7122493   0.797   3.871   6.496 -0.4810 -0.3151  0.7805
  112MOL    C7222494   0.675   4.010   6.408 -0.0849  0.4421  0.1166
  112MOL    O7322495   0.570   4.044   6.365  0.3589  0.4681 -0.7635
  112MOL    C7422496   0.792   4.104   6.391  0.2290 -0.0776  0.6067
  112MOL    C7522497   0.780   4.240   6.316 -0.3427 -0.7110 -0.3311
  112MOL    N7622498   0.809   4.228   6.171 -0.2853  0.2005  0.1522
  112MOL    H7722499   0.817   4.132   6.493 -0.6804 -0.5349  0.9611
  112MOL    H7822500   0.869   4.044   6.341  1.1414 -0.9376  2.9779
  112MOL    H7922501   0.677   4.276   6.317 -0.2150 -0.3274  1.2434
  112MOL    H8022502   0.853   4.309   6.357 -0.3990 -0.7393 -0.1824
  112MOL    H8122503   0.741   4.279   6.116 -1.4882  0.8483  2.1877
  112MOL    C8222504   0.931   4.193   6.125  0.7162 -0.8486  0.4423
  112MOL    O8322505   1.025   4.162   6.193 -0.1784 -0.2625  0.0438
  112MOL    C8422506   0.938   4.199   5.973  0.2919 -0.2132  0.5888
  112MOL    C8522507   0.893   4.077   5.896  0.2212 -0.0676  0.6945
  112MOL    N8622508   0.753   4.063   5.859  0.6561 -0.3357  0.0278
  112MOL    H8722509   0.879   4.284   5.938 -1.3185 -1.4354  0.2720
  112MOL    H8822510   1.041   4.230   5.953 -0.9338  3.7880  0.1531
  112MOL    H8922511   0.942   4.064   5.799  1.3639 -1.8150  1.4766
  112MOL    H9022512   0.933   3.992   5.950  0.2143  0.3263  1.3205
  112MOL    H9122513   0.678   4.130   5.873  0.2723 -0.0689 -2.9739
  112MOL    C9222514   0.707   3.944   5.822  0.1744 -0.0808 -0.0580
  112MOL    O9322515   0.775   3.841   5.814  0.1797  0.7225 -0.8131
  112MOL    C9422516   0.559   3.927   5.795  0.6523 -0.0879 -0.5045
  112MOL    C9522517   0.474   3.906   5.924  0.4406  0.2711  0.4008
  112MOL    N9622518   0.335   3.876   5.895  0.1131  0.1429 -0.9722
  112MOL    H9722519   0.533   4.014   5.735  0.5486 -0.3304 -0.8179
  112MOL    H9822520   0.554   3.839   5.731  0.5414  0.3255 -1.0673
  112MOL    H9922521   0.509   3.842   6.006 -0.9605 -0.6964  0.2668
  112MOL   H10022522   0.469   4.005   5.968  2.2733  1.9763 -3.0389
  112MOL   H10122523   0.279   3.955   5.868  2.0592  1.6932 -0.6439
  112MOL   C10222524   0.267   3.763   5.928 -0.0849 -0.6596  0.6461
  112MOL   O10322525   0.325   3.661   5.959  0.5280  0.1090 -0.5806
  112MOL   C10422526   0.118   3.774   5.917 -0.8471 -0.1912  0.2079
  112MOL   C10522527   0.075   3.651   5.836 -0.0945 -0.0078 -0.1325
  112MOL   N10622528   7.721   3.659   5.784 -0.6673 -0.0258  0.4435
  112MOL   H10722529   0.081   3.863   5.865  0.6681  0.2606 -0.1229
  112MOL   H10822530   0.069   3.772   6.014 -2.6469  0.3350 -0.6632
  112MOL   H10922531   0.138   3.642   5.748  0.3810  1.1846  0.0784
  112MOL   H11022532   0.086   3.565   5.902  0.1103 -0.1462 -0.3490
  112MOL   H11122533   7.665   3.736   5.817  1.7676  1.7942  0.4445
  112MOL   C11222534   7.664   3.562   5.710  0.7990 -0.7466  0.1501
  112MOL   O11322535   7.710   3.452   5.691 -0.5993 -0.5592 -0.3521
  112MOL   C11422536   7.530   3.596   5.658 -0.0523 -0.4588 -0.4332
  112MOL   C11522537   7.515   3.578   5.506 -0.0222  0.1780 -0.4599
  112MOL   N11622538   7.618   3.664   5.435  0.4799  0.5552  0.1967
  112MOL   H11722539   7.504   3.701   5.668 -0.6416 -0.5587 -0.8606
  112MOL   H11822540   7.453   3.546   5.718  0.8505 -1.8286 -0.3973
  112MOL   H11922541   7.534   3.473   5.483  0.3978  0.2848 -0.6250
  112MOL   H12022542   7.421   3.617   5.467 -1.0525 -1.9690 -0.2050
  112MOL   H12122543   7.705   3.621   5.408  0.0202 -0.3962  0.2291
  112MOL   C12222544   7.611   3.797   5.421  0.1869  0.0484  1.0855
  112MOL   O12322545   7.514   3.862   5.458  0.2374 -0.5285 -0.2168
  112MOL   C12422546   7.731   3.869   5.358 -0.1310  0.8484 -0.1086
  112MOL   C12522547   7.696   3.956   5.241 -0.2602 -0.0533 -0.5682
  112MOL   N12622548   0.033   4.032   5.203 -0.1347 -0.2126 -0.5354
  112MOL   H12722549   0.024   3.793   5.331 -2.3159 -0.8143 -1.5445
  112MOL   H12822550   0.006   3.922   5.435  0.8440 -0.2958 -0.0033
  112MOL   H12922551   7.669   3.900   5.151  0.5199  1.9067 -2.0487
  112MOL   H13022552   7.621   4.033   5.257  0.2409  0.0721  1.2592
  112MOL   H13122553   0.084   3.982   5.132 -0.2676 -2.0225  0.5895
  112MOL   C13222554   0.078   4.146   5.259  0.6923  0.0099  0.4097
  112MOL   O13322555   0.010   4.212   5.335  0.2698 -0.8153  0.4682
  112MOL   C13422556   0.215   4.189   5.211 -0.2076  0.5622 -0.6566
  112MOL   C13522557   0.322   4.146   5.317 -0.1892  0.2007  0.0013
  112MOL   N13622558   0.349   4.008   5.312 -0.1415 -0.2983 -0.6349
  112MOL   H13722559   0.219   4.297   5.197 -2.3379  0.6320 -0.8197
  112MOL   H13822560   0.257   4.153   5.117  2.1945  0.1119  0.5379
  112MOL   H13922561   0.412   4.207   5.308  0.1055  0.0899  1.8752
  112MOL   H14022562   0.283   4.182   5.412 -1.5954  0.6359 -0.7245
  112MOL   H14122563   0.350   3.960   5.223  0.9394 -1.6831  0.1017
  112MOL   C14222564   0.362   3.923   5.415  0.1426  0.6880  0.0942
  112MOL   O14322565   0.366   3.963   5.528  0.0439  0.2134 -0.6890
  112MOL   C14422566   0.389   3.775   5.393 -0.1079  0.4863  0.7249
  112MOL   C14522567   0.307   3.695   5.488 -0.3074  1.0062 -0.6946
  112MOL   N14622568   0.301   3.554   5.453 -0.6824 -0.3267 -0.4459
  112MOL   H14722569   0.496   3.758   5.407  0.6899  1.9337 -3.0642
  112MOL   H14822570   0.364   3.731   5.297  1.5888 -1.3900  1.0937
  112MOL   H14922571   0.359   3.691   5.583  1.1988  0.2359 -1.5295
  112MOL   H15022572   0.204   3.732   5.493  0.0892  1.9385  0.6069
  112MOL   H15122573   0.361   3.498   5.511  0.1700 -0.0632 -1.0693
  112MOL   C15222574   0.208   3.493   5.377 -0.0484  0.0053  0.2661
  112MOL   O15322575   0.115   3.554   5.329  0.7417  0.1673 -0.0794
  112MOL   C15422576   0.211   3.340   5.375 -0.6293 -0.2328  0.9584
  112MOL   C15522577   0.077   3.287   5.419  0.0210  0.5606  0.1007
  112MOL   N15622578   0.003   3.257   5.294  0.5666 -0.1844  0.5485
  112MOL   H15722579   0.294   3.311   5.439 -0.3597 -1.0753  0.2467
  112MOL   H15822580   0.251   3.308   5.279  0.3177 -1.5002  1.7668
  112MOL   H15922581   0.076   3.207   5.494  1.4923 -1.5656 -2.0637
  112MOL   H16022582   0.016   3.362   5.469  1.2423 -0.3281  2.9998
  112MOL   H16122583   0.049   3.241   5.205  1.4361  1.2742  0.7181
  112MOL   C16222584   7.647   3.259   5.296  0.4129  0.8443 -0.1461
  112MOL   O16322585   7.578   3.249   5.398  0.0453  0.3485 -0.0673
  112MOL   C16422586   7.585   3.283   5.161  0.2437  0.5140 -0.4316
  112MOL   C16522587   7.554   3.432   5.132  0.2534  0.2174 -0.0710
  112MOL   N16622588   7.671   3.516   5.118 -0.0207 -0.3355  0.3569
  112MOL   H16722589   7.485   3.237   5.161  0.7949 -0.7156 -0.0072
  112MOL   H16822590   7.651   3.240   5.086 -0.5544  0.0735 -0.8924
  112MOL   H16922591   7.480   3.441   5.052 -0.1308  0.4805  0.3072
  112MOL   H17022592   7.506   3.471   5.223 -0.3904  3.2408 -1.6532
  112MOL   H17122593   7.744   3.484   5.181 -0.0937  1.1156  1.2021
  112MOL   C17222594   7.708   3.607   5.025 -0.5430  0.0066  0.2434
  112MOL   O17322595   7.637   3.649   4.940 -0.1475  0.3843  0.8591
  112MOL   C17422596   0.067   3.664   5.039  0.1531 -0.0029 -0.2539
  112MOL   C17522597   0.111   3.737   4.918  0.2565  0.5210 -0.5605
  112MOL   N17622598   0.250   3.765   4.904 -0.3286 -0.0910  0.0529
  112MOL   H17722599   0.138   3.583   5.052  0.5661  0.4672  0.4590
  112MOL   H17822600   0.069   3.726   5.128 -0.6992 -1.1215  0.5574
  112MOL   H17922601   0.098   3.677   4.827 -0.7972  0.7532 -0.5680
  112MOL   H18022602   0.053   3.829   4.907  0.8563  1.3004  2.4730
  112MOL   H18122603   0.298   3.724   4.825  2.1972  0.6656  1.1562
  112MOL   C18222604   0.321   3.846   4.985  0.0348 -0.0233  0.0769
  112MOL   O18322605   0.276   3.897   5.087  0.3984 -0.0398  0.0073
  112MOL   C18422606   0.468   3.870   4.942  0.1733 -0.6864 -0.0429
  112MOL   C18522607   0.567   3.898   5.065  0.2227 -0.0847 -0.0187
  112MOL   N18622608   0.697   3.840   5.058 -0.2471 -0.6033 -0.0385
  112MOL   H18722609   0.474   3.955   4.875 -0.2004 -0.3195  0.3854
  112MOL   H18822610   0.509   3.785   4.886 -0.2657 -0.6775 -0.3806
  112MOL   H18922611   0.575   4.005   5.084  1.1716 -0.0452 -0.6021
  112MOL   H19022612   0.526   3.866   5.161  0.6375  1.2947  0.6373
  112MOL   H19122613   0.712   3.751   5.103  1.8305  0.1089  0.7154
  112MOL   C19222614   0.805   3.905   5.007  0.2489 -0.1043  0.3707
  112MOL   O19322615   0.794   4.015   4.961 -0.4752 -0.4116  0.3887
  112MOL   C19422616   0.932   3.825   4.992 -0.3858 -0.3154 -0.2938
  112MOL   C19522617   1.036   3.874   4.896 -0.4592  0.8804  0.2221
  112MOL   N19622618   1.025   3.822   4.758 -0.1687 -0.0743  0.3101
  112MOL   H19722619   0.979   3.824   5.091 -2.6381  1.5138  0.8376
  112MOL   H19822620   0.908   3.719   4.979 -1.6671 -0.3362  1.9904
  112MOL   H19922621   1.041   3.983   4.889 -0.5404  0.8374 -0.5396
  112MOL   H20022622   1.129   3.850   4.949 -1.3632  3.0943  2.9541
  112MOL   H20122623   1.101   3.861   4.703 -0.0483 -0.9868 -0.1827
  112MOL   H20222624   1.038   3.723   4.741 -0.0147 -0.2195  1.2410
  113MOL     C122625   0.839   2.625   5.413  0.1931 -0.2542 -0.1773
  113MOL     O222626   0.862   2.511   5.370  0.3467  0.2684  0.0968
  113MOL     C322627   0.695   2.664   5.433  0.0789  0.0290 -0.7490
  113MOL     C422628   0.610   2.554   5.515 -0.1770  0.6245 -0.4121
  113MOL     N522629   0.650   2.550   5.656  0.0450 -0.0577 -0.0258
  113MOL     H622630   0.648   2.684   5.337 -0.9400 -2.6923 -0.8603
  113MOL     H722631   0.695   2.755   5.493 -1.9823  1.2774 -2.5396
  113MOL     H822632   0.637   2.464   5.460  1.1950  0.0330  1.2113
  113MOL     H922633   0.505   2.585   5.516 -0.1713  0.5936  1.0564
  113MOL    H1022634   0.630   2.632   5.712  2.6383 -0.4025  1.4500
  113MOL    H1122635   0.921   2.695   5.430  3.3976 -3.4648 -1.7071
  113MOL    C1222636   0.701   2.446   5.722  0.3356 -0.2725  0.0906
  113MOL    O1322637   0.717   2.336   5.665  0.0710  0.0738  0.3144
  113MOL    C1422638   0.742   2.469   5.868 -0.5349  0.0300  0.0106
  113MOL    C1522639   0.876   2.398   5.919  0.1442  0.6341  0.1971
  113MOL    N1622640   0.861   2.265   5.964 -0.0537 -0.1318  0.0088
  113MOL    H1722641   0.659   2.449   5.936  1.2526 -2.8961  1.4259
  113MOL    H1822642   0.758   2.577   5.867  0.4256 -0.1108 -2.5706
  113MOL    H1922643   0.945   2.404   5.834 -0.4056 -0.9084 -0.3928
  113MOL    H2022644   0.917   2.457   6.001  1.3952 -0.5623  0.4580
  113MOL    H2122645   0.899   2.192   5.906 -0.1550  1.5552 -2.2495
  113MOL    C2222646   0.829   2.230   6.092  0.7833  0.1781  0.5622
  113MOL    O2322647   0.805   2.316   6.171 -0.4135  0.2417 -0.1451
  113MOL    C2422648   0.813   2.080   6.128  0.0271  0.9010  0.0326
  113MOL    C2522649   0.799   2.055   6.280  0.2488 -0.4591 -0.4814
  113MOL    N2622650   0.667   2.093   6.329 -0.0002 -0.4072 -0.2057
  113MOL    H2722651   0.907   2.030   6.108  0.8907  2.3824  0.3197
  113MOL    H2822652   0.734   2.032   6.069  1.3564  0.2211 -1.2201
  113MOL    H2922653   0.808   1.949   6.303 -1.1473 -0.0808  1.9703
  113MOL    H3022654   0.871   2.110   6.339 -0.5851  1.1963 -0.9761
  113MOL    H3122655   0.620   2.160   6.270  0.4359 -0.0584 -0.1664
  113MOL    C3222656   0.602   2.040   6.435 -0.1350 -0.2078  0.1143
  113MOL    O3322657   0.647   1.954   6.504 -0.2289 -0.6248 -0.0619
  113MOL    C3422658   0.471   2.098   6.472 -0.1522  0.0467  0.1550
  113MOL    C3522659   0.410   2.025   6.595  0.1362  0.3375  0.2525
  113MOL    N3622660   0.324   2.128   6.665 -0.3774 -0.2462  0.4144
  113MOL    H3722661   0.403   2.100   6.387 -2.0699 -0.1058  1.6289
  113MOL    H3822662   0.496   2.200   6.502 -0.8627  0.3828 -0.3661
  113MOL    H3922663   0.372   1.926   6.573  1.7307  0.4488 -3.2858
  113MOL    H4022664   0.486   2.001   6.669 -0.2235 -0.5770  0.3247
  113MOL    H4122665   0.338   2.224   6.639 -4.3925  0.5181  0.7485
  113MOL    C4222666   0.267   2.096   6.783 -1.0293  0.1828  0.1246
  113MOL    O4322667   0.251   1.980   6.822  0.7777  0.1339 -0.3894
  113MOL    C4422668   0.218   2.216   6.858 -0.1819 -0.3346 -1.4499
  113MOL    C4522669   0.085   2.198   6.932  0.0720  0.6098 -0.2753
  113MOL    N4622670   7.754   2.195   6.840 -0.2165  0.0298  0.2174
  113MOL    H4722671   0.300   2.233   6.927 -1.0626 -0.1718 -0.4169
  113MOL    H4822672   0.212   2.309   6.802 -1.7227  0.1646 -0.4892
  113MOL    H4922673   0.096   2.105   6.989 -1.5953 -0.0119 -0.9408
  113MOL    H5022674   0.083   2.276   7.008  0.1584 -1.3536  1.8010
  113MOL    H5122675   7.722   2.103   6.813  1.3636 -0.0144 -1.6754
  113MOL    C5222676   7.709   2.300   6.779  1.1934 -0.5971 -0.1625
  113MOL    O5322677   7.747   2.418   6.798 -0.7151 -0.0768  0.4434
  113MOL    C5422678   7.609   2.276   6.668  1.0526  0.1324 -0.0423
  113MOL    C5522679   7.510   2.392   6.662 -0.4667  0.0332 -0.1438
  113MOL    N5622680   7.564   2.517   6.602  0.5599 -0.3731 -0.1859
  113MOL    H5722681   7.660   2.264   6.572 -2.4229 -2.4341 -1.6786
  113MOL    H5822682   7.553   2.186   6.696 -1.5052  1.3787 -1.0332
  113MOL    H5922683   7.471   2.417   6.760 -0.6368  1.4225 -0.5544
  113MOL    H6022684   7.424   2.350   6.609 -1.1113 -1.2515  1.8664
  113MOL    H6122685   7.663   2.529   6.618  0.5386  1.5273 -1.3128
  113MOL    C6222686   7.515   2.605   6.520  0.6131  0.4713 -0.3702
  113MOL    O6322687   7.399   2.598   6.481 -0.1738  0.0646 -0.0799
  113MOL    C6422688   7.617   2.715   6.464 -0.2414  0.0345  0.5851
  113MOL    C6522689   7.577   2.848   6.536 -1.0191 -0.3093  0.3132
  113MOL    N6622690   7.644   2.888   6.665  0.1415 -0.2987 -0.3211
  113MOL    H6722691   7.715   2.676   6.490 -0.1505  0.0751  0.3031
  113MOL    H6822692   7.613   2.713   6.355 -1.4803  1.7086  0.5709
  113MOL    H6922693   7.594   2.926   6.462 -2.4540 -1.0135 -0.7995
  113MOL    H7022694   7.469   2.857   6.550 -1.1644 -0.9670 -0.4017
  113MOL    H7122695   7.624   2.825   6.741  0.5608  0.3275  0.3195
  113MOL    C7222696   7.691   3.011   6.705 -0.6975 -0.5167  0.5169
  113MOL    O7322697   7.699   3.107   6.630  0.8378  0.2637 -0.1265
  113MOL    C7422698   7.720   3.026   6.851 -0.1897  0.2224 -0.2897
  113MOL    C7522699   0.033   3.146   6.884  0.3172 -0.3076  0.0065
  113MOL    N7622700   0.097   3.135   7.020 -0.6543 -0.3537  0.3230
  113MOL    H7722701   7.629   3.032   6.910  0.3567 -0.9205  0.6726
  113MOL    H7822702   7.769   2.931   6.871 -1.8850 -0.7650 -0.6477
  113MOL    H7922703   0.101   3.169   6.801 -0.4022  0.5118 -0.3760
  113MOL    H8022704   7.745   3.230   6.895  1.3117  0.4861  0.1925
  113MOL    H8122705   0.051   3.097   7.101 -1.0294  1.9481  1.2532
  113MOL    C8222706   0.226   3.178   7.044 -0.2033  0.3718  0.0325
  113MOL    O8322707   0.294   3.246   6.969  0.3363 -0.0295  0.8452
  113MOL    C8422708   0.275   3.139   7.179  0.3737 -0.4494 -0.7031
  113MOL    C8522709   0.408   3.063   7.156 -0.9603  0.5052  0.3274
  113MOL    N8622710   0.468   3.020   7.282 -0.2505 -0.4296 -0.1275
  113MOL    H8722711   0.278   3.237   7.227  0.6439 -1.3709  1.2050
  113MOL    H8822712   0.216   3.075   7.244  0.0728 -0.2386 -0.7726
  113MOL    H8922713   0.388   2.978   7.091 -0.8255  1.8274 -1.5158
  113MOL    H9022714   0.481   3.117   7.095  0.1305  0.8359  1.9044
  113MOL    H9122715   0.443   3.062   7.370  1.7571  1.9053 -0.6172
  113MOL    C9222716   0.595   2.976   7.303  0.5573  0.1676 -0.5369
  113MOL    O9322717   0.666   2.956   7.206 -0.4841 -0.4735 -0.1604
  113MOL    C9422718   0.637   2.946   7.448  1.0534  0.0248 -0.5718
  113MOL    C9522719   0.618   2.792   7.472  0.0679 -0.1681 -0.5088
  113MOL    N9622720   0.717   2.750   7.574  0.3551  0.1052  0.1286
  113MOL    H9722721   0.742   2.976   7.458  0.2098  2.0746  2.9401
  113MOL    H9822722   0.583   3.007   7.520  1.9365 -0.4032  0.4641
  113MOL    H9922723   0.521   2.759   7.510 -0.4750 -0.2217 -1.9080
  113MOL   H10022724   0.633   2.744   7.375 -1.0636 -0.5042 -0.5333
  113MOL   H10122725   0.717   2.807   7.657  0.0213 -0.7708  0.7296
  113MOL   C10222726   0.814   2.657   7.557 -0.0976  0.1241  0.3489
  113MOL   O10322727   0.822   2.592   7.454  0.3399  0.0514  0.2314
  113MOL   C10422728   0.913   2.622   7.670 -0.0828 -0.5435 -0.5356
  113MOL   C10522729   1.064   2.596   7.638 -0.0659 -0.3556  0.4666
  113MOL   N10622730   1.090   2.497   7.531  0.0199  1.1112 -0.6387
  113MOL   H10722731   0.865   2.531   7.706 -1.7434 -0.2089 -1.8010
  113MOL   H10822732   0.905   2.708   7.737  0.3032 -1.3507  0.5738
  113MOL   H10922733   1.119   2.689   7.624  0.4490 -0.9608 -1.7041
  113MOL   H11022734   1.112   2.543   7.721  0.6598 -0.3227  0.0682
  113MOL   H11122735   1.013   2.439   7.500 -0.3208  2.6012 -2.6584
  113MOL   C11222736   1.212   2.472   7.479 -0.3007  0.4910  0.0376
  113MOL   O11322737   1.314   2.527   7.524  0.0846 -0.2824  0.2919
  113MOL   C11422738   1.220   2.387   7.346  0.2359  0.0741 -0.8881
  113MOL   C11522739   1.323   2.441   7.239 -0.0126 -0.2425 -0.6307
  113MOL   N11622740   1.462   2.386   7.244  0.6145 -0.0574  0.1748
  113MOL   H11722741   1.123   2.378   7.298  0.4064 -0.2134 -1.1908
  113MOL   H11822742   1.244   2.284   7.373 -0.1348  0.3896  0.6776
  113MOL   H11922743   1.279   2.424   7.141 -0.3377  0.2315 -0.5703
  113MOL   H12022744   1.334   2.549   7.247 -0.6947 -0.1890 -0.2961
  113MOL   H12122745   1.532   2.430   7.301 -1.8816  1.7271  1.9562
  113MOL   C12222746   1.485   2.271   7.186 -0.2349  0.4415 -0.1838
  113MOL   O12322747   1.409   2.196   7.119 -0.4714 -0.2934 -0.0314
  113MOL   C12422748   1.621   2.219   7.195 -0.4499 -0.2534 -0.2764
  113MOL   C12522749   1.630   2.118   7.316 -0.8095 -0.4912 -0.6212
  113MOL   N12622750   1.670   2.191   7.436  0.3373 -0.1167  0.0130
  113MOL   H12722751   1.700   2.293   7.209  0.4258 -1.3184  0.5534
  113MOL   H12822752   1.645   2.176   7.098 -1.8397  1.9625 -1.6501
  113MOL   H12922753   1.537   2.062   7.327  0.2031 -1.5409  3.5307
  113MOL   H13022754   1.717   2.057   7.288  0.3205  0.6184  0.4364
  113MOL   H13122755   1.723   2.275   7.419  0.0884 -0.1236 -0.8301
  113MOL   C13222756   1.632   2.167   7.558  0.7928 -1.2462  0.4026
  113MOL   O13322757   1.563   2.066   7.578 -0.0949 -0.4254 -0.5784
  113MOL   C13422758   1.669   2.269   7.669 -0.0112  0.7061  0.6047
  113MOL   C13522759   1.564   2.268   0.003  0.0449  0.1849 -0.3588
  113MOL   N13622760   1.623   2.330   0.120  0.3309  0.0776  0.5179
  113MOL   H13722761   1.680   2.372   7.635 -2.5378  0.4651 -1.0297
  113MOL   H13822762   1.771   2.247   7.702  0.6932  0.7573 -1.4714
  113MOL   H13922763   1.469   2.316   7.760  0.7183  1.0224 -1.4643
  113MOL   H14022764   1.530   2.166   0.020 -1.3191  0.6257 -0.3551
  113MOL   H14122765   1.611   2.429   0.132 -1.7668 -0.0876  0.1225
  113MOL   C14222766   1.645   2.262   0.232  0.1116  0.1292 -0.5028
  113MOL   O14322767   1.644   2.141   0.243  0.0420 -0.5113 -0.5014
  113MOL   C14422768   1.673   2.348   0.360 -0.8066 -0.3814 -0.5659
  113MOL   C14522769   1.704   2.270   0.487  0.3164 -0.3115  0.8834
  113MOL   N14622770   1.593   2.184   0.535 -0.0455  0.5552 -0.5458
  113MOL   H14722771   1.595   2.416   0.393 -0.4027 -0.5273  0.7259
  113MOL   H14822772   1.763   2.409   0.348 -1.2052  0.2811 -0.1407
  113MOL   H14922773   1.796   2.212   0.482  1.0730  0.8595  1.0602
  113MOL   H15022774   1.718   2.349   0.561  2.3962 -0.7694  1.0088
  113MOL   H15122775   1.596   2.086   0.514  2.5525 -0.2460  2.9142
  113MOL   C15222776   1.482   2.228   0.594 -0.4757 -0.5734  0.6180
  113MOL   O15322777   1.463   2.345   0.610  0.3812  0.2735  0.1625
  113MOL   C15422778   1.371   2.131   0.638  0.7785  0.1583  0.1372
  113MOL   C15522779   1.230   2.175   0.584  0.8366  0.2736  0.8196
  113MOL   N15622780   1.191   2.120   0.457  0.0120  0.1802  0.1758
  113MOL   H15722781   1.371   2.127   0.747  0.3580 -2.4161  0.0732
  113MOL   H15822782   1.402   2.031   0.608  0.5919 -0.2235  1.2049
  113MOL   H15922783   1.159   2.135   0.657  0.4074  0.1177  0.3238
  113MOL   H16022784   1.214   2.283   0.582  0.2048  0.1761 -1.7336
  113MOL   H16122785   1.149   2.028   0.450 -0.5214  0.4046  0.4398
  113MOL   C16222786   1.239   2.176   0.345  0.1318 -0.3077 -0.1313
  113MOL   O16322787   1.320   2.275   0.338  0.6675  0.3628 -0.5546
  113MOL   C16422788   1.208   2.096   0.213  0.0699  0.2760  0.1428
  113MOL   C16522789   1.213   2.166   0.081 -0.5101 -0.5791 -0.1841
  113MOL   N16622790   1.079   2.225   0.042 -0.1095  0.1191  0.0823
  113MOL   H16722791   1.113   2.044   0.226  0.8597 -0.7877  1.8004
  113MOL   H16822792   1.277   2.012   0.217 -1.4025 -0.9602  0.1688
  113MOL   H16922793   1.285   2.248   0.078 -0.6587 -0.4192  0.4721
  113MOL   H17022794   1.243   2.090   0.009  2.5778 -0.5627  1.0153
  113MOL   H17122795   1.073   2.326   0.048  2.0571  0.2499  0.1008
  113MOL   C17222796   0.965   2.155   0.009 -0.2913  0.6697  0.2659
  113MOL   O17322797   0.949   2.028   0.002  0.1782  0.3164  0.1009
  113MOL   C17422798   0.847   2.242   7.753  0.0973  0.5915  0.3720
  113MOL   C17522799   0.720   2.173   7.702  0.3941  0.1623  0.8515
  113MOL   N17622800   0.622   2.269   7.661  0.4746 -0.4612  0.0499
  113MOL   H17722801   0.880   2.315   7.679  1.5677 -1.8514 -1.4833
  113MOL   H17822802   0.830   2.297   0.065  0.6799  1.1293  0.1559
  113MOL   H17922803   0.734   2.107   7.617 -2.1804  0.2623  0.3298
  113MOL   H18022804   0.676   2.109   7.778 -1.5316  0.1044 -0.2767
  113MOL   H18122805   0.584   2.255   7.568  0.8252 -0.8537 -0.0333
  113MOL   C18222806   0.557   2.360   7.738 -0.2283  0.9192  0.2150
  113MOL   O18322807   0.584   2.386   0.074  0.5730  0.2897  0.3370
  113MOL   C18422808   0.436   2.426   7.679 -0.3137 -0.1449  0.1644
  113MOL   C18522809   0.418   2.573   7.725  0.2828 -0.0108 -0.5149
  113MOL   N18622810   0.314   2.635   7.628 -0.2135  0.4264  0.2973
  113MOL   H18722811   0.345   2.368   7.692  1.0873 -2.2050  0.9934
  113MOL   H18822812   0.456   2.429   7.572  0.4617  1.7149  0.3478
  113MOL   H18922813   0.381   2.574   0.047  0.8838 -2.2090 -0.2374
  113MOL   H19022814   0.512   2.627   7.711  0.4922 -1.0005 -3.2684
  113MOL   H19122815   0.345   2.654   7.534 -1.3879  0.6616 -0.0423
  113MOL   C19222816   0.183   2.651   7.637  0.3169 -0.4031  0.3207
  113MOL   O19322817   0.126   2.637   7.743 -0.0073  0.0799  0.2790
  113MOL   C19422818   0.108   2.713   7.513 -0.1261  0.3250 -0.1491
  113MOL   C19522819   0.197   2.786   7.411 -0.2577 -0.6757 -0.1353
  113MOL   N19622820   0.304   2.704   7.352 -0.7034  0.1738  0.0427
  113MOL   H19722821   0.042   2.643   7.463 -0.9744  1.3727 -0.5205
  113MOL   H19822822   0.035   2.785   7.551 -0.0278 -0.0018  0.6681
  113MOL   H19922823   0.123   2.814   7.335 -0.1666 -0.4259 -0.1329
  113MOL   H20022824   0.242   2.881   7.442  0.5487 -0.6935 -1.2352
  113MOL   H20122825   0.260   2.638   7.290 -0.7356  0.5458 -0.3355
  113MOL   H20222826   0.335   2.774   7.286  0.1963 -0.6127 -0.3780
  114MOL     C122827   0.901   5.465   6.522  0.4826  0.9638 -0.3290
  114MOL     O222828   0.861   5.371   6.446  0.0329 -0.1079  0.1859
  114MOL     C322829   0.849   5.609   6.501  0.1866  0.2423 -0.6193
  114MOL     C422830   0.898   5.707   6.616 -0.0680 -0.1005  0.5384
  114MOL     N522831   1.040   5.737   6.621  0.2538 -0.1369  0.0060
  114MOL     H622832   0.741   5.597   6.494 -0.0107  0.2450  2.0553
  114MOL     H722833   0.871   5.641   6.399  0.1339 -2.6568 -1.5865
  114MOL     H822834   0.868   5.668   6.713  2.2655  0.1697  1.4110
  114MOL     H922835   0.849   5.804   6.603 -2.2140 -1.2286  0.0744
  114MOL    H1022836   1.095   5.715   6.703  1.2850  2.0962 -0.0378
  114MOL    H1122837   0.969   5.444   6.604 -0.9326 -1.6712  0.2435
  114MOL    C1222838   1.110   5.807   6.528 -0.2650 -0.0451 -0.2725
  114MOL    O1322839   1.064   5.837   6.421  0.2414 -0.1747 -0.0112
  114MOL    C1422840   1.251   5.856   6.574  1.0266  0.3616 -0.1558
  114MOL    C1522841   1.361   5.825   6.481  0.7987 -0.2599  0.1014
  114MOL    N1622842   1.494   5.873   6.526  0.4106 -0.1787 -0.4034
  114MOL    H1722843   1.268   5.821   6.676  2.3582 -1.0583 -0.8380
  114MOL    H1822844   1.234   5.963   6.581 -0.0275  0.1868  0.0264
  114MOL    H1922845   1.375   5.718   6.466  0.4071 -0.2754 -0.1528
  114MOL    H2022846   1.336   5.864   6.382 -2.3761 -1.2035  0.4892
  114MOL    H2122847   1.531   5.957   6.484  1.3395 -0.7272 -0.6951
  114MOL    C2222848   1.568   5.800   6.614 -0.3111 -0.4684 -0.4228
  114MOL    O2322849   1.528   5.686   6.655  0.0883 -0.1537  0.1231
  114MOL    C2422850   1.699   5.862   6.651  0.1901  0.2359 -0.2488
  114MOL    C2522851   1.781   5.784   6.767 -0.7303 -0.1477 -0.5095
  114MOL    N2622852   1.730   5.819   6.901 -0.4516  0.4618 -0.2459
  114MOL    H2722853   1.684   5.966   6.679 -0.2407  0.9310 -2.9697
  114MOL    H2822854   1.763   5.839   6.566 -2.2609 -0.7683 -1.8718
  114MOL    H2922855   1.762   5.676   6.764 -0.1557 -0.2336 -1.1438
  114MOL    H3022856   1.887   5.805   6.758 -0.8456  0.4361 -0.5146
  114MOL    H3122857   1.631   5.839   6.902 -0.1548  1.8794  1.2372
  114MOL    C3222858   1.790   5.798   7.018  0.2687 -0.5292 -0.1499
  114MOL    O3322859   1.903   5.758   7.020  0.3972  0.1197  0.3039
  114MOL    C3422860   1.720   5.841   7.151 -0.3406 -0.1548  0.5327
  114MOL    C3522861   1.808   5.919   7.253 -0.9883  0.3744 -0.0056
  114MOL    N3622862   1.826   6.061   7.212 -0.1574  0.3730 -0.2753
  114MOL    H3722863   1.675   5.754   7.199 -0.1844  0.8798  2.6412
  114MOL    H3822864   1.635   5.901   7.119  1.2076  1.5063 -0.5696
  114MOL    H3922865   1.757   5.921   7.349  0.0036 -1.8916  0.6075
  114MOL    H4022866   1.909   5.879   7.259  0.6124  3.9517 -1.4397
  114MOL    H4122867   1.874   6.088   7.128 -0.5040 -0.7025 -0.8323
  114MOL    C4222868   1.827   6.168   7.292 -0.1379 -0.3586  0.4126
  114MOL    O4322869   1.784   6.156   7.408 -0.3356 -0.5082  0.1982
  114MOL    C4422870   1.875   6.303   7.229 -0.3121  0.2765 -0.4246
  114MOL    C4522871   1.889   6.421   7.331  1.0151  0.3468 -0.1283
  114MOL    N4622872   2.025   6.430   7.373  0.0206  0.2591  0.0322
  114MOL    H4722873   1.956   6.290   7.157 -1.1731  0.8281 -1.4917
  114MOL    H4822874   1.799   6.344   7.163 -0.1288  0.7076 -0.3669
  114MOL    H4922875   1.856   6.513   7.284  1.0916  0.0555 -0.7494
  114MOL    H5022876   1.825   6.406   7.419  0.5249 -2.7592 -0.9447
  114MOL    H5122877   2.039   6.402   7.469  1.4755 -0.0302 -0.2535
  114MOL    C5222878   2.127   6.490   7.309 -0.3580 -0.1512 -0.7354
  114MOL    O5322879   2.122   6.526   7.191 -0.2767  0.2442  0.4845
  114MOL    C5422880   2.245   6.519   7.394  0.1096 -0.2945  0.1574
  114MOL    C5522881   2.323   6.639   7.339 -0.5663 -0.5904  0.1883
  114MOL    N5622882   2.413   6.685   7.445 -0.1494 -0.3561  0.3671
  114MOL    H5722883   2.207   6.530   7.496  1.2402 -1.4987  0.7278
  114MOL    H5822884   2.308   6.430   7.392 -0.3103 -0.6234  1.0687
  114MOL    H5922885   2.252   6.712   7.301  0.7582  0.3358 -0.5217
  114MOL    H6022886   2.388   6.606   7.258  0.6478  0.1817  0.8358
  114MOL    H6122887   2.509   6.655   7.451 -0.0544  0.2013  1.6574
  114MOL    C6222888   2.375   6.774   7.537  0.6232 -0.7321  0.5050
  114MOL    O6322889   2.265   6.832   7.541 -0.4507  0.0952  0.4486
  114MOL    C6422890   2.489   6.794   7.642  0.4016 -1.0721  0.3323
  114MOL    C6522891   2.546   6.934   7.661  0.3179  0.3254 -0.2859
  114MOL    N6622892   2.631   6.971   7.546 -0.2806 -0.1773  0.0264
  114MOL    H6722893   2.464   6.764   7.744  2.9307  0.5415  1.4941
  114MOL    H6822894   2.577   6.733   7.623  1.2500  0.8730 -2.2682
  114MOL    H6922895   2.468   7.009   7.674 -0.7258 -0.4029 -2.1813
  114MOL    H7022896   2.604   6.932   7.753 -0.9078 -1.1147  0.4664
  114MOL    H7122897   2.584   7.020   7.471  0.5708  2.6475  1.2688
  114MOL    C7222898   2.757   6.941   7.542  1.1009  0.3330  0.1843
  114MOL    O7322899   2.817   6.891   7.640 -0.2388 -0.4717 -0.3292
  114MOL    C7422900   2.834   6.993   7.419  0.2481  0.1748  0.2055
  114MOL    C7522901   2.831   6.901   7.301  0.9229 -0.2762  0.1174
  114MOL    N7622902   2.955   6.906   7.233  0.0455  0.6593  0.6820
  114MOL    H7722903   2.803   7.095   7.397 -0.0657 -0.0317 -0.2900
  114MOL    H7822904   2.933   6.993   7.466  1.0544 -0.3882 -1.4619
  114MOL    H7922905   2.807   6.800   7.334  0.0453 -0.1380 -0.0780
  114MOL    H8022906   2.745   6.934   7.242  2.1528  0.0686 -1.5407
  114MOL    H8122907   3.019   6.984   7.243  3.3341 -2.0352  1.1903
  114MOL    C8222908   2.984   6.811   7.142  0.5527  0.0771  0.0712
  114MOL    O8322909   2.914   6.707   7.121 -0.8743 -0.0745 -0.2695
  114MOL    C8422910   3.113   6.828   7.063 -1.1331 -0.0425 -0.2039
  114MOL    C8522911   3.149   6.703   6.988 -1.0293 -0.2982  0.0005
  114MOL    N8622912   3.263   6.728   6.903  0.4326  1.0234  0.3209
  114MOL    H8722913   3.097   6.913   6.997 -0.8844  0.8781  0.9170
  114MOL    H8822914   3.193   6.860   7.129 -0.5556 -1.7985 -0.0154
  114MOL    H8922915   3.172   6.625   7.061  0.9918  0.0393 -0.2404
  114MOL    H9022916   3.072   6.658   6.925 -0.6234 -1.2740  0.1940
  114MOL    H9122917   3.298   6.821   6.883 -1.5637  1.1495 -2.9834
  114MOL    C9222918   3.319   6.631   6.837 -0.9500 -0.2802  0.1483
  114MOL    O9322919   3.281   6.513   6.840 -0.1023  0.5202 -0.9774
  114MOL    C9422920   3.437   6.673   6.746  0.4052  0.0610  0.0194
  114MOL    C9522921   3.442   6.583   6.625 -0.0684  0.6764  0.1626
  114MOL    N9622922   3.358   6.621   6.509  0.2105 -0.5278  0.4281
  114MOL    H9722923   3.445   6.781   6.730 -0.4196  0.2250  0.6730
  114MOL    H9822924   3.522   6.661   6.812  0.0350 -0.2887  0.4381
  114MOL    H9922925   3.548   6.577   6.598 -0.2089 -0.7931 -0.1347
  114MOL   H10022926   3.419   6.480   6.651 -1.1919  0.3062 -2.1445
  114MOL   H10122927   3.274   6.573   6.482 -0.8890  1.7862 -0.3896
  114MOL   C10222928   3.394   6.721   6.431 -0.7914  0.5122  0.1303
  114MOL   O10322929   3.506   6.767   6.438 -0.1129 -0.4488 -0.1603
  114MOL   C10422930   3.288   6.764   6.332 -0.8314  1.2311 -0.6867
  114MOL   C10522931   3.292   6.915   6.315 -0.1655  0.4261 -0.7207
  114MOL   N10622932   3.190   6.961   6.223 -0.0587  0.2096 -0.2082
  114MOL   H10722933   3.188   6.735   6.365 -0.1142  0.3968  0.8136
  114MOL   H10822934   3.313   6.720   6.236  2.0058  2.0471 -0.3700
  114MOL   H10922935   3.259   6.955   6.410 -1.0004  1.1137 -1.2909
  114MOL   H11022936   3.391   6.948   6.283 -0.3014  1.3743 -0.1732
  114MOL   H11122937   3.218   6.972   6.127  1.8970  1.3317  0.4745
  114MOL   C11222938   3.069   7.014   6.249 -0.0999  0.0457 -0.0403
  114MOL   O11322939   3.012   7.008   6.357 -0.2204 -0.3067 -0.0130
  114MOL   C11422940   3.006   7.102   6.146  0.4237 -0.8282  0.1399
  114MOL   C11522941   3.017   7.254   6.164  0.2602 -0.3521  0.2522
  114MOL   N11622942   3.156   7.295   6.165 -0.1160  0.1064  0.2588
  114MOL   H11722943   2.902   7.067   6.145 -0.0782  0.6617 -0.4514
  114MOL   H11822944   3.043   7.068   6.049 -0.3833  1.8848 -1.1626
  114MOL   H11922945   2.954   7.310   6.095  2.0841 -0.7286 -1.7446
  114MOL   H12022946   2.972   7.270   6.262  0.1226 -0.6009  0.2302
  114MOL   H12122947   3.216   7.228   6.212  0.1286  0.4195  0.3965
  114MOL   C12222948   3.209   7.400   6.115  0.0249 -0.5755 -0.8073
  114MOL   O12322949   3.150   7.493   6.057 -0.4734  0.1037 -0.0075
  114MOL   C12422950   3.362   7.403   6.133  0.9289  0.2587 -0.6401
  114MOL   C12522951   3.436   7.433   6.009  0.0583 -0.1905  0.0602
  114MOL   N12622952   3.479   7.574   6.010 -0.2081  0.3053 -0.1603
  114MOL   H12722953   3.400   7.314   6.184 -1.2801 -1.3539 -1.7656
  114MOL   H12822954   3.385   7.484   6.203  0.9661 -0.5165  0.2573
  114MOL   H12922955   3.530   7.379   5.996  0.8111  1.1318 -0.0249
  114MOL   H13022956   3.365   7.400   5.934  0.8176 -0.6007 -0.4874
  114MOL   H13122957   3.516   7.603   6.098 -0.7276  0.6118 -0.0387
  114MOL   C13222958   3.441   7.659   5.911 -0.3516 -0.0695  0.0671
  114MOL   O13322959   3.391   7.622   5.807  0.1020 -0.1094  0.6096
  114MOL   C13422960   3.482   0.024   5.947 -0.2786  0.0458 -0.6443
  114MOL   C13522961   3.372   0.127   5.921 -0.6791  0.5614 -0.6364
  114MOL   N13622962   3.415   0.265   5.919  0.0544  0.3987  0.8625
  114MOL   H13722963   3.571   0.049   5.890  0.6365  0.1323  0.8040
  114MOL   H13822964   3.519   0.036   6.048  0.1330 -1.0229 -0.6582
  114MOL   H13922965   3.324   0.104   5.826  1.8494 -1.1123 -1.5619
  114MOL   H14022966   3.301   0.109   6.002  0.2007  1.9286  0.4625
  114MOL   H14122967   3.424   0.307   5.828 -0.1678  0.1179  0.7115
  114MOL   C14222968   3.436   0.344   6.026 -0.6658 -0.2774 -0.7856
  114MOL   O14322969   3.410   0.303   6.143  0.3055 -0.1324  0.0261
  114MOL   C14422970   3.489   0.484   6.012  0.5390  0.7736  0.4301
  114MOL   C14522971   3.587   0.529   6.124  0.5462 -0.4015 -0.5476
  114MOL   N14622972   3.587   0.674   6.144 -0.1975  0.1665 -0.7473
  114MOL   H14722973   3.402   0.550   6.008  1.3201  1.7166 -2.2651
  114MOL   H14822974   3.536   0.500   5.915 -0.9773 -0.4315 -0.5388
  114MOL   H14922975   3.552   0.495   6.221 -1.9862  0.2193 -1.2009
  114MOL   H15022976   3.689   0.497   6.101  1.6037  0.6599  2.4074
  114MOL   H15122977   3.507   0.729   6.116  0.3739  3.2456  3.3353
  114MOL   C15222978   3.689   0.734   6.192  0.1742 -0.5187  0.0200
  114MOL   O15322979   3.793   0.682   6.229  0.0837 -0.3612 -0.2756
  114MOL   C15422980   3.665   0.881   6.219 -0.5829  0.4914 -0.0409
  114MOL   C15522981   3.793   0.969   6.242  0.0199 -0.3989 -0.4067
  114MOL   N15622982   3.770   1.105   6.292  0.2099  0.7459 -0.4077
  114MOL   H15722983   3.612   0.877   6.314  0.2399 -0.8276  0.3770
  114MOL   H15822984   3.595   0.920   6.145  1.3315  1.3553 -1.4558
  114MOL   H15922985   3.868   0.917   6.301 -0.9757 -0.4710  0.8304
  114MOL   H16022986   3.846   0.986   6.148  2.5890  1.1607  1.2502
  114MOL   H16122987   3.757   1.184   6.231 -0.0452  0.6514 -0.4807
  114MOL   C16222988   3.755   1.135   6.421  0.2832  0.4489 -0.5254
  114MOL   O16322989   3.770   1.051   6.505  0.3442  0.5615  0.2746
  114MOL   C16422990   3.714   1.280   6.453  0.2219 -0.1723 -0.3978
  114MOL   C16522991   3.832   1.382   6.440  0.3074 -0.4966 -0.2888
  114MOL   N16622992   3.934   1.367   6.543  0.2739 -0.0993 -0.2478
  114MOL   H16722993   3.676   1.290   6.554 -2.9445 -1.3234 -1.4063
  114MOL   H16822994   3.636   1.313   6.385  0.3222  1.3508  0.2046
  114MOL   H16922995   3.885   1.374   6.345 -0.7042 -0.4819 -0.8545
  114MOL   H17022996   3.798   1.486   6.436  1.6672 -0.0436 -0.5755
  114MOL   H17122997   4.016   1.316   6.513  1.1746  0.6801  0.8411
  114MOL   C17222998   3.903   1.401   6.671 -0.2845 -0.7021 -0.1435
  114MOL   O17322999   3.804   1.459   6.708  0.1110 -0.8027  0.5594
  114MOL   C17423000   4.014   1.362   6.772 -0.3682 -0.3494  0.1139
  114MOL   C17523001   4.127   1.471   6.779  0.1302  0.4522  0.1380
  114MOL   N17623002   4.223   1.426   6.880 -0.7194  0.2457  0.4082
  114MOL   H17723003   4.054   1.264   6.746  1.5038  0.1597  0.9801
  114MOL   H17823004   3.963   1.349   6.867 -1.8796 -1.0084 -0.7783
  114MOL   H17923005   4.161   1.493   6.678  0.2379  1.0647  0.3044
  114MOL   H18023006   4.083   1.565   6.811  0.4065  0.6936 -0.1899
  114MOL   H18123007   4.304   1.374   6.850 -1.7910 -0.6035 -1.1065
  114MOL   C18223008   4.203   1.429   7.013 -0.5851 -0.0193  0.3205
  114MOL   O18323009   4.129   1.501   7.074  0.1017  0.9378 -0.2000
  114MOL   C18423010   4.287   1.336   7.100 -0.1379  0.6490 -0.2037
  114MOL   C18523011   4.200   1.229   7.180  0.3009  0.4509  0.2308
  114MOL   N18623012   4.149   1.120   7.095 -0.1786  0.0665  0.1399
  114MOL   H18723013   4.363   1.391   7.156  0.5958  1.8556 -2.3038
  114MOL   H18823014   4.352   1.292   7.024  0.5592 -1.3230  1.4840
  114MOL   H18923015   4.266   1.184   7.255 -0.2447 -2.0907 -0.7790
  114MOL   H19023016   4.121   1.284   7.231  0.2996  1.8143 -1.2085
  114MOL   H19123017   4.222   1.051   7.085  0.8487  0.7265  2.5384
  114MOL   C19223018   4.031   1.105   7.026 -0.5952 -0.5724  0.3830
  114MOL   O19323019   3.938   1.187   7.032  0.2770 -0.0672  0.0660
  114MOL   C19423020   4.015   0.976   6.941 -0.5593  0.3355 -0.2717
  114MOL   C19523021   3.924   0.867   7.007 -0.3746 -0.0910 -0.4378
  114MOL   N19623022   4.004   0.805   7.111 -0.4633  0.4884  0.1127
  114MOL   H19723023   3.971   1.015   6.849 -2.4383 -1.3666 -0.1084
  114MOL   H19823024   4.113   0.935   6.913 -1.3426 -3.1439  1.7949
  114MOL   H19923025   3.838   0.908   7.060  0.0130 -0.0518  0.1739
  114MOL   H20023026   3.889   0.809   6.922 -0.4009 -2.6021  1.2285
  114MOL   H20123027   3.968   0.711   7.105  3.6416 -1.0938 -2.0515
  114MOL   H20223028   4.100   0.801   7.081 -0.0570 -1.9078  1.5314
  115MOL     C123029   5.170   5.346   3.614  0.6490 -0.3104 -0.9180
  115MOL     O223030   5.291   5.362   3.632  0.3954 -0.7742  0.1551
  115MOL     C323031   5.070   5.456   3.622 -0.5318  0.0110 -0.2094
  115MOL     C423032   4.981   5.448   3.747 -0.5072  0.1926  1.0391
  115MOL     N523033   4.884   5.339   3.734 -0.6274  0.8645 -0.4288
  115MOL     H623034   5.017   5.432   3.530  1.4593 -1.2607 -1.0516
  115MOL     H723035   5.127   5.549   3.621 -0.5731  0.0434  0.2457
  115MOL     H823036   4.935   5.546   3.762  1.5538  1.3709 -0.2114
  115MOL     H923037   5.050   5.439   3.831 -0.9048  0.5204  1.4029
  115MOL    H1023038   4.838   5.322   3.646 -1.3970  1.0882 -0.0712
  115MOL    H1123039   5.132   5.243   3.610 -2.3513  0.7756 -1.4986
  115MOL    C1223040   4.854   5.257   3.829 -0.4459  0.0775  0.1263
  115MOL    O1323041   4.908   5.268   3.944 -0.0856  0.0079 -0.4620
  115MOL    C1423042   4.764   5.143   3.796  0.3304 -0.1184 -0.8738
  115MOL    C1523043   4.751   5.042   3.911 -0.0296 -0.7757 -0.0679
  115MOL    N1623044   4.640   4.953   3.892  0.3404  0.0728  0.4191
  115MOL    H1723045   4.788   5.091   3.703 -1.7103  1.1979 -2.1806
  115MOL    H1823046   4.662   5.179   3.783 -0.2594 -0.6916  1.8798
  115MOL    H1923047   4.843   4.985   3.927 -0.4754 -1.5435 -0.1989
  115MOL    H2023048   4.725   5.088   4.007  0.9663 -0.2882 -0.0291
  115MOL    H2123049   4.660   4.855   3.899 -1.5746 -0.5529 -2.2632
  115MOL    C2223050   4.514   4.978   3.914 -0.1331 -0.5068 -0.3013
  115MOL    O2323051   4.466   5.091   3.922 -0.2379 -0.6758  0.7255
  115MOL    C2423052   4.420   4.856   3.928  0.1259 -0.1664  0.5473
  115MOL    C2523053   4.275   4.870   3.875 -0.1913 -0.5999 -1.0185
  115MOL    N2623054   4.249   4.913   3.740  0.0536 -0.2239 -0.4282
  115MOL    H2723055   4.422   4.808   4.026  0.0332 -3.2048 -0.8981
  115MOL    H2823056   4.474   4.779   3.874 -2.7312 -1.5314 -0.4563
  115MOL    H2923057   4.237   4.772   3.904  0.4423  0.2831  3.1957
  115MOL    H3023058   4.210   4.933   3.935 -2.3524 -1.5881 -2.2830
  115MOL    H3123059   4.179   4.984   3.724  0.3843  0.1949 -0.0195
  115MOL    C3223060   4.320   4.879   3.635 -0.7251  0.1444  0.7666
  115MOL    O3323061   4.416   4.802   3.633  0.4638  0.5003 -0.1588
  115MOL    C3423062   4.255   4.934   3.500  0.1951  0.4768  0.7478
  115MOL    C3523063   4.261   4.823   3.393 -0.8734 -0.2015  0.4268
  115MOL    N3623064   4.172   4.714   3.409  0.1726  0.5517  0.5377
  115MOL    H3723065   4.322   5.017   3.479  0.7801 -0.2327 -0.2203
  115MOL    H3823066   4.155   4.976   3.503  0.9322  2.2725  0.8690
  115MOL    H3923067   4.232   4.874   3.301  1.6194  4.4884  2.0638
  115MOL    H4023068   4.364   4.793   3.373 -0.6903  0.1313  0.8475
  115MOL    H4123069   4.075   4.726   3.384  0.0481 -0.7539  0.3919
  115MOL    C4223070   4.202   4.584   3.430 -0.0378  0.0782 -1.3056
  115MOL    O4323071   4.312   4.546   3.469 -0.3882 -0.3635 -0.2511
  115MOL    C4423072   4.091   4.491   3.388 -0.8292  0.0798 -0.1911
  115MOL    C4523073   4.148   4.394   3.291  0.2567  0.3222  0.1128
  115MOL    N4623074   4.068   4.279   3.274  0.2746  0.0297 -0.9907
  115MOL    H4723075   4.050   4.446   3.479 -0.6206 -0.5004 -0.3782
  115MOL    H4823076   4.014   4.550   3.338 -1.0538 -0.3925 -0.4047
  115MOL    H4923077   4.169   4.447   3.199  2.1392  0.8404  0.8217
  115MOL    H5023078   4.243   4.351   3.322 -0.1124 -0.0029  0.8147
  115MOL    H5123079   4.060   4.221   3.355  2.6296 -0.9018 -1.3816
  115MOL    C5223080   4.024   4.229   3.157  0.5459  0.5627  0.5333
  115MOL    O5323081   4.046   4.274   3.045  0.4825 -0.3121  0.2746
  115MOL    C5423082   3.921   4.111   3.170 -0.3339 -0.3298  0.2319
  115MOL    C5523083   3.781   4.159   3.199  0.0189 -0.4793  0.4385
  115MOL    N5623084   3.734   4.252   3.094 -0.0683 -0.3495 -0.5409
  115MOL    H5723085   3.923   4.066   3.071  1.2775  0.9326 -0.3344
  115MOL    H5823086   3.960   4.035   3.237 -0.5201 -0.4957  0.1517
  115MOL    H5923087   3.789   4.213   3.293  1.1665 -0.0047  0.0903
  115MOL    H6023088   3.708   4.085   3.230  0.2633 -0.0539  2.0325
  115MOL    H6123089   3.799   4.327   3.077  0.9954 -0.4640  2.5780
  115MOL    C6223090   3.615   4.260   3.035  0.4352 -0.0772 -0.0265
  115MOL    O6323091   3.515   4.200   3.071 -0.0533 -0.4674 -0.5391
  115MOL    C6423092   3.604   4.356   2.911  0.0838  0.6759  0.1791
  115MOL    C6523093   3.488   4.457   2.928  0.4212 -0.3186  0.1056
  115MOL    N6623094   3.365   4.422   2.857 -0.3576  0.1930 -0.0648
  115MOL    H6723095   3.701   4.406   2.908 -0.9345  2.6593 -0.4431
  115MOL    H6823096   3.602   4.289   2.825 -0.2631  0.4957  0.3224
  115MOL    H6923097   3.473   4.484   3.032 -0.0896 -1.0877  0.2303
  115MOL    H7023098   3.532   4.549   2.889  0.6228 -0.2436  0.5070
  115MOL    H7123099   3.359   4.342   2.795  0.5316 -0.5093  0.7410
  115MOL    C7223100   3.257   4.493   2.841 -0.5874  0.4894  0.2751
  115MOL    O7323101   3.241   4.600   2.897 -0.2151 -0.5106 -0.2813
  115MOL    C7423102   3.140   4.419   2.778  0.5726  0.8282  0.4727
  115MOL    C7523103   3.026   4.511   2.724 -0.0507 -0.5869  0.4845
  115MOL    N7623104   2.905   4.446   2.669 -0.0588  0.7921 -0.4619
  115MOL    H7723105   3.173   4.349   2.701 -2.8823  0.9538 -1.1760
  115MOL    H7823106   3.099   4.348   2.849 -0.3825 -0.2985 -1.1890
  115MOL    H7923107   2.998   4.585   2.799  2.2992  0.4832  0.3415
  115MOL    H8023108   3.079   4.580   2.658  0.2847  0.5486  1.9146
  115MOL    H8123109   2.891   4.355   2.712  1.1320  0.1086 -1.4733
  115MOL    C8223110   2.845   4.490   2.560 -0.0813  0.5060 -0.5260
  115MOL    O8323111   2.867   4.596   2.502 -0.4693  0.5358 -0.5121
  115MOL    C8423112   2.732   4.395   2.516  0.2465 -0.2890 -0.4340
  115MOL    C8523113   2.682   4.428   2.374  0.7120  0.6723  0.6118
  115MOL    N8623114   2.569   4.333   2.356  0.1416 -0.1146 -0.4558
  115MOL    H8723115   2.770   4.293   2.522 -1.6781 -0.9340  1.0892
  115MOL    H8823116   2.650   4.403   2.587 -0.5127  0.4461 -1.3816
  115MOL    H8923117   2.656   4.532   2.356  0.3996  0.5066  0.0895
  115MOL    H9023118   2.763   4.427   2.301  0.8601  3.6453  0.7032
  115MOL    H9123119   2.480   4.353   2.400  1.0943  0.3038  1.3361
  115MOL    C9223120   2.580   4.215   2.302  0.3331  0.7878 -0.2622
  115MOL    O9323121   2.686   4.163   2.280  0.2628  0.0269 -0.9934
  115MOL    C9423122   2.454   4.127   2.297 -0.7769  0.3279 -0.3138
  115MOL    C9523123   2.464   3.977   2.322  0.2039  0.0580 -0.3591
  115MOL    N9623124   2.340   3.924   2.387 -0.0842 -0.0320 -0.1600
  115MOL    H9723125   2.382   4.170   2.367 -0.5849 -1.0260  0.7390
  115MOL    H9823126   2.421   4.144   2.194  0.0464 -0.7155 -0.7609
  115MOL    H9923127   2.466   3.921   2.229  2.5787 -0.2954 -0.1028
  115MOL   H10023128   2.556   3.945   2.371  1.2497  0.1206 -2.2455
  115MOL   H10123129   2.290   3.982   2.452  0.8427 -1.6214  2.0321
  115MOL   C10223130   2.275   3.810   2.364  0.4446 -0.4107 -1.2562
  115MOL   O10323131   2.313   3.734   2.274 -0.4284  0.6836 -0.1819
  115MOL   C10423132   2.144   3.783   2.448 -0.4432  0.3454 -0.0887
  115MOL   C10523133   2.138   3.635   2.493 -0.1269 -0.0237  0.5967
  115MOL   N10623134   2.019   3.605   2.575 -0.5313 -0.1964 -0.2203
  115MOL   H10723135   2.061   3.810   2.382 -1.1592  0.2294  0.7509
  115MOL   H10823136   2.144   3.834   2.544 -0.3641 -1.0939  0.6774
  115MOL   H10923137   2.142   3.566   2.409  2.3112  0.7921  0.0066
  115MOL   H11023138   2.232   3.612   2.543  1.3970  1.0234 -1.6720
  115MOL   H11123139   1.936   3.573   2.526 -0.9842 -1.2145  1.1883
  115MOL   C11223140   2.017   3.609   2.706  0.8186 -0.9061  0.0540
  115MOL   O11323141   2.116   3.637   2.768 -0.0511  0.3721  0.1728
  115MOL   C11423142   1.881   3.587   2.776 -0.3807  0.0927  0.6648
  115MOL   C11523143   1.872   3.669   2.915 -0.2208  0.0754  0.6415
  115MOL   N11623144   1.936   3.616   3.032 -0.4608 -0.2760 -0.2411
  115MOL   H11723145   1.862   3.481   2.795  2.1811 -0.5254 -0.0685
  115MOL   H11823146   1.799   3.616   2.711  2.0400 -0.0446 -2.5901
  115MOL   H11923147   1.922   3.764   2.893  0.2297 -0.3865 -0.3476
  115MOL   H12023148   1.766   3.685   2.930 -0.2953 -0.1689  0.3860
  115MOL   H12123149   1.999   3.675   3.084  0.7871 -0.9778 -0.9295
  115MOL   C12223150   1.863   3.520   3.100  0.1198  0.3608  0.8469
  115MOL   O12323151   1.772   3.458   3.044 -0.2395 -0.1185  0.0976
  115MOL   C12423152   1.895   3.487   3.248 -0.3381  0.1735  0.5719
  115MOL   C12523153   1.918   3.334   3.280 -0.5234 -0.5671  0.5823
  115MOL   N12623154   1.900   3.309   3.425 -0.1364  0.4453  0.1891
  115MOL   H12723155   1.817   3.541   3.302  0.2972  0.7756  0.8957
  115MOL   H12823156   1.987   3.539   3.278  1.6030 -2.2633 -0.9503
  115MOL   H12923157   1.836   3.282   3.231 -1.1159  0.8165  0.0941
  115MOL   H13023158   2.007   3.295   3.231 -0.1991  0.2475  0.5152
  115MOL   H13123159   1.806   3.283   3.452 -0.1034 -0.0104 -0.1270
  115MOL   C13223160   2.003   3.328   3.515  0.5371  0.2013 -0.1523
  115MOL   O13323161   2.115   3.377   3.490 -0.3892  0.2956 -0.4629
  115MOL   C13423162   1.973   3.287   3.656 -0.1961 -0.8984  0.4764
  115MOL   C13523163   1.915   3.148   3.680 -0.4349  0.8180  0.2484
  115MOL   N13623164   2.011   3.043   3.658  0.0499 -0.2047 -0.0846
  115MOL   H13723165   1.911   3.367   3.697  2.0383  0.7926  0.6597
  115MOL   H13823166   2.066   3.295   3.713  2.0352 -2.0794 -2.8879
  115MOL   H13923167   1.879   3.149   3.783 -0.3040  0.3795  0.2992
  115MOL   H14023168   1.829   3.132   3.616  0.0597  1.7910 -0.6690
  115MOL   H14123169   2.051   3.029   3.566  2.6406  3.0907  0.4422
  115MOL   C14223170   2.042   2.949   3.748  0.6493  0.1743  0.8494
  115MOL   O14323171   2.006   2.953   3.865  0.1376 -0.2077  0.1314
  115MOL   C14423172   2.128   2.836   3.694  0.4899  0.3638  0.1738
  115MOL   C14523173   2.258   2.804   3.783 -0.3979 -0.0745 -0.0578
  115MOL   N14623174   2.366   2.738   3.709  0.4300 -0.4877  0.5653
  115MOL   H14723175   2.148   2.867   3.591  0.0900 -0.5094 -0.1728
  115MOL   H14823176   2.067   2.745   3.691 -0.6753  1.1636 -0.7932
  115MOL   H14923177   2.296   2.899   3.821  0.3533  0.7334 -2.7236
  115MOL   H15023178   2.231   2.738   3.865  1.4475  0.7843  1.2821
  115MOL   H15123179   2.448   2.790   3.685  0.4386 -0.6705  0.1956
  115MOL   C15223180   2.362   2.615   3.655 -0.2413  0.0159  0.7381
  115MOL   O15323181   2.266   2.537   3.657 -0.7535  0.1112 -0.5119
  115MOL   C15423182   2.490   2.567   3.583 -0.0692  0.0245  0.4491
  115MOL   C15523183   2.556   2.446   3.655 -0.1173 -0.3511 -0.8396
  115MOL   N15623184   2.702   2.449   3.650 -0.7161  0.9059 -0.3491
  115MOL   H15723185   2.563   2.646   3.596  0.0190 -0.2323  1.5959
  115MOL   H15823186   2.464   2.558   3.478 -0.0383 -1.2438  0.5383
  115MOL   H15923187   2.512   2.438   3.754  0.1690  0.6637 -0.6275
  115MOL   H16023188   2.533   2.363   3.587  0.2183 -0.7911 -0.4212
  115MOL   H16123189   2.741   2.416   3.563 -1.6338  1.4392 -0.9777
  115MOL   C16223190   2.786   2.515   3.732  0.2605  0.1982 -0.1626
  115MOL   O16323191   2.750   2.591   3.821  0.4562  0.0200 -0.0840
  115MOL   C16423192   2.933   2.496   3.713 -0.0246  0.3806  0.3599
  115MOL   C16523193   3.044   2.585   3.773 -0.8498 -0.2449 -0.8088
  115MOL   N16623194   3.071   2.709   3.699 -0.2202 -0.4648 -0.8453
  115MOL   H16723195   2.950   2.504   3.605 -3.4181 -1.0849 -0.3316
  115MOL   H16823196   2.950   2.392   3.740 -0.2686  0.7051  1.7977
  115MOL   H16923197   3.001   2.608   3.870 -0.0380  0.1472 -0.5304
  115MOL   H17023198   3.139   2.533   3.785 -0.4210  0.4922 -0.9537
  115MOL   H17123199   3.034   2.723   3.606 -0.1541  0.4673 -0.7295
  115MOL   C17223200   3.152   2.805   3.739 -1.2741 -0.1817  0.1701
  115MOL   O17323201   3.202   2.809   3.852  0.1266 -0.2581  0.0193
  115MOL   C17423202   3.187   2.920   3.644 -0.3856 -0.1127  0.1689
  115MOL   C17523203   3.333   2.902   3.595 -0.1443 -0.0254 -0.3872
  115MOL   N17623204   3.365   3.008   3.505  0.3976 -0.6288  0.0634
  115MOL   H17723205   3.158   3.005   3.705  2.3503 -0.0655  1.5137
  115MOL   H17823206   3.119   2.908   3.560  1.6604 -2.1521 -1.2615
  115MOL   H17923207   3.402   2.895   3.679 -0.5092  4.3318  0.3767
  115MOL   H18023208   3.338   2.804   3.547  1.0490 -0.0531 -0.2179
  115MOL   H18123209   3.311   3.086   3.469  0.9200 -1.0663 -1.7591
  115MOL   C18223210   3.495   3.016   3.470  0.2337  0.2748  0.3139
  115MOL   O18323211   3.587   2.947   3.519 -0.3331  0.0931 -0.4960
  115MOL   C18423212   3.542   3.132   3.385 -0.1173 -0.3653  0.3987
  115MOL   C18523213   3.577   3.260   3.463  0.2849 -0.2423  0.1185
  115MOL   N18623214   3.695   3.246   3.550 -1.0977  0.2173 -0.1438
  115MOL   H18723215   3.459   3.137   3.314 -0.0821  1.8947  0.4874
  115MOL   H18823216   3.627   3.092   3.330  0.2201  0.3021  0.4297
  115MOL   H18923217   3.594   3.336   3.386  0.4954  0.4080  0.7938
  115MOL   H19023218   3.498   3.292   3.531 -0.3808 -0.8611 -0.3718
  115MOL   H19123219   3.727   3.152   3.568 -0.3926  0.4670 -0.0676
  115MOL   C19223220   3.777   3.345   3.585 -0.2232  0.6074 -0.2516
  115MOL   O19323221   3.758   3.466   3.562  0.7348 -0.4818  0.7896
  115MOL   C19423222   3.904   3.304   3.648 -0.0283  0.0639  0.0902
  115MOL   C19523223   3.993   3.422   3.697 -0.1041 -0.0081 -0.5441
  115MOL   N19623224   4.127   3.381   3.749  0.4355  0.5065 -0.0084
  115MOL   H19723225   3.879   3.223   3.716 -1.6793 -0.1854 -0.7973
  115MOL   H19823226   3.959   3.253   3.569 -0.1964 -1.1017  0.7151
  115MOL   H19923227   4.005   3.498   3.619 -2.6705  1.8018  0.7492
  115MOL   H20023228   3.942   3.480   3.774  0.3339 -0.1338 -0.1562
  115MOL   H20123229   4.158   3.459   3.806  0.8195 -0.6904  1.4690
  115MOL   H20223230   4.192   3.378   3.672  0.9103  1.2165  0.3573
  116MOL     C123231   3.749   3.740   3.320  0.1391 -0.8533  0.0329
  116MOL     O223232   3.814   3.716   3.217  0.0559  0.0818  0.0112
  116MOL     C323233   3.599   3.728   3.328  1.0049  0.0607  0.0065
  116MOL     C423234   3.527   3.782   3.204 -0.0793 -0.0806 -0.4935
  116MOL     N523235   3.382   3.801   3.226  0.1585  0.3725 -0.6010
  116MOL     H623236   3.573   3.781   3.419  0.6151 -1.7867  1.0017
  116MOL     H723237   3.568   3.623   3.332 -1.0692  0.6131 -0.6571
  116MOL     H823238   3.554   3.729   3.112  0.9200  0.7650 -0.6967
  116MOL     H923239   3.567   3.881   3.183 -0.7660  0.3746  0.3283
  116MOL    H1023240   3.337   3.770   3.311 -1.0838  5.3180  0.7033
  116MOL    H1123241   3.794   3.776   3.412 -1.3463 -0.0935  0.4765
  116MOL    C1223242   3.295   3.858   3.146  0.1393  1.2757 -0.2404
  116MOL    O1323243   3.330   3.890   3.033  0.6654 -0.1244  0.5403
  116MOL    C1423244   3.150   3.872   3.180 -0.0611  0.0865 -0.2354
  116MOL    C1523245   3.120   3.994   3.267  0.2251 -0.0085  0.3445
  116MOL    N1623246   3.116   4.118   3.188 -0.7285 -0.0648  0.2474
  116MOL    H1723247   3.110   3.783   3.228 -1.9548  0.5749 -0.8708
  116MOL    H1823248   3.106   3.866   3.080  2.7897  0.1336 -1.5552
  116MOL    H1923249   3.017   3.979   3.299  0.7584 -1.2316  1.5281
  116MOL    H2023250   3.192   4.002   3.348  0.2624 -1.6847  0.4861
  116MOL    H2123251   3.140   4.113   3.090  3.2963  1.8748  1.0183
  116MOL    C2223252   3.100   4.238   3.245 -0.3125  0.0348  0.0818
  116MOL    O2323253   3.082   4.255   3.368  0.5882  0.0150 -0.5809
  116MOL    C2423254   3.120   4.364   3.159 -0.0516 -0.1358  0.7746
  116MOL    C2523255   3.070   4.496   3.226  0.2788 -0.3780 -0.1240
  116MOL    N2623256   3.093   4.617   3.146 -0.1685  0.0893  0.1359
  116MOL    H2723257   3.069   4.356   3.063 -0.7787  1.7452  0.9792
  116MOL    H2823258   3.228   4.371   3.145  0.1579  0.0779  2.3922
  116MOL    H2923259   2.969   4.497   3.268  0.8309  0.0119  1.2000
  116MOL    H3023260   3.131   4.529   3.310  0.9650  2.0283 -1.5292
  116MOL    H3123261   3.151   4.613   3.064 -0.6722 -2.1516 -0.1373
  116MOL    C3223262   3.034   4.741   3.160 -0.0881 -0.3042 -0.8905
  116MOL    O3323263   2.950   4.762   3.249  0.3570 -0.3307 -0.0292
  116MOL    C3423264   3.075   4.848   3.062  0.1429  0.2258 -0.0222
  116MOL    C3523265   2.947   4.931   3.021  0.1864 -0.4221 -0.0446
  116MOL    N3623266   2.946   4.971   2.884  0.8314 -0.0917  0.3278
  116MOL    H3723267   3.115   4.801   2.972  0.5316  1.6965 -0.6275
  116MOL    H3823268   3.155   4.899   3.116  0.2750  1.1095 -1.0521
  116MOL    H3923269   2.858   4.871   3.034 -0.8035  1.5964  3.1816
  116MOL    H4023270   2.917   5.014   3.086 -0.0043 -1.3626  1.0783
  116MOL    H4123271   2.980   5.063   2.861 -1.5772  0.9285  0.6576
  116MOL    C4223272   2.907   4.884   2.786  0.0311 -0.6544  0.4417
  116MOL    O4323273   2.837   4.782   2.807  0.2181 -0.0016  0.2855
  116MOL    C4423274   2.957   4.920   2.640 -0.9810  0.1933 -0.2798
  116MOL    C4523275   2.837   4.948   2.545  0.3295  1.0026  0.4962
  116MOL    N4623276   2.731   4.841   2.540 -0.9356  0.1405 -0.2270
  116MOL    H4723277   3.030   5.000   2.644  0.3179 -0.9725 -0.2085
  116MOL    H4823278   3.019   4.834   2.614  1.1900  0.6713  2.9105
  116MOL    H4923279   2.799   5.047   2.568 -0.1322  0.6096  1.4232
  116MOL    H5023280   2.887   4.962   2.449 -0.1108  2.2288  0.4425
  116MOL    H5123281   2.771   4.749   2.550 -1.8033 -0.0100  2.4053
  116MOL    C5223282   2.605   4.866   2.574 -0.2891  0.0294  0.4820
  116MOL    O5323283   2.551   4.977   2.565 -0.1370  1.1472 -0.0603
  116MOL    C5423284   2.513   4.753   2.613 -0.3280  1.2233  0.4301
  116MOL    C5523285   2.464   4.755   2.760 -0.4101  0.5244 -0.1040
  116MOL    N5623286   2.564   4.710   2.857  0.2260 -0.3201 -0.0906
  116MOL    H5723287   2.418   4.768   2.562  0.3645 -1.0944 -1.6347
  116MOL    H5823288   2.553   4.655   2.587  2.5247  2.7385 -1.0109
  116MOL    H5923289   2.369   4.706   2.781 -0.2974  0.3060 -0.1094
  116MOL    H6023290   2.436   4.852   2.801  0.0836  0.0719  1.3298
  116MOL    H6123291   2.654   4.755   2.853 -0.3690  0.8921 -0.2950
  116MOL    C6223292   2.550   4.619   2.951  0.5832  0.0032 -0.1953
  116MOL    O6323293   2.438   4.564   2.964  0.2553 -0.2741 -0.0878
  116MOL    C6423294   2.655   4.588   3.057 -1.0339 -0.2105 -0.4930
  116MOL    C6523295   2.764   4.488   3.013 -0.3645  0.2645  0.2547
  116MOL    N6623296   2.729   4.342   3.030 -0.0334 -0.2575 -0.2518
  116MOL    H6723297   2.707   4.681   3.077 -0.2982 -0.4670 -1.2104
  116MOL    H6823298   2.619   4.555   3.155 -0.1676 -1.3463 -0.5425
  116MOL    H6923299   2.781   4.505   2.907  0.7887  1.7209  0.6544
  116MOL    H7023300   2.852   4.515   3.072  0.0561 -1.2216  0.3332
  116MOL    H7123301   2.662   4.328   3.103  1.3210 -0.7338  0.9134
  116MOL    C7223302   2.778   4.232   2.963  0.1276 -0.4984 -0.2437
  116MOL    O7323303   2.831   4.250   2.858 -0.4995  0.0787 -0.4818
  116MOL    C7423304   2.780   4.092   3.035  0.5737  0.9197  0.0743
  116MOL    C7523305   2.721   4.067   3.172  0.5547 -0.0943  1.2493
  116MOL    N7623306   2.578   4.099   3.186  0.1913 -0.0344 -0.2268
  116MOL    H7723307   2.727   4.026   2.967  2.3661 -1.1832  0.6475
  116MOL    H7823308   2.885   4.061   3.032 -0.5253 -2.8904 -2.0350
  116MOL    H7923309   2.744   3.968   3.211 -1.0769 -0.1974  2.0216
  116MOL    H8023310   2.783   4.130   3.236  1.5050  0.8134 -0.5086
  116MOL    H8123311   2.510   4.030   3.155 -1.1924  0.6407  1.2777
  116MOL    C8223312   2.520   4.213   3.231 -0.8058 -0.3979  0.3754
  116MOL    O8323313   2.585   4.302   3.294 -0.2690  0.3087  0.8191
  116MOL    C8423314   2.366   4.213   3.251  0.1661  0.4339 -0.3812
  116MOL    C8523315   2.311   4.345   3.193 -0.4410  0.1444 -0.4215
  116MOL    N8623316   2.164   4.362   3.207 -0.8980  0.9616  0.0405
  116MOL    H8723317   2.321   4.130   3.197 -0.3455 -1.6140  3.0820
  116MOL    H8823318   2.340   4.206   3.356 -2.5433 -0.7508 -1.1074
  116MOL    H8923319   2.361   4.439   3.219 -0.5321 -0.0297  0.3622
  116MOL    H9023320   2.330   4.328   3.087 -1.4429 -2.5285 -0.2087
  116MOL    H9123321   2.136   4.414   3.289  1.5759 -0.6389  1.9931
  116MOL    C9223322   2.079   4.343   3.106  0.0315 -0.0733  0.4128
  116MOL    O9323323   2.120   4.294   3.005 -0.6337 -0.0444 -0.5485
  116MOL    C9423324   1.929   4.380   3.128 -0.3739  0.1457 -0.8659
  116MOL    C9523325   1.865   4.403   2.985  0.0736 -0.1903 -0.3624
  116MOL    N9623326   1.725   4.445   3.003  0.5801 -0.3825 -0.1110
  116MOL    H9723327   1.870   4.313   3.190  1.8391 -1.7114 -0.6837
  116MOL    H9823328   1.933   4.473   3.186  0.0957  0.5001 -1.4633
  116MOL    H9923329   1.922   4.474   2.926 -1.8653  0.8437 -1.0540
  116MOL   H10023330   1.863   4.307   2.934  0.9630 -1.1925  1.4491
  116MOL   H10123331   1.668   4.377   3.051 -0.3168  1.0583  0.9032
  116MOL   C10223332   1.675   4.559   2.960  0.5729 -1.2714 -0.1590
  116MOL   O10323333   1.742   4.642   2.892  0.1069  0.0707 -0.4805
  116MOL   C10423334   1.535   4.596   3.012 -0.2239 -0.4048  0.1876
  116MOL   C10523335   1.459   4.703   2.919 -0.0055 -0.1185 -0.6709
  116MOL   N10623336   1.312   4.717   2.956 -0.3202  0.1019 -0.0676
  116MOL   H10723337   1.560   4.650   3.103 -1.2567  1.5473 -0.6390
  116MOL   H10823338   1.477   4.506   3.027  0.8086 -1.1447 -0.1818
  116MOL   H10923339   1.506   4.801   2.930 -0.2977  0.0988 -1.3777
  116MOL   H11023340   1.468   4.687   2.812  0.8457  3.1641 -1.1301
  116MOL   H11123341   1.287   4.804   3.000 -0.2999  0.9063 -1.6209
  116MOL   C11223342   1.213   4.644   2.907 -0.2934 -0.5826 -0.1011
  116MOL   O11323343   1.235   4.535   2.854  0.7877 -0.0602  0.1092
  116MOL   C11423344   1.070   4.691   2.938  0.1991 -0.2418  0.2761
  116MOL   C11523345   0.955   4.647   2.847  0.3200 -0.1101 -0.4534
  116MOL   N11623346   0.916   4.508   2.865  0.3806 -0.6266  0.5463
  116MOL   H11723347   1.065   4.799   2.949  3.0286 -0.1379  0.9314
  116MOL   H11823348   1.043   4.651   3.036 -0.6717 -1.6318 -0.5116
  116MOL   H11923349   0.862   4.700   2.869  0.7493 -0.4611  2.3969
  116MOL   H12023350   0.972   4.669   2.742  1.0956 -0.4372 -0.3944
  116MOL   H12123351   0.941   4.445   2.790  0.9063 -0.7914  0.8566
  116MOL   C12223352   0.861   4.459   2.978  0.4376 -0.0016 -0.2347
  116MOL   O12323353   0.849   4.532   3.074 -0.0010 -0.1719  0.0163
  116MOL   C12423354   0.813   4.314   2.985 -0.2336 -0.4685  0.2034
  116MOL   C12523355   0.658   4.306   3.011  0.0510  0.4906 -0.2223
  116MOL   N12623356   0.614   4.167   2.992 -0.8529  0.9145 -0.7330
  116MOL   H12723357   0.870   4.257   3.059 -0.3818 -0.7034  0.1378
  116MOL   H12823358   0.843   4.264   2.893  2.1636 -0.6104  1.0242
  116MOL   H12923359   0.646   4.329   3.117  2.4941 -2.5758  0.8251
  116MOL   H13023360   0.599   4.363   2.940  1.0192  1.1320 -0.5248
  116MOL   H13123361   0.638   4.118   2.907  0.6679 -0.0681  0.2401
  116MOL   C13223362   0.531   4.099   3.075  0.0872 -0.7249  0.4582
  116MOL   O13323363   0.483   4.152   3.177 -0.1559 -0.7062  0.5502
  116MOL   C13423364   0.499   3.957   3.030  0.2456 -0.5055 -0.0349
  116MOL   C13523365   0.480   3.844   3.134  0.5580  0.0484  0.0211
  116MOL   N13623366   0.356   3.862   3.214 -0.0626 -0.0190  0.1788
  116MOL   H13723367   0.560   3.922   2.947  0.9341 -0.4624  0.4453
  116MOL   H13823368   0.402   3.972   2.984 -0.3493 -1.4357  0.9081
  116MOL   H13923369   0.484   3.745   3.089  0.1105 -0.1253  0.3543
  116MOL   H14023370   0.566   3.856   3.199 -0.3209  1.3104  0.9994
  116MOL   H14123371   0.271   3.880   3.163 -0.7743 -1.1633  0.9445
  116MOL   C14223372   0.346   3.845   3.343 -0.0160  0.2523  0.4538
  116MOL   O14323373   0.441   3.815   3.410 -0.1577 -0.3690  0.0709
  116MOL   C14423374   0.215   3.880   3.413  0.2007 -0.1697 -0.2367
  116MOL   C14523375   0.125   3.761   3.445  0.8715  0.0447  0.2260
  116MOL   N14623376   0.190   3.667   3.533 -0.0068 -0.8402  0.0574
  116MOL   H14723377   0.156   3.946   3.349  0.5503 -0.3454 -0.7420
  116MOL   H14823378   0.229   3.936   3.506 -0.8806  0.6836 -0.5662
  116MOL   H14923379   0.031   3.799   3.485  0.1797 -1.5444  0.1051
  116MOL   H15023380   0.118   3.715   3.347 -1.1429  0.5737  0.0988
  116MOL   H15123381   0.260   3.697   3.598 -0.2949 -0.3084  0.1249
  116MOL   C15223382   0.167   3.534   3.528  0.4653 -0.1850 -0.2340
  116MOL   O15323383   0.089   3.485   3.445 -0.2648  0.4120 -0.7897
  116MOL   C15423384   0.238   3.448   3.626  1.0421  0.0555  0.2581
  116MOL   C15523385   0.149   3.364   3.720  0.3754 -0.3629  0.1104
  116MOL   N15623386   0.111   3.434   3.842  0.0245  0.2467 -0.2243
  116MOL   H15723387   0.310   3.501   3.688  1.9478 -1.7446  0.7793
  116MOL   H15823388   0.299   3.382   3.564 -0.5897  0.1187 -1.4859
  116MOL   H15923389   0.056   3.342   3.668  0.2037  0.1616  0.1962
  116MOL   H16023390   0.209   3.278   3.750  3.4010  2.4071  2.3785
  116MOL   H16123391   0.110   3.535   3.836 -2.1277  0.4152  2.3328
  116MOL   C16223392   0.071   3.378   3.953 -0.1044 -0.4310 -0.0427
  116MOL   O16323393   0.035   3.258   3.949 -0.5553 -0.1522 -0.4078
  116MOL   C16423394   0.078   3.462   4.075  0.0200 -0.2179  0.1150
  116MOL   C16523395   0.017   3.382   4.195  0.2253  0.3762  0.2377
  116MOL   N16623396   0.104   3.273   4.237  0.3750 -0.5487  0.6498
  116MOL   H16723397   0.037   3.561   4.057  1.1917  0.6053  1.7779
  116MOL   H16823398   0.183   3.483   4.096 -0.0831  0.3716  0.0309
  116MOL   H16923399   0.001   3.463   4.266  4.0427  0.0246  1.5988
  116MOL   H17023400   7.703   3.335   4.165 -0.6542  2.3939 -0.2109
  116MOL   H17123401   0.177   3.247   4.172 -0.8092  1.6552 -1.6115
  116MOL   C17223402   0.081   3.191   4.340 -0.9267  0.3628 -0.2463
  116MOL   O17323403   7.775   3.213   4.427  0.2455 -0.2699  0.1374
  116MOL   C17423404   0.174   3.067   4.345 -0.9166 -0.0798 -0.1836
  116MOL   C17523405   0.085   2.938   4.351  0.3343 -0.7519 -0.0580
  116MOL   N17623406   0.009   2.918   4.228 -0.1476 -0.4844  0.0938
  116MOL   H17723407   0.220   3.067   4.443 -2.7604  0.6347  0.7100
  116MOL   H17823408   0.256   3.060   4.273 -0.0480  1.4210  0.6270
  116MOL   H17923409   0.160   2.860   4.356  0.3200 -0.6609  1.8199
  116MOL   H18023410   0.022   2.920   4.438  0.3435  0.2826  0.1779
  116MOL   H18123411   7.695   2.953   4.237 -0.4387 -1.4014  0.6545
  116MOL   C18223412   0.055   2.856   4.120  1.0480  0.1651  1.1162
  116MOL   O18323413   0.166   2.816   4.114 -0.4501 -0.1735  0.0628
  116MOL   C18423414   7.735   2.808   4.016 -0.1891  0.0154  0.3120
  116MOL   C18523415   7.740   2.888   3.883 -0.6961  0.2345  0.0878
  116MOL   N18623416   7.673   3.014   3.897 -0.4609  0.0303  0.8462
  116MOL   H18723417   7.633   2.818   4.053  0.1081  0.6849  0.9627
  116MOL   H18823418   7.760   2.704   3.994  1.6951  0.3881  0.6007
  116MOL   H18923419   0.066   2.904   3.862 -0.4538 -1.0653  0.2720
  116MOL   H19023420   7.702   2.820   3.807 -0.3496 -4.0306  3.4858
  116MOL   H19123421   7.729   3.087   3.938 -0.5485  0.8687 -0.5153
  116MOL   C19223422   7.545   3.038   3.879 -0.0187  0.1353 -0.9933
  116MOL   O19323423   7.462   2.956   3.856 -0.2385  1.2107  0.5724
  116MOL   C19423424   7.499   3.176   3.911  0.2039  0.2156 -0.5139
  116MOL   C19523425   7.355   3.210   3.892  0.2518 -0.6510 -0.2641
  116MOL   N19623426   7.338   3.233   3.750 -0.0736 -0.1179  0.1261
  116MOL   H19723427   7.526   3.179   4.017  1.8591 -1.8790 -0.8270
  116MOL   H19823428   7.564   3.245   3.857 -0.1251  1.4095  0.5971
  116MOL   H19923429   7.290   3.135   3.937  1.8038 -1.3001  0.9050
  116MOL   H20023430   7.320   3.304   3.936 -1.2854 -0.5313 -1.6563
  116MOL   H20123431   7.405   3.302   3.718  0.3381  0.1428  1.5515
  116MOL   H20223432   7.241   3.256   3.735 -0.4673 -1.7846  0.0662
  117MOL     C123433   5.280   6.942   0.030 -0.2936  0.2928  0.6978
  117MOL     O223434   5.276   7.057   7.762  0.3156  0.1414 -1.0417
  117MOL     C323435   5.406   6.885   0.086  0.3391 -0.7558  0.0686
  117MOL     C423436   5.490   6.818   7.760 -0.1690 -0.4835  0.1821
  117MOL     N523437   5.489   6.669   7.756  0.9300 -0.4262 -0.2170
  117MOL     H623438   5.390   6.802   0.155  0.6904 -0.9619 -0.0999
  117MOL     H723439   5.450   6.968   0.141 -1.4834  0.5754 -0.4248
  117MOL     H823440   5.595   6.842   7.774 -0.0575 -1.2513  0.6754
  117MOL     H923441   5.448   6.858   7.667  0.0378  2.1223  1.1590
  117MOL    H1023442   5.581   6.628   7.761 -0.2378 -2.8902  2.4402
  117MOL    H1123443   5.198   6.870   0.022  1.6901 -1.9066 -0.3473
  117MOL    C1223444   5.378   6.589   7.734  0.0446  0.2929 -0.1328
  117MOL    O1323445   5.266   6.625   7.722  0.0604 -0.5444 -0.1740
  117MOL    C1423446   5.414   6.439   7.725 -0.3462 -0.0350 -1.1720
  117MOL    C1523447   5.299   6.356   7.671 -0.1895  0.1805 -0.2510
  117MOL    N1623448   5.287   6.216   7.696  0.7852 -0.0582  0.5902
  117MOL    H1723449   5.456   6.406   0.039 -1.5314 -0.1341 -0.6670
  117MOL    H1823450   5.499   6.419   7.660  2.2707 -1.9133  2.6394
  117MOL    H1923451   5.204   6.397   7.707 -0.2382  0.2048 -0.4077
  117MOL    H2023452   5.294   6.371   7.564 -3.1884  2.1965  0.1038
  117MOL    H2123453   5.339   6.186   7.777  0.0527  1.5627  1.6825
  117MOL    C2223454   5.198   6.137   7.630  0.7699 -0.3437  0.2224
  117MOL    O2323455   5.150   6.173   7.520 -0.6029 -0.5512 -0.2890
  117MOL    C2423456   5.161   6.004   7.691 -0.2902  0.8775  0.5662
  117MOL    C2523457   5.012   5.991   7.720  0.7626  0.0518 -0.6937
  117MOL    N2623458   4.975   6.094   0.032 -0.0203  0.3145 -0.1675
  117MOL    H2723459   5.209   5.998   0.008 -2.2952 -0.1698  1.5191
  117MOL    H2823460   5.199   5.914   7.642 -1.9466 -0.4451  1.6794
  117MOL    H2923461   4.959   6.007   7.626 -0.4143  0.2659  0.0050
  117MOL    H3023462   4.986   5.893   7.759  0.5728  0.5823  0.5132
  117MOL    H3123463   5.042   6.130   0.098 -1.6701  1.0042  1.1799
  117MOL    C3223464   4.851   6.129   0.062  0.2842 -0.0257  0.3669
  117MOL    O3323465   4.765   6.077   7.769 -0.6764 -0.3428 -0.0946
  117MOL    C3423466   4.809   6.218   0.182 -0.1870  0.1391  0.8056
  117MOL    C3523467   4.709   6.328   0.146 -0.7392 -0.2798 -0.3467
  117MOL    N3623468   4.778   6.445   0.086 -0.2398 -0.7480 -0.5141
  117MOL    H3723469   4.894   6.247   0.243  0.2569  0.4851  0.0253
  117MOL    H3823470   4.762   6.144   0.246  2.6050 -1.1038  1.4937
  117MOL    H3923471   4.644   6.294   0.065 -0.4213 -0.9264 -0.3367
  117MOL    H4023472   4.656   6.361   0.235  2.5425  0.2067  1.4848
  117MOL    H4123473   4.779   6.450   7.765 -0.2504 -1.6856 -0.5605
  117MOL    C4223474   4.806   6.564   0.145 -0.0353  0.3120 -0.6411
  117MOL    O4323475   4.788   6.578   0.268  0.4483 -0.0678 -0.6805
  117MOL    C4423476   4.876   6.674   0.068  0.5039 -0.0352 -0.0409
  117MOL    C4523477   4.816   6.813   0.098  0.2337  1.4125  0.0296
  117MOL    N4623478   4.906   6.916   0.048 -0.2982 -0.2088  0.4621
  117MOL    H4723479   4.979   6.667   0.104  0.5200  0.5097  0.0387
  117MOL    H4823480   4.886   6.658   7.741 -0.5869  0.1777 -0.1847
  117MOL    H4923481   4.723   6.819   0.043 -0.7190  0.3377  1.4954
  117MOL    H5023482   4.796   6.827   0.204 -0.6402  4.7713 -0.5363
  117MOL    H5123483   4.956   6.964   0.121  1.5724 -1.9244  0.3349
  117MOL    C5223484   4.916   6.968   7.704 -0.3661  0.3973 -0.9948
  117MOL    O5323485   4.877   6.907   7.606  0.3073  0.4172 -0.1206
  117MOL    C5423486   4.981   7.102   7.688 -0.4967 -0.6638  0.0405
  117MOL    C5523487   4.882   7.217   7.652  0.1199 -0.0780 -0.3872
  117MOL    N5623488   4.867   7.296   7.771  0.1512 -0.3414 -0.0850
  117MOL    H5723489   5.029   7.109   0.005 -1.8525 -0.8555  0.7336
  117MOL    H5823490   5.061   7.088   7.616  0.6118  0.6122  0.9854
  117MOL    H5923491   4.784   7.173   7.634 -0.0017 -1.0730  2.3110
  117MOL    H6023492   4.917   7.270   7.564 -1.6413  1.3181 -0.2654
  117MOL    H6123493   4.883   7.244   0.076  1.1046  2.1058  1.2901
  117MOL    C6223494   4.838   7.426   7.776 -0.1197 -0.2231 -0.1765
  117MOL    O6323495   4.830   7.486   7.673  0.9061  0.3769  0.4701
  117MOL    C6423496   4.805   7.489   0.123  0.7245 -0.2500 -0.0942
  117MOL    C6523497   4.659   7.539   0.129 -0.9436  0.6515  0.9446
  117MOL    N6623498   4.646   7.639   0.232  0.6394  0.7838 -0.7520
  117MOL    H6723499   4.835   7.436   0.214 -0.7031 -0.6878  0.1291
  117MOL    H6823500   4.875   7.573   0.121  1.0873 -0.5406  0.4460
  117MOL    H6923501   4.632   7.580   0.032 -0.6699  1.3559  1.1638
  117MOL    H7023502   4.590   7.455   0.135 -0.1659 -0.1424 -0.9622
  117MOL    H7123503   4.666   7.613   0.328 -0.9951  2.1321 -0.0225
  117MOL    C7223504   4.586   7.760   0.212 -0.1927  0.3727  0.1584
  117MOL    O7323505   4.548   0.017   0.098  0.4020 -0.4159  0.1297
  117MOL    C7423506   4.584   0.062   0.342  0.0278 -0.4928  0.6132
  117MOL    C7523507   4.665   0.200   0.345  0.0828  0.4794 -0.8908
  117MOL    N7623508   4.596   0.305   0.275  0.0558  0.0241 -0.1854
  117MOL    H7723509   4.481   0.093   0.360 -0.0984 -0.7629  0.3675
  117MOL    H7823510   4.597   7.776   0.427 -0.9491  1.8144  2.6355
  117MOL    H7923511   4.674   0.224   0.451 -0.5923 -1.9846 -0.2246
  117MOL    H8023512   4.761   0.171   0.303  0.1449  0.9622 -1.0811
  117MOL    H8123513   4.495   0.308   0.284  0.0958 -0.3017  0.3755
  117MOL    C8223514   4.648   0.401   0.202 -0.1009 -0.3033 -0.5688
  117MOL    O8323515   4.772   0.413   0.194  0.4646 -0.3909 -0.3586
  117MOL    C8423516   4.551   0.504   0.145  0.0256  0.0915 -0.6878
  117MOL    C8523517   4.620   0.602   0.048 -0.3034 -0.2628 -0.0679
  117MOL    N8623518   4.628   0.530   7.707 -0.0388  0.1329  0.9064
  117MOL    H8723519   4.456   0.468   0.105 -0.7169  0.4848  0.6778
  117MOL    H8823520   4.522   0.564   0.232  0.2985  1.0377 -1.2482
  117MOL    H8923521   4.553   0.687   0.035  0.0441 -0.1308 -1.0405
  117MOL    H9023522   4.718   0.629   0.089 -0.4610 -2.1401  1.5762
  117MOL    H9123523   4.683   0.444   7.707 -0.0471  0.1247  0.6315
  117MOL    C9223524   4.557   0.555   7.597 -0.1403 -0.3899  1.0904
  117MOL    O9323525   4.491   0.658   7.580  0.4396  0.6313  0.3653
  117MOL    C9423526   4.573   0.453   7.480  0.0314  0.3816 -0.7434
  117MOL    C9523527   4.439   0.396   7.434  1.5969  0.2290 -0.0336
  117MOL    N9623528   4.438   0.276   7.347 -0.5827  1.0504 -0.0609
  117MOL    H9723529   4.616   0.492   7.388 -1.6015  0.3170 -1.5548
  117MOL    H9823530   4.648   0.376   7.495 -0.3548 -0.1171 -1.3593
  117MOL    H9923531   4.373   0.380   7.519 -0.0397 -0.2203 -1.3613
  117MOL   H10023532   4.391   0.481   7.385 -1.0553 -2.0918 -1.6328
  117MOL   H10123533   4.477   0.192   7.388 -0.7759  1.1833  0.3886
  117MOL   C10223534   4.406   0.280   7.215 -0.6109  0.4508  0.0005
  117MOL   O10323535   4.373   0.383   7.153 -0.1270 -0.0283  0.2008
  117MOL   C10423536   4.406   0.141   7.148  0.0631 -0.1455  0.8326
  117MOL   C10523537   4.368   0.144   6.995  0.6045 -0.0071 -0.8967
  117MOL   N10623538   4.472   0.185   6.900 -0.4787 -0.3069  0.0416
  117MOL   H10723539   4.328   0.082   7.196 -1.4416 -0.9920 -2.5080
  117MOL   H10823540   4.505   0.099   7.169 -0.3826 -0.2659  2.7826
  117MOL   H10923541   4.308   0.058   6.968 -1.0564  1.1884 -1.0750
  117MOL   H11023542   4.287   0.215   6.984  0.4918 -0.0115 -0.1436
  117MOL   H11123543   4.459   0.278   6.864 -2.6679 -0.9744 -1.0104
  117MOL   C11223544   4.561   0.105   6.837 -0.6948 -1.2278 -0.3948
  117MOL   O11323545   4.578   7.764   6.858 -0.1196  0.2967 -0.2093
  117MOL   C11423546   4.633   0.175   6.716 -0.3974  0.1291  0.3638
  117MOL   C11523547   4.782   0.141   6.701  0.0057  0.7658  0.3590
  117MOL   N11623548   4.859   0.242   6.629  0.4793  1.1558 -0.1805
  117MOL   H11723549   4.629   0.284   6.720  1.1481  0.2128 -0.0897
  117MOL   H11823550   4.578   0.133   6.632 -0.4107 -2.3465  1.5810
  117MOL   H11923551   4.824   0.122   6.799 -2.5258  1.0073  1.5423
  117MOL   H12023552   4.773   0.051   6.641  1.3479  0.4695  0.6003
  117MOL   H12123553   4.799   0.312   6.589  1.3598  2.1827  0.2918
  117MOL   C12223554   4.992   0.265   6.640  0.1917  0.5978  0.0114
  117MOL   O12323555   5.069   0.178   6.664  0.0474  0.4322 -0.1337
  117MOL   C12423556   5.037   0.415   6.641  0.1542  0.3998  0.2617
  117MOL   C12523557   5.130   0.461   6.518 -0.1005 -0.5688 -0.0185
  117MOL   N12623558   5.069   0.431   6.384  0.0376  0.0367  0.2096
  117MOL   H12723559   5.086   0.435   6.737  3.2959  0.0950 -1.2003
  117MOL   H12823560   4.948   0.477   6.634  0.7209  1.2008  0.0651
  117MOL   H12923561   5.136   0.570   6.514  1.2275 -0.5847  1.2805
  117MOL   H13023562   5.230   0.418   6.519  1.5594  3.0470 -1.2224
  117MOL   H13123563   5.122   0.403   6.302  0.6650 -2.8067  1.5684
  117MOL   C13223564   4.939   0.444   6.352 -0.5353  0.5697 -0.7879
  117MOL   O13323565   4.856   0.482   6.434 -0.3078  0.5037 -0.6283
  117MOL   C13423566   4.896   0.414   6.207 -0.2441 -0.6421  0.4738
  117MOL   C13523567   4.887   0.263   6.185  0.4552  0.3813 -0.1776
  117MOL   N13623568   4.748   0.211   6.218 -0.0078  0.2942  0.0013
  117MOL   H13723569   4.967   0.466   6.143  1.2230 -0.5346  2.1454
  117MOL   H13823570   4.807   0.469   6.177  0.5951 -0.6524 -2.0799
  117MOL   H13923571   4.906   0.235   6.082  2.8191  3.6728 -0.7107
  117MOL   H14023572   4.963   0.208   6.239 -0.2465 -1.1985 -0.7799
  117MOL   H14123573   4.680   0.278   6.251 -0.1614  0.2274 -0.1777
  117MOL   C14223574   4.713   0.083   6.234  0.2257  0.8823  0.0982
  117MOL   O14323575   4.782   7.770   6.191  0.0387 -0.1018  0.2719
  117MOL   C14423576   4.585   0.054   6.317 -0.3707  0.3785 -0.1225
  117MOL   C14523577   4.595   7.698   6.381  0.0070 -0.0544  0.0097
  117MOL   N14623578   4.471   7.676   6.452 -0.3994 -0.0360 -0.0187
  117MOL   H14723579   4.500   0.042   6.250 -0.9613  1.1943  0.4622
  117MOL   H14823580   4.575   0.139   6.384  0.6806 -0.1662  0.7327
  117MOL   H14923581   4.628   7.612   6.322 -1.4964 -0.3442 -0.4289
  117MOL   H15023582   4.671   7.710   6.457  0.3841 -1.8698 -0.0610
  117MOL   H15123583   4.404   7.752   6.458 -2.1610 -1.8157  4.6039
  117MOL   C15223584   4.434   7.550   6.498  0.0644 -0.2685  0.6450
  117MOL   O15323585   4.494   7.448   6.463 -0.3033  0.3698  0.2592
  117MOL   C15423586   4.315   7.544   6.590 -0.2595  0.5675  0.4895
  117MOL   C15523587   4.190   7.590   6.516 -0.5310 -0.0717  0.4074
  117MOL   N15623588   4.073   7.524   6.566 -0.3524  0.1916  0.6126
  117MOL   H15723589   4.338   7.603   6.679  0.9093  0.8117  0.0303
  117MOL   H15823590   4.295   7.439   6.612  2.8435 -0.0456  0.6035
  117MOL   H15923591   4.192   7.698   6.527 -0.2859  0.2105 -2.0529
  117MOL   H16023592   4.192   7.572   6.408  3.7583  0.9147  0.2424
  117MOL   H16123593   4.021   7.468   6.500  1.9732 -0.1374 -1.0215
  117MOL   C16223594   4.019   7.552   6.684 -0.4507  0.4402  0.0066
  117MOL   O16323595   4.067   7.628   6.761  0.6485 -0.1962  0.1984
  117MOL   C16423596   3.893   7.469   6.733 -1.0796 -0.2003  0.0466
  117MOL   C16523597   3.786   7.552   6.813  0.5147  0.3221 -0.5151
  117MOL   N16623598   3.709   7.452   6.895  0.3587 -0.1314  0.5681
  117MOL   H16723599   3.926   7.385   6.794 -1.7104 -0.8059 -0.4562
  117MOL   H16823600   3.847   7.416   6.651 -0.8049 -0.2448 -0.0781
  117MOL   H16923601   3.824   7.627   6.882 -0.3960 -0.0432  0.3917
  117MOL   H17023602   3.721   7.605   6.744 -2.2098 -1.0759  0.9256
  117MOL   H17123603   3.759   7.421   6.977  0.5505 -0.0558  0.4807
  117MOL   C17223604   3.576   7.434   6.891  0.0485 -1.2132  0.2329
  117MOL   O17323605   3.505   7.484   6.807 -0.0005 -0.0622 -0.2763
  117MOL   C17423606   3.519   7.342   6.999  0.7296 -0.2886 -0.2546
  117MOL   C17523607   3.516   7.198   6.961 -0.3238  0.2738 -0.0514
  117MOL   N17623608   3.430   7.186   6.845  0.1327  0.0794 -0.7811
  117MOL   H17723609   3.414   7.372   7.008  0.2630 -1.7862 -0.6088
  117MOL   H17823610   3.570   7.364   7.093  1.8177 -1.7941 -0.4892
  117MOL   H17923611   3.616   7.164   6.934  0.4015  1.9446  0.4381
  117MOL   H18023612   3.475   7.134   7.040 -2.9516 -3.0774 -3.9313
  117MOL   H18123613   3.419   7.262   6.779  1.3743  2.7496  1.9432
  117MOL   C18223614   3.362   7.077   6.816 -0.3178 -0.5797  0.2017
  117MOL   O18323615   3.371   6.975   6.888  0.0705  0.1773  0.2883
  117MOL   C18423616   3.270   7.077   6.684  0.9654  0.6608 -0.6262
  117MOL   C18523617   3.185   7.208   6.685  0.1802 -0.2640  0.2899
  117MOL   N18623618   3.090   7.218   6.791  0.1198  0.5410 -0.5565
  117MOL   H18723619   3.210   6.987   6.676  0.9945  0.7943 -2.4736
  117MOL   H18823620   3.335   7.056   6.599 -0.6426 -3.3579 -0.9695
  117MOL   H18923621   3.249   7.296   6.688 -0.3511  0.1237  0.1796
  117MOL   H19023622   3.136   7.199   6.589  0.8038  1.8809 -0.2580
  117MOL   H19123623   3.104   7.285   6.865 -1.8834 -0.0496  0.3930
  117MOL   C19223624   2.983   7.138   6.812  0.0624  0.4953  0.6411
  117MOL   O19323625   2.951   7.057   6.726 -0.0739  0.2314 -1.1051
  117MOL   C19423626   2.904   7.147   6.943  0.1019 -0.7626  0.1848
  117MOL   C19523627   2.756   7.097   6.935  0.5633 -0.0708  0.2610
  117MOL   N19623628   2.667   7.194   6.879 -0.2104  0.3920  0.0529
  117MOL   H19723629   2.969   7.084   7.004  1.2577 -0.4298 -0.6838
  117MOL   H19823630   2.897   7.249   6.979  2.9664 -0.6689  0.6030
  117MOL   H19923631   2.756   7.012   6.868  0.6179 -0.4959  0.7916
  117MOL   H20023632   2.728   7.059   7.034 -1.7580  0.1406 -0.2775
  117MOL   H20123633   2.684   7.201   6.780 -0.8845 -1.6566 -0.2264
  117MOL   H20223634   2.572   7.158   6.877  0.5476 -1.7468  1.1784
  118MOL     C123635   2.767   6.454   5.051  0.9601 -0.5175  0.5469
  118MOL     O223636   2.879   6.488   5.011 -0.0741 -0.3000  0.4899
  118MOL     C323637   2.665   6.366   4.971  0.3418 -0.1589  0.5341
  118MOL     C423638   2.691   6.369   4.818  0.0469  0.4409  0.6485
  118MOL     N523639   2.575   6.330   4.739 -0.5360  0.0162  0.1392
  118MOL     H623640   2.569   6.418   4.980  0.2336 -0.3244  0.3454
  118MOL     H723641   2.662   6.267   5.017 -1.9747 -0.4909 -0.2285
  118MOL     H823642   2.781   6.312   4.795 -0.2339  0.1661  0.2262
  118MOL     H923643   2.714   6.472   4.789 -0.3339 -0.2887 -2.4457
  118MOL    H1023644   2.535   6.401   4.679  0.6499  1.4201  0.9602
  118MOL    H1123645   2.738   6.492   5.149  0.8854  0.8335  0.0001
  118MOL    C1223646   2.540   6.205   4.706  0.0925 -0.3070 -0.2107
  118MOL    O1323647   2.594   6.106   4.753  0.7071 -0.1727  0.8469
  118MOL    C1423648   2.435   6.206   4.593 -0.1993 -0.1294 -0.4052
  118MOL    C1523649   2.309   6.118   4.608 -0.4857 -0.1348 -0.2916
  118MOL    N1623650   2.333   5.976   4.617 -0.5938 -0.3058 -0.2019
  118MOL    H1723651   2.487   6.175   4.502 -2.0131 -1.1839 -1.1153
  118MOL    H1823652   2.400   6.305   4.564  1.1113  0.1964 -0.9114
  118MOL    H1923653   2.258   6.144   4.701 -2.6384 -0.6215 -1.2910
  118MOL    H2023654   2.240   6.147   4.528 -0.3449 -2.5543 -1.3457
  118MOL    H2123655   2.368   5.933   4.701  0.7791  0.6884 -0.2540
  118MOL    C2223656   2.269   5.892   4.531 -0.1387  0.3809 -1.0897
  118MOL    O2323657   2.208   5.928   4.429  0.2172  0.5148  0.0203
  118MOL    C2423658   2.278   5.743   4.557  0.2439 -0.9707 -0.3196
  118MOL    C2523659   2.153   5.681   4.626  0.3239 -0.0412 -0.1894
  118MOL    N2623660   2.171   5.687   4.772  0.3013  0.1438 -0.6211
  118MOL    H2723661   2.365   5.699   4.605  0.4114 -0.8514 -0.5153
  118MOL    H2823662   2.281   5.707   4.454 -1.7384 -5.0843  0.9255
  118MOL    H2923663   2.059   5.728   4.599  0.2804  0.7759  1.3207
  118MOL    H3023664   2.144   5.583   4.580  1.3760 -1.1115  1.7990
  118MOL    H3123665   2.208   5.770   4.817  0.4130  0.3802 -1.1563
  118MOL    C3223666   2.115   5.605   4.864 -0.2445 -0.0065  0.4014
  118MOL    O3323667   2.051   5.508   4.828 -0.5430  0.5342 -0.2308
  118MOL    C3423668   2.127   5.639   5.013 -0.0556  0.7701 -0.6445
  118MOL    C3523669   2.124   5.504   5.103 -0.1213 -0.3216  0.4483
  118MOL    N3623670   2.101   5.528   5.246  0.2270  0.1229  0.4098
  118MOL    H3723671   2.045   5.703   5.045 -0.9685 -2.2539  3.4395
  118MOL    H3823672   2.223   5.681   5.045 -0.3242 -1.0155  2.7792
  118MOL    H3923673   2.044   5.439   5.068  0.9503 -1.1451 -0.5090
  118MOL    H4023674   2.208   5.439   5.079  0.6131  0.3000  1.2806
  118MOL    H4123675   2.021   5.478   5.282  0.3593 -2.1221 -2.2058
  118MOL    C4223676   2.161   5.617   5.328 -0.0736 -0.2600 -0.2534
  118MOL    O4323677   2.267   5.670   5.299 -0.7369  0.2303 -0.1285
  118MOL    C4423678   2.114   5.634   5.473  0.4504 -0.1378  1.0829
  118MOL    C4523679   2.223   5.599   5.582 -0.1154 -0.4245  0.1198
  118MOL    N4623680   2.182   5.624   5.720  0.3979  0.0136  0.3671
  118MOL    H4723681   2.078   5.735   5.493 -0.7422 -0.0454 -1.3449
  118MOL    H4823682   2.018   5.582   5.472 -0.3781  1.3805 -1.3168
  118MOL    H4923683   2.267   5.501   5.566  0.1668 -0.8287  3.1193
  118MOL    H5023684   2.292   5.678   5.552 -2.8266  0.4200 -4.3306
  118MOL    H5123685   2.135   5.545   5.763  1.2355 -0.4441  0.4594
  118MOL    C5223686   2.239   5.702   5.804 -0.3670  0.0330  0.4722
  118MOL    O5323687   2.333   5.776   5.772 -0.0598  0.2568  0.3753
  118MOL    C5423688   2.187   5.695   5.952  0.1739  0.8515 -0.5351
  118MOL    C5523689   2.128   5.826   5.997 -0.4602 -0.0926  0.5731
  118MOL    N5623690   2.224   5.919   6.054  0.1612 -0.1358 -0.4587
  118MOL    H5723691   2.114   5.614   5.951  0.5581  0.4311  2.0075
  118MOL    H5823692   2.263   5.661   6.023  0.3254  1.6096 -0.3295
  118MOL    H5923693   2.048   5.814   6.070  0.9110  2.2910  2.5268
  118MOL    H6023694   2.089   5.881   5.911  0.7610 -2.1408 -1.3540
  118MOL    H6123695   2.320   5.890   6.064  0.0497  0.4163  3.1348
  118MOL    C6223696   2.189   6.042   6.100  0.1763  0.4493  0.3734
  118MOL    O6323697   2.080   6.078   6.115 -0.1891 -0.7705 -0.4877
  118MOL    C6423698   2.308   6.128   6.147 -0.0011 -0.2655 -0.1726
  118MOL    C6523699   2.442   6.069   6.194 -0.0342  0.4463 -0.0722
  118MOL    N6623700   2.521   6.051   6.076 -0.3508  0.0537 -0.7664
  118MOL    H6723701   2.324   6.187   6.057 -1.5194 -1.0687 -1.0085
  118MOL    H6823702   2.272   6.194   6.225 -1.7328  0.6244 -1.6874
  118MOL    H6923703   2.491   6.145   6.256  0.9861 -0.9158  0.8358
  118MOL    H7023704   2.428   5.973   6.243  2.6794  0.2770  0.4590
  118MOL    H7123705   2.550   6.141   6.039  2.6140 -0.1605  0.8194
  118MOL    C7223706   2.557   5.936   6.018 -0.1167 -0.0396 -0.1695
  118MOL    O7323707   2.526   5.827   6.066  0.1049  0.1449 -0.4723
  118MOL    C7423708   2.645   5.945   5.900 -0.3390  0.0133  0.2973
  118MOL    C7523709   2.712   5.814   5.866 -1.2109  0.3275  0.9898
  118MOL    N7623710   2.632   5.742   5.768 -0.0335  0.0218 -0.2492
  118MOL    H7723711   2.583   5.993   5.824  0.3205  0.5071  0.0552
  118MOL    H7823712   2.719   6.018   5.936  0.5943 -0.7681 -0.0083
  118MOL    H7923713   2.811   5.828   5.821 -2.1258  1.5771 -0.6957
  118MOL    H8023714   2.721   5.740   5.945  0.7980 -0.8539 -0.2942
  118MOL    H8123715   2.532   5.745   5.776  0.1097  1.0100  1.2344
  118MOL    C8223716   2.676   5.647   5.684  0.4135 -0.8290  0.4146
  118MOL    O8323717   2.792   5.613   5.678 -0.1343 -0.1676  0.2153
  118MOL    C8423718   2.573   5.582   5.592  0.6005 -0.0001 -0.2062
  118MOL    C8523719   2.586   5.663   5.453  0.6852  0.6465 -0.2900
  118MOL    N8623720   2.526   5.585   5.343  0.1776  0.3941  0.9155
  118MOL    H8723721   2.615   5.481   5.585 -1.7982 -1.1330  1.0828
  118MOL    H8823722   2.474   5.583   5.638  0.2482  3.8678 -0.8824
  118MOL    H8923723   2.543   5.763   5.455  1.8110  1.1677 -1.4515
  118MOL    H9023724   2.692   5.670   5.426  0.9058 -0.3341  0.2697
  118MOL    H9123725   2.427   5.592   5.324  0.6219  1.7070 -1.1439
  118MOL    C9223726   2.588   5.497   5.265 -0.3941 -0.3314  0.7214
  118MOL    O9323727   2.709   5.481   5.258 -0.6868  0.2837 -0.4546
  118MOL    C9423728   2.491   5.407   5.185 -0.0055 -0.5825 -0.0127
  118MOL    C9523729   2.555   5.275   5.133  0.1581 -0.6780 -0.6899
  118MOL    N9623730   2.649   5.213   5.228 -0.3530 -0.4359 -0.6007
  118MOL    H9723731   2.399   5.379   5.237  0.0106  0.8950  0.8303
  118MOL    H9823732   2.462   5.463   5.096  0.1135 -0.0313  0.2914
  118MOL    H9923733   2.465   5.220   5.108  0.5130 -0.7399 -1.9018
  118MOL   H10023734   2.591   5.291   5.031  1.1011  0.5247 -0.1827
  118MOL   H10123735   2.736   5.264   5.218 -0.6583  0.0992 -0.5897
  118MOL   C10223736   2.627   5.128   5.332 -0.4893  0.1950 -0.1617
  118MOL   O10323737   2.517   5.081   5.356  0.4807  0.3112 -0.1663
  118MOL   C10423738   2.745   5.084   5.418 -0.3522  1.1180  1.0489
  118MOL   C10523739   2.771   5.172   5.539  0.2271  0.7183  0.0230
  118MOL   N10623740   2.868   5.123   5.638 -0.8166 -0.6788 -0.3260
  118MOL   H10723741   2.836   5.087   5.357  0.4526 -1.2517  2.0639
  118MOL   H10823742   2.742   4.980   5.449  0.7447  0.4301 -1.0074
  118MOL   H10923743   2.791   5.275   5.510 -1.4213  1.1120  0.2035
  118MOL   H11023744   2.683   5.185   5.603  0.5650  0.4098  0.5577
  118MOL   H11123745   2.841   5.080   5.725  1.2087  0.1040  0.7343
  118MOL   C11223746   3.000   5.134   5.630  0.3531 -0.6885  0.3698
  118MOL   O11323747   3.059   5.175   5.529  0.0445 -0.5641 -0.5563
  118MOL   C11423748   3.078   5.107   5.754 -0.0840 -0.7990  0.5576
  118MOL   C11523749   3.226   5.152   5.748  0.3867 -0.0134 -0.0739
  118MOL   N11623750   3.298   5.134   5.880  0.0381 -0.0806 -0.3398
  118MOL   H11723751   3.066   5.003   5.784 -1.4586 -1.2444 -1.4704
  118MOL   H11823752   3.042   5.169   5.835 -0.1330 -1.1203  0.7803
  118MOL   H11923753   3.277   5.101   5.666 -1.8510 -2.8951  0.2654
  118MOL   H12023754   3.239   5.256   5.717  0.0850  0.5626  1.6675
  118MOL   H12123755   3.292   5.212   5.944  0.8440  0.0231 -0.3787
  118MOL   C12223756   3.370   5.035   5.927  0.1043  0.0190 -0.3927
  118MOL   O12323757   3.412   5.044   6.044 -0.1125 -0.1896  0.4630
  118MOL   C12423758   3.409   4.914   5.836  0.2676 -0.3132  0.4853
  118MOL   C12523759   3.436   4.784   5.905  0.0767 -0.0926  0.0185
  118MOL   N12623760   3.306   4.731   5.952  0.0833  0.4473  0.0013
  118MOL   H12723761   3.507   4.932   5.792  0.2856 -0.6830  0.3742
  118MOL   H12823762   3.332   4.911   5.758 -1.5280 -0.6825  2.2355
  118MOL   H12923763   3.485   4.705   5.848  0.5659 -1.8933  2.7827
  118MOL   H13023764   3.498   4.804   5.992  1.4292  0.4825 -1.0634
  118MOL   H13123765   3.234   4.722   5.881  0.3324 -0.2164 -0.1794
  118MOL   C13223766   3.274   4.696   6.080  0.1517  0.4180  0.2952
  118MOL   O13323767   3.358   4.703   6.172 -0.3065  0.5811 -0.3826
  118MOL   C13423768   3.121   4.668   6.107  0.1144  0.0885 -0.2625
  118MOL   C13523769   3.080   4.608   6.244  0.6345 -0.3806 -0.0720
  118MOL   N13623770   3.020   4.474   6.230 -0.4626 -0.8714 -0.0422
  118MOL   H13723771   3.094   4.610   6.018 -0.0274 -1.4751  0.7707
  118MOL   H13823772   3.067   4.761   6.089 -1.4616 -0.9001 -0.7892
  118MOL   H13923773   3.167   4.600   6.309  0.4987 -3.0664 -0.1754
  118MOL   H14023774   3.006   4.676   6.286  1.2392  0.1788  0.1145
  118MOL   H14123775   2.920   4.467   6.219 -0.3830 -0.2497 -1.2913
  118MOL   C14223776   3.081   4.358   6.256 -0.2270  0.4879  0.2484
  118MOL   O14323777   3.194   4.348   6.301 -0.3745 -0.1862 -0.6579
  118MOL   C14423778   3.011   4.221   6.236 -0.5291  0.2668 -0.2672
  118MOL   C14523779   3.037   4.132   6.357 -0.0781  0.1089 -0.6118
  118MOL   N14623780   2.969   4.162   6.485 -0.2324  0.6642  0.2778
  118MOL   H14723781   3.051   4.181   6.142  0.4970 -0.8218  0.6213
  118MOL   H14823782   2.902   4.234   6.234 -0.9703 -3.2334 -1.4661
  118MOL   H14923783   3.017   4.027   6.335  0.2502  0.1251 -0.9928
  118MOL   H15023784   3.144   4.122   6.374 -0.0711  1.0190 -0.0790
  118MOL   H15123785   2.895   4.230   6.481 -2.7450 -1.9611  0.4091
  118MOL   C15223786   2.985   4.104   6.599 -0.4113  0.9990 -0.6153
  118MOL   O15323787   3.076   4.018   6.610 -0.3710 -0.4621 -0.3245
  118MOL   C15423788   2.884   4.141   6.706 -0.1237  0.0370 -0.0809
  118MOL   C15523789   2.942   4.144   6.842 -0.8908  0.6895  0.3575
  118MOL   N15623790   2.860   4.205   6.940  0.4681  0.0458 -0.4853
  118MOL   H15723791   2.798   4.075   6.708  0.7511 -1.0892  1.9708
  118MOL   H15823792   2.835   4.234   6.675 -0.0289 -0.3533 -1.4305
  118MOL   H15923793   2.938   4.044   6.885 -4.8373 -0.0944 -1.6745
  118MOL   H16023794   3.047   4.172   6.852 -0.7191 -0.1369  0.9037
  118MOL   H16123795   2.806   4.147   7.002  0.1653  1.9308  1.0562
  118MOL   C16223796   2.870   4.332   6.973  0.2479  0.7768  0.0588
  118MOL   O16323797   2.941   4.410   6.907  0.3011  0.1856  0.0456
  118MOL   C16423798   2.796   4.392   7.093  0.7899 -0.0342 -0.0854
  118MOL   C16523799   2.881   4.442   7.209  0.0910 -0.2231 -0.0520
  118MOL   N16623800   2.977   4.343   7.256 -0.7056  0.0186  0.7831
  118MOL   H16723801   2.721   4.319   7.123 -0.4640  0.6047 -1.6364
  118MOL   H16823802   2.736   4.470   7.046  1.2985  0.5234  0.1787
  118MOL   H16923803   2.937   4.529   7.173 -1.9934  0.4137 -1.9068
  118MOL   H17023804   2.820   4.478   7.292 -1.6257 -2.5355 -0.2761
  118MOL   H17123805   2.947   4.259   7.303  3.1658 -1.7429  0.3330
  118MOL   C17223806   3.106   4.361   7.268 -0.7040 -0.5624  0.0678
  118MOL   O17323807   3.158   4.479   7.271 -0.6066 -0.2350  0.3498
  118MOL   C17423808   3.197   4.240   7.294 -0.8181 -0.2949  0.5050
  118MOL   C17523809   3.258   4.174   7.167 -0.0871  0.7633 -0.1457
  118MOL   N17623810   3.342   4.265   7.092 -0.1263  0.4489 -0.6312
  118MOL   H17723811   3.154   4.159   7.353 -1.8021  0.4721  0.8545
  118MOL   H17823812   3.280   4.271   7.358 -0.4075  0.9663 -0.6277
  118MOL   H17923813   3.309   4.085   7.202 -1.6820 -0.0683  0.1134
  118MOL   H18023814   3.181   4.128   7.104 -1.0755  2.3234 -0.1103
  118MOL   H18123815   3.327   4.265   6.992  1.9539 -0.3272 -0.9685
  118MOL   C18223816   3.459   4.307   7.138 -0.5683  0.2487 -0.1049
  118MOL   O18323817   3.511   4.278   7.248 -0.2934 -0.4070  0.5604
  118MOL   C18423818   3.537   4.397   7.048  0.4701 -0.4171  0.4248
  118MOL   C18523819   3.568   4.532   7.121  0.4411 -0.2294 -0.0988
  118MOL   N18623820   3.579   4.633   7.011  0.0728  0.6833  0.2389
  118MOL   H18723821   3.495   4.397   6.947  0.7654 -2.1495  0.2932
  118MOL   H18823822   3.626   4.338   7.027 -0.3024 -1.8988  1.1739
  118MOL   H18923823   3.498   4.556   7.201 -1.3702  2.4973 -2.4031
  118MOL   H19023824   3.666   4.520   7.166  0.6421  1.6203 -0.0092
  118MOL   H19123825   3.633   4.608   6.929  1.3358 -1.1456  1.6026
  118MOL   C19223826   3.575   4.759   7.030  0.3404 -0.5778  0.1128
  118MOL   O19323827   3.521   4.811   7.130 -0.1004  0.1559 -0.2593
  118MOL   C19423828   3.621   4.853   6.920  0.5264  0.5257 -0.3442
  118MOL   C19523829   3.589   5.003   6.931  0.3044 -0.1018 -0.2129
  118MOL   N19623830   3.634   5.070   7.055  0.3344  0.1755  0.6418
  118MOL   H19723831   3.729   4.843   6.914  0.3816 -0.9175 -0.7046
  118MOL   H19823832   3.575   4.822   6.826  0.3194 -1.0202  0.2581
  118MOL   H19923833   3.636   5.057   6.849  1.3492  0.4634  0.7450
  118MOL   H20023834   3.484   5.025   6.912 -0.7846 -3.1141  1.9321
  118MOL   H20123835   3.575   5.150   7.071 -0.2061 -0.6457  3.0701
  118MOL   H20223836   3.595   5.008   7.125  1.1693  2.2398  2.9992
  119MOL     C123837   4.944   0.112   4.720 -0.0599 -0.3083 -0.2729
  119MOL     O223838   5.012   0.190   4.791 -0.3854 -0.1757 -0.1461
  119MOL     C323839   4.998   7.750   4.699 -0.6726  0.0576 -0.5999
  119MOL     C423840   5.148   7.730   4.753 -0.2824  0.0970 -0.7268
  119MOL     N523841   5.242   0.035   4.684 -0.6233 -0.3046 -0.0887
  119MOL     H623842   4.990   7.716   4.596  0.8640 -0.3408 -0.6125
  119MOL     H723843   4.922   7.691   4.749 -0.7518  0.9640  0.3581
  119MOL     H823844   5.179   7.626   4.745 -1.4429 -0.1722 -1.8251
  119MOL     H923845   5.155   7.756   4.858 -0.1619  0.2385 -0.7691
  119MOL    H1023846   5.290   0.102   4.743  0.5928  0.1659 -1.5628
  119MOL    H1123847   4.846   0.121   4.672 -0.5409  1.3814  0.9932
  119MOL    C1223848   5.277   0.038   4.556  0.1844  0.2436  0.2098
  119MOL    O1323849   5.232   7.741   4.465  0.3082  0.4736  0.3862
  119MOL    C1423850   5.397   0.125   4.518  0.4755 -0.3029 -0.9222
  119MOL    C1523851   5.355   0.244   4.436 -0.1065  1.5215  0.0582
  119MOL    N1623852   5.278   0.339   4.517  0.7637  0.1038 -0.3932
  119MOL    H1723853   5.473   0.063   4.470  0.7819 -0.4234 -0.2875
  119MOL    H1823854   5.462   0.151   4.601  1.3355  0.4152 -1.8080
  119MOL    H1923855   5.437   0.304   4.396  0.8093  1.2508  1.4675
  119MOL    H2023856   5.300   0.205   4.351  2.2549 -1.4829 -0.1915
  119MOL    H2123857   5.207   0.391   4.468  1.4420 -0.2507 -1.7822
  119MOL    C2223858   5.314   0.394   4.635  0.2629 -0.2649 -1.0854
  119MOL    O2323859   5.392   0.340   4.710 -0.4011  0.4318  0.5182
  119MOL    C2423860   5.248   0.525   4.677  0.0794  0.4021  0.2613
  119MOL    C2523861   5.165   0.524   4.799  0.1485 -0.0360  0.1722
  119MOL    N2623862   5.034   0.459   4.792  0.0028 -0.0630 -0.7154
  119MOL    H2723863   5.191   0.578   4.602 -0.8901 -1.1454 -0.1228
  119MOL    H2823864   5.327   0.597   4.700  0.3651  0.0748  0.3233
  119MOL    H2923865   5.205   0.477   4.888  2.3144  0.4941 -0.5086
  119MOL    H3023866   5.156   0.625   4.839 -1.1217 -0.1501  0.2046
  119MOL    H3123867   5.023   0.358   4.791 -0.3156 -0.0413  0.4074
  119MOL    C3223868   4.917   0.525   4.782 -0.3285  0.1920  0.1884
  119MOL    O3323869   4.920   0.647   4.773  0.0921  0.3521 -0.1902
  119MOL    C3423870   4.782   0.446   4.783 -0.5333  0.2609 -0.4540
  119MOL    C3523871   4.667   0.538   4.742  0.9359  0.8048  0.7129
  119MOL    N3623872   4.570   0.447   4.675  0.4237  0.8631 -0.6331
  119MOL    H3723873   4.765   0.392   4.876 -0.8628 -1.9296 -1.7386
  119MOL    H3823874   4.805   0.372   4.706  2.8149  0.9341 -0.1452
  119MOL    H3923875   4.633   0.594   4.829 -0.1383  1.2360  0.0301
  119MOL    H4023876   4.700   0.607   4.664  0.6232 -0.3058 -0.4234
  119MOL    H4123877   4.606   0.357   4.646 -2.5159 -0.8505  0.7423
  119MOL    C4223878   4.435   0.469   4.656  0.9323  0.0923  0.3197
  119MOL    O4323879   4.383   0.575   4.697  0.5803  0.1986 -0.6770
  119MOL    C4423880   4.357   0.370   4.572 -0.0372  0.1160 -0.5454
  119MOL    C4523881   4.262   0.444   4.473  0.5207  0.0190  0.0868
  119MOL    N4623882   4.198   0.348   4.387  0.1858  0.1722  0.4982
  119MOL    H4723883   4.437   0.314   4.524  1.2004  1.5303 -0.1655
  119MOL    H4823884   4.296   0.307   4.636 -0.0570  0.6594 -0.0232
  119MOL    H4923885   4.181   0.493   4.526  2.3705  0.6160  2.4430
  119MOL    H5023886   4.315   0.520   4.415 -1.2090  0.2377 -1.2643
  119MOL    H5123887   4.181   0.256   4.425 -2.2846  0.4682  0.1669
  119MOL    C5223888   4.140   0.369   4.266 -0.1623  0.4547  0.5430
  119MOL    O5323889   4.140   0.480   4.210  0.3517  0.2828 -0.3979
  119MOL    C5423890   4.074   0.251   4.201 -0.4274 -0.5670  0.3601
  119MOL    C5523891   4.035   0.269   4.055 -0.1949  0.3210 -0.4510
  119MOL    N5623892   3.980   0.150   3.999  0.1920  0.0843 -0.5156
  119MOL    H5723893   4.130   0.160   4.225  1.7282  0.6921  0.2324
  119MOL    H5823894   3.987   0.231   4.263 -1.6498 -0.4751 -1.2927
  119MOL    H5923895   4.128   0.287   4.002  1.2216 -2.7661  0.8478
  119MOL    H6023896   3.967   0.353   4.051 -0.6422 -0.0888 -1.5246
  119MOL    H6123897   3.881   0.136   4.012  0.2946  1.6413  2.5637
  119MOL    C6223898   4.051   0.049   3.949  0.1561 -0.3987  0.0057
  119MOL    O6323899   4.173   0.041   3.946 -0.4264 -0.7767 -0.1357
  119MOL    C6423900   3.957   7.720   3.886 -0.1514 -0.4721  0.4843
  119MOL    C6523901   3.925   7.594   3.974  0.4103 -0.4491  0.1765
  119MOL    N6623902   3.833   7.610   4.085 -0.3805 -1.4349 -0.3475
  119MOL    H6723903   3.875   7.765   3.831 -0.5002  1.9101  2.7887
  119MOL    H6823904   4.020   7.678   3.807  0.1096  0.5727  0.1238
  119MOL    H6923905   3.886   7.509   3.918 -0.3205 -0.3464  0.5194
  119MOL    H7023906   4.021   7.560   4.014  0.5227 -0.9793 -0.5288
  119MOL    H7123907   3.734   7.624   4.070  0.0849  1.3586 -1.1115
  119MOL    C7223908   3.868   7.672   4.197 -0.1600  0.0381  0.3623
  119MOL    O7323909   3.987   7.694   4.223  0.4336 -0.2516 -0.1377
  119MOL    C7423910   3.748   7.712   4.283 -1.3034 -0.7495  0.4982
  119MOL    C7523911   3.797   0.039   4.389  0.8410  0.1550 -0.0334
  119MOL    N7623912   3.697   0.046   4.491  0.3367 -0.3662 -0.6397
  119MOL    H7723913   3.680   7.766   4.217 -1.1061 -0.1237  0.8108
  119MOL    H7823914   3.713   7.617   4.325  0.6616 -2.2288 -1.0970
  119MOL    H7923915   3.890   0.012   4.439  0.5352 -0.7642  0.0464
  119MOL    H8023916   3.796   0.135   4.338  2.5221 -0.0405 -0.4873
  119MOL    H8123917   3.639   0.128   4.504  1.1673  0.3687 -1.4717
  119MOL    C8223918   3.687   7.737   4.586  0.4568  0.2967  0.6776
  119MOL    O8323919   3.723   7.620   4.578 -0.0410  0.0452 -0.5487
  119MOL    C8423920   3.611   0.005   4.706  0.6064  0.3732  0.6639
  119MOL    C8523921   3.467   0.035   4.672 -0.3689  0.0088  0.4624
  119MOL    N8623922   3.447   0.154   4.600 -0.1602 -0.2174  0.2181
  119MOL    H8723923   3.623   7.709   4.784 -1.0874 -1.9924 -1.3044
  119MOL    H8823924   3.661   0.090   4.751  1.0913  1.1446 -1.2921
  119MOL    H8923925   3.418   7.729   4.628  0.6437  1.0647 -2.8835
  119MOL    H9023926   3.410   0.050   4.764  1.3603 -0.6050  1.6678
  119MOL    H9123927   3.397   0.152   4.512 -0.7864  0.2817  0.5559
  119MOL    C9223928   3.458   0.283   4.647  0.1905  0.3716 -0.4768
  119MOL    O9323929   3.508   0.319   4.753 -0.2651 -0.0013  0.4306
  119MOL    C9423930   3.406   0.395   4.561  0.4440 -0.2555 -0.5072
  119MOL    C9523931   3.511   0.508   4.531  0.1688  0.8737  0.2702
  119MOL    N9623932   3.571   0.487   4.398  0.0453  0.2695 -0.6175
  119MOL    H9723933   3.374   0.345   4.470 -0.7856  1.1757 -0.8711
  119MOL    H9823934   3.323   0.448   4.609  0.8361 -0.4619  0.4042
  119MOL    H9923935   3.454   0.601   4.518  1.0259  1.2845 -0.6989
  119MOL   H10023936   3.579   0.516   4.615  1.5619 -0.8511 -0.6691
  119MOL   H10123937   3.552   0.555   4.326 -0.5486  1.8882  1.0134
  119MOL   C10223938   3.667   0.400   4.376 -0.1555 -0.6749  0.3284
  119MOL   O10323939   3.710   0.322   4.462 -0.3575  0.4447  0.1219
  119MOL   C10423940   3.715   0.391   4.233  0.2340  0.1235 -0.5104
  119MOL   C10523941   3.606   0.312   4.155  0.3017  0.2156  0.0778
  119MOL   N10623942   3.631   0.318   4.012  0.2020 -0.7779 -1.0098
  119MOL   H10723943   3.811   0.339   4.229 -0.7272 -1.8592  1.2946
  119MOL   H10823944   3.726   0.492   4.193 -0.2986  0.3119 -0.1839
  119MOL   H10923945   3.609   0.210   4.191 -2.6841  0.3066  0.7209
  119MOL   H11023946   3.505   0.346   4.178 -0.3398 -1.2200 -0.5599
  119MOL   H11123947   3.613   0.400   3.956  2.5451 -1.6097 -3.0553
  119MOL   C11223948   3.678   0.217   3.939 -0.0301 -0.1237 -0.5602
  119MOL   O11323949   3.708   0.105   3.984  0.0703 -0.2685 -0.4750
  119MOL   C11423950   3.699   0.243   3.788  0.1448 -0.2650  0.0235
  119MOL   C11523951   3.618   0.142   3.708  0.2193 -0.4824  0.0174
  119MOL   N11623952   3.631   0.161   3.566  0.5312 -0.3077  0.1664
  119MOL   H11723953   3.804   0.230   3.761  0.4298  0.0582  0.9332
  119MOL   H11823954   3.679   0.350   3.779  0.3108 -0.1930  0.4725
  119MOL   H11923955   3.654   0.045   3.741  1.7185 -0.5569 -1.7686
  119MOL   H12023956   3.516   0.149   3.745  0.7705  3.1172  1.0108
  119MOL   H12123957   3.541   0.172   3.522 -0.2835 -1.8020  1.3779
  119MOL   C12223958   3.743   0.135   3.494  0.0501  0.2482  0.5301
  119MOL   O12323959   3.846   0.088   3.543 -0.7422 -0.0383  0.0162
  119MOL   C12423960   3.734   0.159   3.337  0.9989 -0.5826 -1.2142
  119MOL   C12523961   3.725   0.029   3.261  0.3955  0.2473  0.0457
  119MOL   N12623962   3.592   7.757   3.239 -0.0867 -0.2993  0.1839
  119MOL   H12723963   3.824   0.218   3.320 -0.3196  2.1154  0.8471
  119MOL   H12823964   3.643   0.218   3.322  1.5483  0.6876  0.2481
  119MOL   H12923965   3.766   0.040   3.161  2.2584 -0.1366  0.7504
  119MOL   H13023966   3.783   7.732   3.311  1.4266 -0.0737 -1.6225
  119MOL   H13123967   3.554   7.763   3.146 -1.6532  0.0887  0.8443
  119MOL   C13223968   3.525   7.686   3.328  0.0707  0.5970 -0.0693
  119MOL   O13323969   3.569   7.673   3.442 -0.0485 -0.4454  0.1444
  119MOL   C13423970   3.377   7.641   3.291 -0.4059  0.8968 -0.1723
  119MOL   C13523971   3.275   7.659   3.407 -0.5050 -0.2787  0.9250
  119MOL   N13623972   3.222   0.011   3.417  0.0168  0.0201 -0.0158
  119MOL   H13723973   3.377   7.536   3.263  3.2799  0.5014  1.0140
  119MOL   H13823974   3.330   7.697   3.210 -0.9458 -0.8051 -1.0597
  119MOL   H13923975   3.192   7.591   3.396 -0.5887 -0.2081  1.1224
  119MOL   H14023976   3.338   7.634   3.492 -1.0709 -1.9511  0.8677
  119MOL   H14123977   3.195   0.042   3.325  0.0076 -1.2220 -0.4395
  119MOL   C14223978   3.231   0.091   3.521 -0.5149 -0.2537  0.7435
  119MOL   O14323979   3.279   0.054   3.627  0.0017 -0.2083 -0.0302
  119MOL   C14423980   3.180   0.230   3.506  0.3542 -0.0395  0.1754
  119MOL   C14523981   3.220   0.327   3.625 -0.8295 -0.3570  0.6774
  119MOL   N14623982   3.155   0.457   3.615 -0.3272 -0.5208  0.0816
  119MOL   H14723983   3.077   0.224   3.471 -0.0887 -1.1959  1.6617
  119MOL   H14823984   3.224   0.274   3.417  0.2138 -1.6047 -0.6889
  119MOL   H14923985   3.192   0.280   3.719 -0.0976 -0.7956  0.6786
  119MOL   H15023986   3.328   0.337   3.619 -0.9861  0.0791 -1.8824
  119MOL   H15123987   3.112   0.478   3.527 -0.5437  0.6348  0.4603
  119MOL   C15223988   3.189   0.565   3.690  0.0851 -0.0288 -0.4725
  119MOL   O15323989   3.265   0.564   3.785 -0.1323  0.1821 -0.1735
  119MOL   C15423990   3.107   0.687   3.643  0.3511  0.5324  0.3947
  119MOL   C15523991   3.127   0.820   3.721 -0.4560  0.0594  0.6984
  119MOL   N15623992   3.037   0.817   3.834 -0.0202 -0.2713  0.0211
  119MOL   H15723993   3.002   0.659   3.647 -0.0220  1.3067 -2.9140
  119MOL   H15823994   3.125   0.705   3.537 -0.9660 -0.4444 -0.0015
  119MOL   H15923995   3.234   0.833   3.740  0.4546 -1.5960 -2.7778
  119MOL   H16023996   3.094   0.901   3.657  0.6705 -0.1338 -0.1539
  119MOL   H16123997   2.978   0.737   3.854 -0.3484 -0.0800 -0.1803
  119MOL   C16223998   3.022   0.918   3.914 -0.1559  0.7844  0.0488
  119MOL   O16323999   3.080   1.026   3.899  0.5757 -0.0970  0.0499
  119MOL   C16424000   2.925   0.894   4.026 -0.2711  0.1291 -0.4135
  119MOL   C16524001   2.942   1.006   4.132 -0.5959 -0.1300  0.1028
  119MOL   N16624002   2.887   0.974   4.263 -0.7625 -0.6732 -0.0481
  119MOL   H16724003   2.937   0.795   4.069 -0.0272 -0.0325 -0.8484
  119MOL   H16824004   2.825   0.899   3.984  0.3658 -0.7794 -2.1151
  119MOL   H16924005   3.048   1.020   4.154 -0.6388 -0.1624  0.3294
  119MOL   H17024006   2.908   1.102   4.091 -0.8920 -0.5434 -0.6412
  119MOL   H17124007   2.955   0.948   4.333  1.8693  3.6799 -0.7755
  119MOL   C17224008   2.759   0.973   4.293  0.5784  0.5843 -0.5027
  119MOL   O17324009   2.670   1.016   4.222 -0.9511 -0.6572  0.1537
  119MOL   C17424010   2.728   0.881   4.414  0.4040 -1.0221  0.8016
  119MOL   C17524011   2.576   0.906   4.456 -0.0673 -0.0786 -0.2339
  119MOL   N17624012   2.544   0.861   4.589  0.2045 -0.0985 -0.0496
  119MOL   H17724013   2.795   0.896   4.499  0.1971  1.4722  0.5759
  119MOL   H17824014   2.727   0.773   4.397 -1.9161 -1.3590  2.8064
  119MOL   H17924015   2.548   1.010   4.447  1.5087  0.4071  0.2907
  119MOL   H18024016   2.507   0.874   4.378  1.1882  2.7773 -2.5953
  119MOL   H18124017   2.615   0.836   4.657  2.6002  1.3116 -1.9471
  119MOL   C18224018   2.415   0.849   4.626  0.4128  0.0958 -0.0984
  119MOL   O18324019   2.319   0.883   4.555  0.4686 -0.2936  0.1411
  119MOL   C18424020   2.380   0.808   4.767 -0.2359 -0.0664  0.0386
  119MOL   C18524021   2.298   0.679   4.765  0.3732  0.0945 -0.3185
  119MOL   N18624022   2.372   0.561   4.794  0.0636 -0.2694  0.3096
  119MOL   H18724023   2.317   0.889   4.802 -1.3406 -1.5304  1.5504
  119MOL   H18824024   2.475   0.813   4.821 -0.5022 -1.9633  0.7330
  119MOL   H18924025   2.224   0.684   4.845  0.3221 -2.5056 -0.1827
  119MOL   H19024026   2.258   0.669   4.664 -1.4100  0.3529  0.3360
  119MOL   H19124027   2.369   0.489   4.723  3.5051 -0.5054  0.3269
  119MOL   C19224028   2.424   0.523   4.910  0.1721 -0.4798  0.1529
  119MOL   O19324029   2.414   0.585   5.014 -0.4806  0.1236  0.0847
  119MOL   C19424030   2.493   0.388   4.907  0.7538 -0.2473 -0.2471
  119MOL   C19524031   2.651   0.383   4.899 -0.5901 -0.1243  0.1960
  119MOL   N19624032   2.717   0.441   5.012  0.0592  0.9318  0.2782
  119MOL   H19724033   2.451   0.327   4.987 -0.2499 -0.5482 -0.9927
  119MOL   H19824034   2.456   0.336   4.819  0.8695  0.2334 -0.5850
  119MOL   H19924035   2.679   0.277   4.902  0.1857 -0.0567 -3.0665
  119MOL   H20024036   2.674   0.429   4.803  0.4709 -3.8572 -1.4269
  119MOL   H20124037   2.810   0.457   4.975 -0.6039  0.8369 -1.5011
  119MOL   H20224038   2.683   0.533   5.037 -1.8061 -0.0425  1.4405
  120MOL     C124039   1.537   4.617   7.112  0.4917 -0.5608 -0.3578
  120MOL     O224040   1.496   4.676   7.210 -0.0374 -0.1207 -0.3053
  120MOL     C324041   1.583   4.690   6.986 -0.4938  0.1625  0.0949
  120MOL     C424042   1.714   4.759   7.002 -0.0259  0.5200 -0.4794
  120MOL     N524043   1.833   4.671   7.010  0.2641 -0.6652  0.0040
  120MOL     H624044   1.502   4.753   6.949  0.4594  1.5417  0.3124
  120MOL     H724045   1.594   4.612   6.911  0.0282  1.0274 -0.7492
  120MOL     H824046   1.702   4.831   7.083 -0.1459 -1.6230  1.5033
  120MOL     H924047   1.735   4.830   6.923  0.9423  0.0970 -0.6013
  120MOL    H1024048   1.863   4.641   7.102  0.8363  0.8594  0.3341
  120MOL    H1124049   1.557   4.510   7.109 -2.3554 -1.1900  1.4081
  120MOL    C1224050   1.894   4.626   6.898 -0.5880 -0.7940  0.4894
  120MOL    O1324051   1.862   4.665   6.784  0.5639  0.2488  0.0663
  120MOL    C1424052   2.006   4.523   6.914 -0.3305  0.7199  0.1128
  120MOL    C1524053   2.107   4.505   6.801  0.4588 -0.1264  0.1941
  120MOL    N1624054   2.240   4.471   6.845 -0.0018  0.4763 -0.2948
  120MOL    H1724055   1.944   4.434   6.930  0.8537  0.1144  1.4783
  120MOL    H1824056   2.060   4.539   7.008 -1.3055 -0.7577  0.9500
  120MOL    H1924057   2.071   4.425   6.736 -0.1826  0.2398  0.0971
  120MOL    H2024058   2.120   4.590   6.734  0.1420 -1.0676 -1.0743
  120MOL    H2124059   2.286   4.546   6.896 -0.9431  1.4746 -0.9117
  120MOL    C2224060   2.307   4.354   6.847 -0.3585 -0.1456 -0.1910
  120MOL    O2324061   2.255   4.256   6.803  0.2009  0.2334  0.0942
  120MOL    C2424062   2.442   4.333   6.918  0.0142 -0.3245 -0.0469
  120MOL    C2524063   2.423   4.245   7.042 -0.3315  0.2028  0.0706
  120MOL    N2624064   2.403   4.099   7.011  0.4474 -0.6408 -0.3913
  120MOL    H2724065   2.481   4.431   6.944 -1.1658  0.8934 -2.6955
  120MOL    H2824066   2.520   4.292   6.854 -0.1087 -0.4310 -0.1317
  120MOL    H2924067   2.504   4.259   7.113 -1.1673 -1.3453  1.3709
  120MOL    H3024068   2.338   4.282   7.100 -0.6047 -2.2074  1.2840
  120MOL    H3124069   2.315   4.070   6.969  0.5881 -0.5089 -0.7800
  120MOL    C3224070   2.504   4.011   7.014 -0.2065  0.0792  0.5802
  120MOL    O3324071   2.615   4.030   7.066 -0.1176 -0.4715  0.5003
  120MOL    C3424072   2.478   3.870   6.957  0.4142  0.4657  0.3075
  120MOL    C3524073   2.481   3.754   7.054 -0.3089 -0.3589  0.2084
  120MOL    N3624074   2.368   3.752   7.151 -0.5136  0.0586 -0.4368
  120MOL    H3724075   2.541   3.858   6.869 -0.8930 -1.1276 -0.4441
  120MOL    H3824076   2.381   3.877   6.908  1.6407  1.7074 -2.0639
  120MOL    H3924077   2.475   3.670   6.984  0.6998  0.0545 -0.3791
  120MOL    H4024078   2.580   3.756   7.100  0.8938  0.5742 -2.3415
  120MOL    H4124079   2.281   3.710   7.122  0.1935 -1.5631 -0.2536
  120MOL    C4224080   2.376   3.795   7.279 -0.7695 -0.4564  0.1922
  120MOL    O4324081   2.473   3.852   7.323 -0.5755 -0.0459  0.3394
  120MOL    C4424082   2.244   3.804   7.358 -0.9380 -0.0135 -0.1773
  120MOL    C4524083   2.245   3.931   7.454  0.4350  0.2839 -0.5384
  120MOL    N4624084   2.111   3.966   7.504  0.3903 -0.1073  0.5514
  120MOL    H4724085   2.172   3.807   7.276 -0.8285 -1.8620 -0.3828
  120MOL    H4824086   2.231   3.715   7.420 -0.3609  0.3307  0.4499
  120MOL    H4924087   2.314   3.921   7.538  0.4803  1.9245 -0.3547
  120MOL    H5024088   2.277   4.020   7.399  1.7910  0.9511  1.2765
  120MOL    H5124089   2.033   3.906   7.480  0.2995 -0.7118  2.3040
  120MOL    C5224090   2.086   4.093   7.551  0.5824  0.0754 -0.0201
  120MOL    O5324091   2.164   4.186   7.544  0.3833  0.5270  0.6249
  120MOL    C5424092   1.941   4.122   7.604  0.8691 -0.1824  0.3778
  120MOL    C5524093   1.925   4.265   7.657  0.4369 -0.1563 -0.2628
  120MOL    N5624094   1.983   4.288   0.014 -0.0750 -0.1573 -0.3948
  120MOL    H5724095   1.878   4.111   7.516  1.2282  0.9408 -0.0169
  120MOL    H5824096   1.919   4.050   7.683  0.8949  0.2970  0.8248
  120MOL    H5924097   1.820   4.293   7.664  0.3347 -0.9632  2.1452
  120MOL    H6024098   1.970   4.338   7.589 -2.8347  2.7382  0.5779
  120MOL    H6124099   2.007   4.207   0.070  0.6376  0.0414 -0.4102
  120MOL    C6224100   2.016   4.406   0.064  0.1073  0.2385 -0.4812
  120MOL    O6324101   2.020   4.512   7.777  0.0825  0.2609  0.0505
  120MOL    C6424102   2.035   4.406   0.219  0.4184 -0.6553 -0.0237
  120MOL    C6524103   2.142   4.500   0.265 -0.7047 -0.4196 -0.5826
  120MOL    N6624104   2.164   4.491   0.412  0.0715 -0.0060  0.6121
  120MOL    H6724105   1.950   4.452   0.271 -0.5434 -0.0554 -2.0746
  120MOL    H6824106   2.060   4.305   0.252  1.2191 -0.1647  0.8906
  120MOL    H6924107   2.235   4.468   0.219 -0.3648  1.3908 -1.1764
  120MOL    H7024108   2.137   4.607   0.244 -0.9328 -0.0364  1.3023
  120MOL    H7124109   2.112   4.565   0.458 -1.0543  0.5749 -1.4799
  120MOL    C7224110   2.248   4.413   0.482 -0.2726 -0.0887 -0.9322
  120MOL    O7324111   2.317   4.322   0.433 -0.0914  0.6592 -0.3091
  120MOL    C7424112   2.257   4.445   0.632  0.1049 -0.2626 -0.6969
  120MOL    C7524113   2.378   4.392   0.704 -0.2038 -0.2510  0.0790
  120MOL    N7624114   2.390   4.435   0.844  0.6716  0.4252 -0.2261
  120MOL    H7724115   2.257   4.554   0.639 -2.7792 -0.1526 -1.5748
  120MOL    H7824116   2.163   4.403   0.667 -0.0395 -0.6212 -1.5102
  120MOL    H7924117   2.360   4.286   0.723 -1.6102  0.1038  0.7697
  120MOL    H8024118   2.473   4.395   0.650  0.6178 -0.8846  1.4476
  120MOL    H8124119   2.311   4.424   0.907 -0.5938  1.6312 -1.5841
  120MOL    C8224120   2.492   4.504   0.895  0.3927  0.2147 -0.6125
  120MOL    O8324121   2.599   4.521   0.833 -0.6718 -0.2947  0.4831
  120MOL    C8424122   2.485   4.560   1.042  0.9442  0.1740 -0.2003
  120MOL    C8524123   2.582   4.676   1.076 -0.1877  0.3931 -0.0102
  120MOL    N8624124   2.578   4.720   1.221  0.5778 -0.2220 -0.0957
  120MOL    H8724125   2.386   4.599   1.065  1.7268  2.9415 -1.3404
  120MOL    H8824126   2.498   4.474   1.108 -0.7900  1.1403  1.4734
  120MOL    H8924127   2.685   4.651   1.051 -0.1439 -1.0949  1.5008
  120MOL    H9024128   2.546   4.760   1.016 -5.0059 -0.9212  0.7897
  120MOL    H9124129   2.491   4.713   1.271 -0.1944 -0.5438 -1.4518
  120MOL    C9224130   2.659   4.813   1.275  0.0519 -0.0172 -0.0807
  120MOL    O9324131   2.751   4.862   1.212  0.1273 -0.1639  0.2465
  120MOL    C9424132   2.609   4.884   1.398  0.4573 -0.2924  0.3167
  120MOL    C9524133   2.619   4.807   1.530 -0.3205  0.6605 -0.3766
  120MOL    N9624134   2.751   4.779   1.573 -0.0468  0.2566  0.5279
  120MOL    H9724135   2.662   4.979   1.392 -0.9543  0.6340  2.0347
  120MOL    H9824136   2.502   4.897   1.385  0.7174 -0.8003 -2.6706
  120MOL    H9924137   2.558   4.854   1.607 -0.2365 -1.3005  0.9291
  120MOL   H10024138   2.569   4.711   1.513 -0.0789  0.5935 -0.7192
  120MOL   H10124139   2.827   4.839   1.546 -1.5485  0.6765 -3.0385
  120MOL   C10224140   2.780   4.692   1.666  0.4867 -0.2285 -0.3846
  120MOL   O10324141   2.696   4.621   1.725  0.0392  0.4689  0.1978
  120MOL   C10424142   2.931   4.699   1.715 -0.1701 -0.2800  0.5556
  120MOL   C10524143   2.957   4.781   1.843 -0.1911 -0.0376 -0.5703
  120MOL   N10624144   2.865   4.753   1.958 -0.1537  0.1809  0.2620
  120MOL   H10724145   2.985   4.754   1.639  0.0988 -0.6147  0.5034
  120MOL   H10824146   2.981   4.602   1.720  0.9491  0.3663  2.4071
  120MOL   H10924147   3.062   4.762   1.865 -0.2468 -1.0524 -1.1501
  120MOL   H11024148   2.953   4.889   1.830  0.6540 -0.0158 -0.6448
  120MOL   H11124149   2.801   4.675   1.951 -0.6150  0.6495 -0.8094
  120MOL   C11224150   2.854   4.834   2.066  0.2442  0.3842 -0.4683
  120MOL   O11324151   2.935   4.925   2.092 -0.2373 -0.4061  0.1351
  120MOL   C11424152   2.720   4.804   2.144  0.3209 -0.3031 -0.3617
  120MOL   C11524153   2.631   4.928   2.170  1.0643  0.0390  0.2730
  120MOL   N11624154   2.703   5.038   2.236  0.2977  0.1237  0.3299
  120MOL   H11724155   2.735   4.760   2.243 -1.4694 -0.3868 -0.1131
  120MOL   H11824156   2.669   4.723   2.091  0.3413 -0.3471 -0.3134
  120MOL   H11924157   2.592   4.974   2.079  1.5037  1.2199  0.6695
  120MOL   H12024158   2.544   4.904   2.231  0.9672  0.6995  0.4055
  120MOL   H12124159   2.793   5.032   2.281  1.0746  1.9608 -0.9522
  120MOL   C12224160   2.645   5.154   2.262  0.5776 -0.7726  0.1549
  120MOL   O12324161   2.539   5.181   2.208 -0.3685 -0.0644  0.0748
  120MOL   C12424162   2.724   5.250   2.344 -0.6531  0.2322 -0.3112
  120MOL   C12524163   2.644   5.338   2.446 -0.7790  0.4092  0.0256
  120MOL   N12624164   2.605   5.263   2.566  0.0224  0.4716 -0.2540
  120MOL   H12724165   2.787   5.312   2.282 -1.0891  0.0539 -0.9362
  120MOL   H12824166   2.791   5.188   2.404  2.6498  1.9777 -2.0699
  120MOL   H12924167   2.700   5.429   2.471  0.0649 -0.3004  0.7772
  120MOL   H13024168   2.553   5.389   2.414 -1.0229  1.1339  1.7628
  120MOL   H13124169   2.590   5.164   2.558  0.2861  0.2705  1.5842
  120MOL   C13224170   2.553   5.308   2.681 -0.2234 -0.4174 -0.0080
  120MOL   O13324171   2.561   5.426   2.704  0.0056 -0.3914  0.3105
  120MOL   C13424172   2.501   5.209   2.787 -0.3978  0.5373 -0.4048
  120MOL   C13524173   2.602   5.120   2.853  0.2350 -0.9980 -0.6278
  120MOL   N13624174   2.704   5.192   2.926  0.2634 -0.3984  0.0864
  120MOL   H13724175   2.427   5.145   2.739 -1.2200  0.3598  1.0761
  120MOL   H13824176   2.453   5.272   2.861  1.1773 -0.9617  1.9425
  120MOL   H13924177   2.557   5.039   2.912  1.9708 -2.1605 -0.8574
  120MOL   H14024178   2.662   5.073   2.774 -0.2912  0.0858 -1.6845
  120MOL   H14124179   2.790   5.218   2.879 -0.1946 -0.1329 -0.6084
  120MOL   C14224180   2.690   5.261   3.032  0.1106  0.3857  0.9990
  120MOL   O14324181   2.599   5.249   3.111  0.2882 -0.1234  0.1470
  120MOL   C14424182   2.808   5.352   3.070  0.0287  0.3490  0.1250
  120MOL   C14524183   2.784   5.502   3.048 -0.7488  0.4996 -0.1200
  120MOL   N14624184   2.792   5.537   2.909  0.4282 -0.9081  0.1763
  120MOL   H14724185   2.891   5.325   3.005  0.5546  1.3118  0.3944
  120MOL   H14824186   2.835   5.325   3.172  2.6521 -2.5941 -1.2602
  120MOL   H14924187   2.692   5.530   3.100 -1.2789 -3.1246  0.9830
  120MOL   H15024188   2.854   5.559   3.109 -0.6107 -1.9200  2.0609
  120MOL   H15124189   2.716   5.509   2.848 -0.6053  1.0075  0.5344
  120MOL   C15224190   2.884   5.607   2.853  0.6892 -0.1044 -0.6022
  120MOL   O15324191   2.964   5.679   2.908 -0.7459 -0.4985  0.1298
  120MOL   C15424192   2.879   5.603   2.699 -0.1090 -0.8369  0.7078
  120MOL   C15524193   2.931   5.467   2.641  0.9667  0.1405 -0.3951
  120MOL   N15624194   3.054   5.415   2.704  0.6661  0.3918  0.2034
  120MOL   H15724195   2.938   5.686   2.660 -0.3742 -1.7375 -1.6914
  120MOL   H15824196   2.777   5.610   2.662  0.7971  1.4142 -1.5526
  120MOL   H15924197   2.852   5.392   2.638 -0.0660  1.2394 -1.4003
  120MOL   H16024198   2.952   5.478   2.535  0.8786  1.0418 -0.3211
  120MOL   H16124199   3.137   5.471   2.714  0.1687  1.0953  0.4031
  120MOL   C16224200   3.063   5.298   2.770 -0.8369 -0.0436 -0.2368
  120MOL   O16324201   2.966   5.219   2.797  0.7495  0.1961 -0.3552
  120MOL   C16424202   3.205   5.263   2.810  0.2467 -0.3732  0.5772
  120MOL   C16524203   3.220   5.247   2.964  0.3678  0.1795 -0.2261
  120MOL   N16624204   3.241   5.374   3.032 -0.3922  0.4975 -0.0798
  120MOL   H16724205   3.270   5.344   2.779  2.0360 -1.6234  0.9623
  120MOL   H16824206   3.225   5.172   2.753 -0.3869 -0.9782  1.3146
  120MOL   H16924207   3.121   5.211   2.992 -0.2460  2.6676  0.9656
  120MOL   H17024208   3.286   5.169   3.001 -0.9886  0.1948  2.2998
  120MOL   H17124209   3.272   5.452   2.977  0.1430  1.1492  1.1219
  120MOL   C17224210   3.214   5.403   3.157 -0.0361  0.1451 -0.0232
  120MOL   O17324211   3.151   5.329   3.229  0.5483  0.5423 -0.6783
  120MOL   C17424212   3.281   5.530   3.210 -0.5369  0.2604  0.3976
  120MOL   C17524213   3.258   5.562   3.364  0.1101  0.8884  0.2677
  120MOL   N17624214   3.312   5.468   3.464 -0.4805 -0.3775  0.3410
  120MOL   H17724215   3.235   5.616   3.161 -1.9456  1.2210  3.2899
  120MOL   H17824216   3.388   5.520   3.189 -0.2752  1.0564  1.3060
  120MOL   H17924217   3.282   5.667   3.379 -0.0661  0.9082  0.4103
  120MOL   H18024218   3.151   5.547   3.379  0.1206  1.1683  0.6307
  120MOL   H18124219   3.251   5.391   3.487 -0.4323  0.1365  2.2825
  120MOL   C18224220   3.411   5.499   3.546  0.6115  0.2720 -0.1894
  120MOL   O18324221   3.485   5.599   3.534  0.3133  0.3509  0.5711
  120MOL   C18424222   3.412   5.407   3.665 -0.6207 -0.7638 -0.0805
  120MOL   C18524223   3.551   5.383   3.726  0.2485  0.1475 -0.8704
  120MOL   N18624224   3.559   5.256   3.806 -0.1753 -0.9034  0.0992
  120MOL   H18724225   3.351   5.319   3.644 -2.6837  0.6981 -0.4374
  120MOL   H18824226   3.344   5.454   3.736  0.4151  0.3776  0.1763
  120MOL   H18924227   3.614   5.381   3.637 -1.8872  0.9823 -2.4173
  120MOL   H19024228   3.580   5.474   3.779  2.2556 -0.1832 -1.3398
  120MOL   H19124229   3.577   5.174   3.750 -1.2123 -0.8759 -0.2885
  120MOL   C19224230   3.523   5.249   3.936  0.6307 -0.5069 -0.1718
  120MOL   O19324231   3.497   5.354   3.999  0.1133 -0.3598 -0.5746
  120MOL   C19424232   3.515   5.114   4.006 -0.5245  0.2523 -0.6954
  120MOL   C19524233   3.372   5.050   3.996 -1.1571 -0.1402  0.7443
  120MOL   N19624234   3.317   5.020   3.863 -0.0770  0.1356  0.5117
  120MOL   H19724235   3.582   5.041   3.961 -0.8950 -0.1254 -0.6389
  120MOL   H19824236   3.542   5.135   4.109 -1.1107  1.5075 -0.7804
  120MOL   H19924237   3.364   4.956   4.051  0.8342 -0.1232  1.0841
  120MOL   H20024238   3.309   5.120   4.051 -0.2963  0.4325  0.9903
  120MOL   H20124239   3.316   5.100   3.801 -2.3421 -0.5694 -0.4226
  120MOL   H20224240   3.226   4.975   3.867 -0.4006  0.4237 -2.2782
  121MOL     C124241   5.828   2.979   1.345  0.2181 -0.1152  0.5985
  121MOL     O224242   5.816   2.872   1.399 -0.8175 -0.3177 -0.0002
  121MOL     C324243   5.879   3.009   1.207 -0.3278  0.1229 -0.4985
  121MOL     C424244   5.836   2.919   1.091  0.0163 -0.6526  0.3618
  121MOL     N524245   5.874   2.780   1.108  0.8430  0.4113  0.7978
  121MOL     H624246   5.987   3.014   1.198 -0.3925  0.0103 -1.3798
  121MOL     H724247   5.843   3.112   1.203 -0.5087  0.0391 -1.0842
  121MOL     H824248   5.865   2.959   0.994  0.8725  0.5251  1.0941
  121MOL     H924249   5.727   2.915   1.088 -0.1116  0.9429  1.9367
  121MOL    H1024250   5.815   2.705   1.077  0.4857  1.5489 -1.3214
  121MOL    H1124251   5.802   3.064   1.408  1.4926 -0.3355  1.4286
  121MOL    C1224252   6.001   2.742   1.122  0.5458 -0.4848 -0.4035
  121MOL    O1324253   6.091   2.825   1.121 -0.0474 -0.4893 -0.0037
  121MOL    C1424254   6.029   2.591   1.131 -0.0451 -0.1344 -0.1166
  121MOL    C1524255   5.984   2.532   1.266 -0.3897  0.3480  1.0052
  121MOL    N1624256   5.891   2.423   1.254  0.9290  0.0295 -0.8052
  121MOL    H1724257   6.132   2.562   1.113  0.3724  1.5120 -0.3847
  121MOL    H1824258   5.990   2.545   1.041  0.9902  1.2182 -1.2645
  121MOL    H1924259   6.071   2.493   1.319 -0.5329 -1.0186  0.2616
  121MOL    H2024260   5.943   2.607   1.334 -0.7917  1.2201 -0.1788
  121MOL    H2124261   5.923   2.327   1.252  1.0447  0.0364  0.4300
  121MOL    C2224262   5.757   2.445   1.252 -0.1135  0.1248 -0.0772
  121MOL    O2324263   5.693   2.549   1.236  0.3042 -0.2511  0.2256
  121MOL    C2424264   5.678   2.326   1.292 -0.2522 -0.0320  0.1690
  121MOL    C2524265   5.599   2.278   1.169 -0.3820  0.5493 -0.3727
  121MOL    N2624266   5.539   2.146   1.202 -0.0148  0.0154 -0.4533
  121MOL    H2724267   5.619   2.330   1.384  0.6925 -1.5484  0.8825
  121MOL    H2824268   5.747   2.243   1.308 -0.0655  0.2111  0.6361
  121MOL    H2924269   5.527   2.355   1.142  0.1401  1.3202  0.3691
  121MOL    H3024270   5.678   2.253   1.098  1.1076 -0.8215  1.6717
  121MOL    H3124271   5.580   2.067   1.155  0.5471 -0.4612  0.8118
  121MOL    C3224272   5.443   2.134   1.298 -0.0816 -0.3195  0.7209
  121MOL    O3324273   5.390   2.231   1.350 -0.7058 -0.1958 -0.2505
  121MOL    C3424274   5.398   1.997   1.338  0.4079  0.1542 -0.3517
  121MOL    C3524275   5.245   1.981   1.332 -0.1630  0.0290 -0.2791
  121MOL    N3624276   5.193   1.894   1.440 -0.5148 -0.4665  0.3386
  121MOL    H3724277   5.431   1.976   1.440  0.7689 -4.9196 -1.3622
  121MOL    H3824278   5.440   1.922   1.272  0.1537 -0.3240  0.0216
  121MOL    H3924279   5.202   2.081   1.334 -0.6353 -0.2061  1.3772
  121MOL    H4024280   5.224   1.941   1.233 -0.2916  0.2727 -0.3503
  121MOL    H4124281   5.207   1.794   1.438  0.8893 -0.3170  1.6865
  121MOL    C4224282   5.131   1.947   1.545 -0.5466 -0.1376  0.4725
  121MOL    O4324283   5.121   2.064   1.570 -0.2161  0.3112  0.5014
  121MOL    C4424284   5.077   1.845   1.645  0.4004 -0.4655 -0.5299
  121MOL    C4524285   5.064   1.899   1.793  0.2284 -0.1765 -0.2661
  121MOL    N4624286   5.182   1.880   1.877  0.3714 -0.6078  0.1525
  121MOL    H4724287   4.975   1.817   1.622  0.1938  0.2988 -0.5802
  121MOL    H4824288   5.145   1.760   1.637  0.7708 -0.2114 -0.1031
  121MOL    H4924289   5.031   2.003   1.799  0.1645 -0.2397  0.5724
  121MOL    H5024290   4.972   1.856   1.834 -0.3206  0.2276 -1.0621
  121MOL    H5124291   5.249   1.954   1.891 -1.3656  0.8067  1.3120
  121MOL    C5224292   5.228   1.761   1.920 -0.2448 -0.2502 -0.2096
  121MOL    O5324293   5.150   1.667   1.925 -0.1373  0.3209 -0.6029
  121MOL    C5424294   5.367   1.762   1.984 -0.1063  0.8606  0.2995
  121MOL    C5524295   5.463   1.674   1.889 -0.1321  0.2957  0.1689
  121MOL    N5624296   5.603   1.680   1.931 -0.9495  0.5025 -0.7840
  121MOL    H5724297   5.409   1.862   1.991  0.0415  0.8011  0.2665
  121MOL    H5824298   5.356   1.715   2.082 -2.5557  0.0538 -0.3368
  121MOL    H5924299   5.458   1.714   1.788  0.9844 -0.5861 -0.2423
  121MOL    H6024300   5.430   1.570   1.882 -1.4687  0.7186 -0.1018
  121MOL    H6124301   5.632   1.761   1.984 -0.0890 -0.3805  0.1153
  121MOL    C6224302   5.698   1.582   1.938 -0.1657 -0.2846  0.7412
  121MOL    O6324303   5.683   1.475   1.881 -0.0307  0.2184 -0.1671
  121MOL    C6424304   5.833   1.609   2.022  0.7926  0.2459 -0.7859
  121MOL    C6524305   5.911   1.482   2.058  0.0260 -0.4330  0.5826
  121MOL    N6624306   6.037   1.512   2.121 -0.4204  1.7983 -1.1208
  121MOL    H6724307   5.888   1.680   1.959 -0.3914  0.7628 -1.2561
  121MOL    H6824308   5.814   1.655   2.119 -0.8802 -2.0389 -0.0073
  121MOL    H6924309   5.862   1.422   2.134  0.0264 -0.1937  0.7748
  121MOL    H7024310   5.923   1.426   1.965 -1.2914  0.4020 -0.1040
  121MOL    H7124311   6.034   1.579   2.197  1.5856 -0.2599  0.8490
  121MOL    C7224312   6.148   1.453   2.088  0.2797 -0.1806 -0.0826
  121MOL    O7324313   6.159   1.359   2.003 -0.1250  0.2742 -0.0263
  121MOL    C7424314   6.277   1.510   2.146  0.5443  0.0753  0.2301
  121MOL    C7524315   6.375   1.586   2.048 -0.1028  0.3227  0.2843
  121MOL    N7624316   6.359   1.730   2.052 -0.1614 -0.2415  0.9319
  121MOL    H7724317   6.237   1.588   2.211 -1.1012  1.9167 -2.9187
  121MOL    H7824318   6.318   1.425   2.202 -0.4821  0.7685  2.0970
  121MOL    H7924319   6.472   1.566   2.095 -0.9448 -1.0034  1.4684
  121MOL    H8024320   6.367   1.545   1.947  1.0055 -2.9780  1.4998
  121MOL    H8124321   6.425   1.776   2.113 -0.3745 -1.5243  2.1306
  121MOL    C8224322   6.289   1.803   1.969 -0.0597  0.1741  0.1674
  121MOL    O8324323   6.213   1.754   1.887 -0.5390 -0.8004  0.2025
  121MOL    C8424324   6.300   1.954   1.976  0.1311  0.3312  1.1039
  121MOL    C8524325   6.186   2.045   1.939 -0.0050 -0.0449 -0.4088
  121MOL    N8624326   6.199   2.100   1.811  0.5387  0.2120 -0.2783
  121MOL    H8724327   6.314   1.991   2.078  1.6965  1.8812  0.3577
  121MOL    H8824328   6.399   1.982   1.940 -1.4002  3.5685 -0.8205
  121MOL    H8924329   6.103   1.976   1.953 -0.4092  0.5831  0.3351
  121MOL    H9024330   6.166   2.128   2.007 -0.5614  0.4938 -1.2189
  121MOL    H9124331   6.287   2.089   1.762  0.3329  1.8497 -1.0493
  121MOL    C9224332   6.090   2.121   1.734 -0.1506  0.0895 -0.2214
  121MOL    O9324333   5.974   2.121   1.783  0.1713 -0.5244  0.0563
  121MOL    C9424334   6.123   2.151   1.585 -0.2646  0.1072  0.0423
  121MOL    C9524335   6.018   2.233   1.501  0.7022  0.2086 -0.0018
  121MOL    N9624336   5.974   2.363   1.558 -0.3344 -0.3427 -0.5905
  121MOL    H9724337   6.220   2.200   1.575 -0.8463  1.0232 -1.2084
  121MOL    H9824338   6.125   2.054   1.534 -0.0852 -0.6924  1.5440
  121MOL    H9924339   6.077   2.269   1.417  1.4053  0.2605  0.5027
  121MOL   H10024340   5.939   2.165   1.471  0.7839  0.1038  0.0219
  121MOL   H10124341   6.033   2.446   1.557 -1.0200  0.1541 -0.2946
  121MOL   C10224342   5.847   2.378   1.596 -0.3883  0.4456 -0.3102
  121MOL   O10324343   5.761   2.296   1.591 -0.2251 -0.0737 -0.1765
  121MOL   C10424344   5.811   2.517   1.653  0.3974  0.1790  0.3645
  121MOL   C10524345   5.701   2.521   1.762 -0.9969 -0.6045 -0.0028
  121MOL   N10624346   5.752   2.518   1.899  0.0023  0.5020  0.5020
  121MOL   H10724347   5.775   2.557   1.558  0.4959 -0.5352  0.0272
  121MOL   H10824348   5.903   2.572   1.677 -0.4049  1.7504 -0.0544
  121MOL   H10924349   5.646   2.615   1.761 -1.1110 -0.6763 -0.7429
  121MOL   H11024350   5.630   2.441   1.742  0.0666 -1.2120 -1.4395
  121MOL   H11124351   5.850   2.538   1.916  0.0978  1.8183 -1.4985
  121MOL   C11224352   5.688   2.475   2.007 -0.5081  0.0554 -0.3780
  121MOL   O11324353   5.570   2.441   1.998  0.3312  0.4741  0.2944
  121MOL   C11424354   5.771   2.473   2.137  0.1309 -0.5288 -0.0283
  121MOL   C11524355   5.689   2.457   2.263 -0.0328  0.3416 -0.0587
  121MOL   N11624356   5.699   2.320   2.316 -0.5324 -0.3718  0.1393
  121MOL   H11724357   5.813   2.574   2.142  0.2107 -0.5622 -0.0254
  121MOL   H11824358   5.855   2.405   2.128  0.4941 -0.2375  1.0878
  121MOL   H11924359   5.744   2.524   2.329 -0.3298  1.5178 -0.9929
  121MOL   H12024360   5.586   2.485   2.242  0.1270 -0.5197 -2.0420
  121MOL   H12124361   5.747   2.253   2.258  1.8179 -0.2125  1.8388
  121MOL   C12224362   5.644   2.278   2.428 -0.2960  0.8602 -0.1745
  121MOL   O12324363   5.587   2.357   2.500  0.3951  0.0714  0.4151
  121MOL   C12424364   5.675   2.137   2.467  0.0448  0.5651 -0.9978
  121MOL   C12524365   5.613   2.088   2.599 -0.3788 -0.1603  0.1087
  121MOL   N12624366   5.467   2.067   2.598  0.2099  0.2873  0.0071
  121MOL   H12724367   5.783   2.121   2.467  0.1792  1.4072 -0.0557
  121MOL   H12824368   5.641   2.068   2.390 -0.8643 -0.4544  0.2982
  121MOL   H12924369   5.660   1.991   2.617 -0.4714  0.0474  1.5229
  121MOL   H13024370   5.651   2.149   2.680  1.1873 -1.1739  0.1564
  121MOL   H13124371   5.425   2.066   2.506 -0.5878 -1.0702  0.3685
  121MOL   C13224372   5.396   2.044   2.711 -0.1441  0.6304  0.3857
  121MOL   O13324373   5.456   2.044   2.818 -0.0605  0.1223 -0.6397
  121MOL   C13424374   5.246   2.018   2.698 -1.0728  0.1371  0.2533
  121MOL   C13524375   5.166   2.153   2.673  0.2059 -1.0298  0.3625
  121MOL   N13624376   5.039   2.117   2.605  0.1032 -0.3201 -0.1174
  121MOL   H13724377   5.215   1.959   2.785  2.9969 -0.7775  1.1955
  121MOL   H13824378   5.230   1.943   2.621  1.1850  0.4716 -0.5915
  121MOL   H13924379   5.156   2.205   2.768 -2.4733 -0.5306 -0.1502
  121MOL   H14024380   5.228   2.221   2.615 -0.5286 -1.5553 -1.0852
  121MOL   H14124381   5.023   2.148   2.510 -0.8325 -1.9112 -0.4935
  121MOL   C14224382   4.932   2.063   2.662 -0.2809  0.0772  0.7552
  121MOL   O14324383   4.829   2.033   2.601 -0.2367  0.3634 -0.3200
  121MOL   C14424384   4.928   2.040   2.810  0.3099  0.5044  0.3602
  121MOL   C14524385   4.796   2.067   2.873  0.4314 -0.6749  0.0454
  121MOL   N14624386   4.797   2.056   3.020 -0.0786 -0.2513  0.0760
  121MOL   H14724387   5.006   2.089   2.869  1.0659  0.1579 -0.3370
  121MOL   H14824388   4.946   1.934   2.829 -1.8594  0.6653  3.7774
  121MOL   H14924389   4.749   2.161   2.843  0.0970 -1.2125 -1.1792
  121MOL   H15024390   4.732   1.986   2.839 -1.5971  0.7277  0.4713
  121MOL   H15124391   4.739   1.985   3.063 -1.3862 -0.2541 -1.6301
  121MOL   C15224392   4.865   2.136   3.108 -0.3357 -0.1999  0.5313
  121MOL   O15324393   4.953   2.217   3.073  0.4871 -0.0806  0.4662
  121MOL   C15424394   4.804   2.133   3.249 -0.0477 -0.6354 -0.3529
  121MOL   C15524395   4.768   2.271   3.302  0.5234 -0.6270 -0.0142
  121MOL   N15624396   4.720   2.276   3.436 -0.3622  0.3698  0.3094
  121MOL   H15724397   4.886   2.105   3.315  0.6749  0.0764 -0.9337
  121MOL   H15824398   4.720   2.066   3.264 -1.8351  1.8549  1.1100
  121MOL   H15924399   4.851   2.340   3.288  0.5392 -0.4485  0.9244
  121MOL   H16024400   4.687   2.300   3.236  0.4654  2.4434  1.3021
  121MOL   H16124401   4.755   2.203   3.496  1.1108  1.4010  0.7163
  121MOL   C16224402   4.645   2.368   3.499 -0.2878  0.2041 -0.3897
  121MOL   O16324403   4.599   2.464   3.441  1.4322 -0.2352  0.2171
  121MOL   C16424404   4.614   2.357   3.646 -0.0682 -0.3185  0.0475
  121MOL   C16524405   4.476   2.305   3.687 -0.7461  0.3541  0.5891
  121MOL   N16624406   4.365   2.400   3.674  1.1373  0.4933  0.2177
  121MOL   H16724407   4.625   2.456   3.690  2.2689 -0.4588 -0.1915
  121MOL   H16824408   4.689   2.296   3.697  0.3046  0.1154  0.0146
  121MOL   H16924409   4.447   2.228   3.616 -0.9343  1.9069 -1.0458
  121MOL   H17024410   4.483   2.263   3.788  1.1121  0.8332  0.6725
  121MOL   H17124411   4.382   2.499   3.671 -0.4088  0.7363 -1.4507
  121MOL   C17224412   4.234   2.362   3.674  0.2474 -0.4863  0.0534
  121MOL   O17324413   4.195   2.249   3.703 -0.1758 -0.2061 -0.3679
  121MOL   C17424414   4.138   2.468   3.639  0.3358 -0.1092 -0.2879
  121MOL   C17524415   4.016   2.485   3.744  0.2990 -0.6093 -0.1713
  121MOL   N17624416   4.055   2.558   3.859  0.1929 -0.3431 -0.6431
  121MOL   H17724417   4.092   2.435   3.545 -0.0676 -0.8440  0.1599
  121MOL   H17824418   4.194   2.561   3.633  0.9093 -0.3019  1.8618
  121MOL   H17924419   3.947   2.541   3.681  0.4786  0.1482  0.3102
  121MOL   H18024420   3.969   2.387   3.757 -0.0489 -0.4001  0.1568
  121MOL   H18124421   4.153   2.582   3.869  0.4220 -1.2778 -0.6091
  121MOL   C18224422   3.974   2.586   3.959 -0.1022  0.4416 -0.1905
  121MOL   O18324423   3.853   2.553   3.956 -0.4065 -0.2798  0.0834
  121MOL   C18424424   4.034   2.676   4.066 -0.3276 -0.0006 -0.6583
  121MOL   C18524425   4.001   2.630   4.211 -0.9208  0.2160 -0.1830
  121MOL   N18624426   4.094   2.698   4.299  0.8149  0.0737 -0.5352
  121MOL   H18724427   3.978   2.770   4.067 -0.5602 -0.1259  2.1068
  121MOL   H18824428   4.135   2.706   4.040 -0.3000  0.4633 -0.0536
  121MOL   H18924429   3.898   2.654   4.239 -0.7640  0.4405  0.2033
  121MOL   H19024430   3.994   2.522   4.223  0.1891 -0.2654 -3.2747
  121MOL   H19124431   4.120   2.790   4.264 -3.5136  1.7425  0.3107
  121MOL   C19224432   4.159   2.654   4.402 -0.1234 -0.0029 -0.2134
  121MOL   O19324433   4.158   2.534   4.432 -0.3976  0.0057  0.1984
  121MOL   C19424434   4.231   2.757   4.491 -0.5597 -0.6476  0.0837
  121MOL   C19524435   4.316   2.713   4.607 -0.8119 -0.1775 -0.0149
  121MOL   N19624436   4.241   2.683   4.724  0.1359  0.3865  0.3405
  121MOL   H19724437   4.303   2.807   4.427  0.4984  0.2946  1.9661
  121MOL   H19824438   4.154   2.826   4.528  0.2725  0.8002 -0.8305
  121MOL   H19924439   4.385   2.633   4.578  0.0558  1.4055 -2.5403
  121MOL   H20024440   4.388   2.791   4.630 -2.5249  0.8386  1.9568
  121MOL   H20124441   4.198   2.772   4.746  0.0881  0.2801  0.6825
  121MOL   H20224442   4.295   2.647   4.802  0.2731 -0.4117 -0.1124
  122MOL     C124443   3.798   1.752   6.527 -1.0262 -0.0576  0.5315
  122MOL     O224444   3.910   1.729   6.486 -0.3237  0.9484  0.0396
  122MOL     C324445   3.765   1.861   6.627 -0.2329  0.2964 -0.1671
  122MOL     C424446   3.831   1.836   6.763 -0.2881 -0.3498  0.5696
  122MOL     N524447   3.764   1.725   6.835 -0.0093 -0.2393  0.1016
  122MOL     H624448   3.657   1.865   6.643  0.1134  0.2242  2.3115
  122MOL     H724449   3.784   1.959   6.585 -1.3306  0.0348 -1.3117
  122MOL     H824450   3.834   1.928   6.821 -0.0714  0.7286 -1.1089
  122MOL     H924451   3.936   1.807   6.755 -0.3148  0.0335 -1.5171
  122MOL    H1024452   3.821   1.644   6.853 -0.8479 -0.4193  2.0950
  122MOL    H1124453   3.711   1.702   6.484 -2.2856  0.0325  2.8949
  122MOL    C1224454   3.642   1.737   6.890 -0.1175 -0.4194  0.2503
  122MOL    O1324455   3.563   1.833   6.878  0.1482 -0.2419 -0.3452
  122MOL    C1424456   3.602   1.610   6.970  0.1203  0.2836  0.2786
  122MOL    C1524457   3.450   1.599   6.998 -0.3040 -0.5149 -0.5632
  122MOL    N1624458   3.415   1.475   7.057 -0.3302  0.7315 -0.1705
  122MOL    H1724459   3.656   1.598   7.064 -2.4457  1.3768  1.9647
  122MOL    H1824460   3.623   1.520   6.912 -0.0766  0.8460 -0.6733
  122MOL    H1924461   3.416   1.682   7.061  0.3537  0.1831 -1.1221
  122MOL    H2024462   3.408   1.588   6.898 -1.1018 -2.0661 -0.0886
  122MOL    H2124463   3.382   1.403   6.994 -2.3830 -0.2649  1.9343
  122MOL    C2224464   3.412   1.443   7.189  0.1823  0.4834 -0.1195
  122MOL    O2324465   3.471   1.516   7.267  0.0963 -0.5998 -0.3973
  122MOL    C2424466   3.357   1.305   7.234  0.4239  0.4791  0.1608
  122MOL    C2524467   3.463   1.191   7.257  0.2082 -0.1984 -0.2626
  122MOL    N2624468   3.543   1.167   7.141 -0.3079  0.4303  0.0941
  122MOL    H2724469   3.287   1.271   7.158 -0.1142  0.5327  0.6337
  122MOL    H2824470   3.293   1.330   7.318  0.8601  2.0948  0.0236
  122MOL    H2924471   3.529   1.230   7.334 -3.1321  0.7069  2.2956
  122MOL    H3024472   3.414   1.101   7.295 -1.0116  1.0332  1.1775
  122MOL    H3124473   3.637   1.203   7.146  0.1546 -0.9005  1.2278
  122MOL    C3224474   3.512   1.082   7.045  0.6898  0.0137 -0.2630
  122MOL    O3324475   3.405   1.025   7.036  0.4320 -0.1116  0.3426
  122MOL    C3424476   3.624   1.061   6.945  0.2230 -0.3707 -0.0484
  122MOL    C3524477   3.584   1.088   6.798  0.6464 -0.1254 -0.2346
  122MOL    N3624478   3.598   0.966   6.716  0.1654  0.4617  0.1410
  122MOL    H3724479   3.646   0.955   6.960 -2.3733 -0.8716  0.3974
  122MOL    H3824480   3.706   1.121   6.983  1.1130 -1.9036  0.4861
  122MOL    H3924481   3.481   1.122   6.797  0.9576  1.1125  3.6890
  122MOL    H4024482   3.634   1.172   6.751 -0.3617  0.2246 -0.6891
  122MOL    H4124483   3.674   0.974   6.650  1.0777  0.2600  1.1620
  122MOL    C4224484   3.524   0.853   6.730 -0.0330 -0.2737 -0.5322
  122MOL    O4324485   3.435   0.836   6.811 -0.1707 -0.0700 -0.2959
  122MOL    C4424486   3.546   0.740   6.626  0.5286 -0.0962  0.5963
  122MOL    C4524487   3.607   0.612   6.688 -0.7746  0.1600 -0.1326
  122MOL    N4624488   3.743   0.624   6.742  0.8088 -0.5538  0.1679
  122MOL    H4724489   3.456   0.694   6.584 -1.0542  2.5205  1.0221
  122MOL    H4824490   3.609   0.771   6.542  0.0203 -0.2785  0.1441
  122MOL    H4924491   3.547   0.590   6.777  0.3000 -1.2612  0.2661
  122MOL    H5024492   3.607   0.519   6.630  0.3398 -0.3415  0.6459
  122MOL    H5124493   3.751   0.633   6.842 -2.0559  0.7013  0.3567
  122MOL    C5224494   3.861   0.621   6.680  0.1940 -0.2356  0.1650
  122MOL    O5324495   3.960   0.640   6.742  0.3141 -0.3170  0.5549
  122MOL    C5424496   3.859   0.599   6.525 -0.6728 -0.4120  0.1024
  122MOL    C5524497   3.996   0.626   6.459  0.4738 -0.2647  0.5293
  122MOL    N5624498   4.042   0.770   6.448  0.6464 -0.0970 -0.6033
  122MOL    H5724499   3.836   0.497   6.494  1.0508 -0.4021 -1.2932
  122MOL    H5824500   3.784   0.665   6.479 -0.6273 -1.3947 -1.4257
  122MOL    H5924501   4.019   0.577   6.364 -0.3791 -0.5315  0.4591
  122MOL    H6024502   4.063   0.567   6.522  0.7124  0.2140  0.7213
  122MOL    H6124503   3.975   0.821   6.392  0.4529 -0.8397 -1.0532
  122MOL    C6224504   4.147   0.830   6.499  0.0748 -0.4748  0.3889
  122MOL    O6324505   4.225   0.756   6.558 -0.1219 -0.3386  0.2233
  122MOL    C6424506   4.165   0.979   6.490 -0.0466  0.2772 -0.1663
  122MOL    C6524507   4.268   1.031   6.591 -0.2148 -0.4927  0.1679
  122MOL    N6624508   4.314   1.169   6.557 -0.3609  0.1401  0.1711
  122MOL    H6724509   4.194   0.997   6.386 -0.0430  0.7915 -0.0791
  122MOL    H6824510   4.071   1.033   6.499  0.0746  0.9204 -2.4079
  122MOL    H6924511   4.220   1.020   6.688  1.8584  1.4313  1.4549
  122MOL    H7024512   4.347   0.957   6.603  0.6321  0.2783 -0.5067
  122MOL    H7124513   4.300   1.202   6.462  0.8105  1.1230  0.3325
  122MOL    C7224514   4.372   1.249   6.650  0.0076 -0.2328 -0.4453
  122MOL    O7324515   4.367   1.225   6.771  0.3776 -0.3574  0.0220
  122MOL    C7424516   4.471   1.354   6.610 -0.5669  0.8437  0.1839
  122MOL    C7524517   4.618   1.316   6.644 -0.5501 -0.0468  0.2278
  122MOL    N7624518   4.655   1.337   6.782 -0.0025  0.6248  0.0082
  122MOL    H7724519   4.453   1.382   6.506  1.2627  0.6949 -0.1951
  122MOL    H7824520   4.437   1.449   6.652 -1.1603  1.0164 -0.6713
  122MOL    H7924521   4.629   1.214   6.607  1.4979  0.3750 -0.3985
  122MOL    H8024522   4.687   1.358   6.571 -1.5889  0.7262 -0.3334
  122MOL    H8124523   4.610   1.278   6.850 -0.4904  0.6438 -0.2989
  122MOL    C8224524   4.749   1.423   6.817  0.1357 -0.8602 -0.0289
  122MOL    O8324525   4.809   1.490   6.735 -0.0767  0.1167  0.0072
  122MOL    C8424526   4.779   1.440   6.968 -0.0792 -0.1588  0.5266
  122MOL    C8524527   4.768   1.586   7.032 -0.3785 -0.0906  0.6145
  122MOL    N8624528   4.633   1.641   7.033  0.7902 -0.5030  0.5705
  122MOL    H8724529   4.718   1.371   7.025  0.9998 -1.5025  0.0811
  122MOL    H8824530   4.882   1.412   6.991 -0.4044 -0.7239  1.3009
  122MOL    H8924531   4.797   1.568   7.136 -0.3158 -0.0688  0.6007
  122MOL    H9024532   4.841   1.657   6.993 -0.0183 -1.3814 -1.1444
  122MOL    H9124533   4.566   1.604   7.099 -1.2788  1.2505 -0.4804
  122MOL    C9224534   4.574   1.709   6.935  0.0941  0.9065 -0.6161
  122MOL    O9324535   4.634   1.758   6.842 -0.4970  0.3456  0.5906
  122MOL    C9424536   4.418   1.708   6.940  0.1583 -0.3573 -0.2008
  122MOL    C9524537   4.356   1.847   6.935  0.1371  0.1491 -0.1947
  122MOL    N9624538   4.362   1.930   7.052  0.2628  0.1380 -0.3591
  122MOL    H9724539   4.395   1.650   6.851  0.9074  1.9126 -1.9347
  122MOL    H9824540   4.383   1.649   7.025  0.6317  0.6401  0.6969
  122MOL    H9924541   4.396   1.904   6.852 -0.1000 -0.3965 -0.6840
  122MOL   H10024542   4.254   1.832   6.901  0.6812 -0.1709 -1.7174
  122MOL   H10124543   4.448   1.973   7.085 -1.1001 -0.2875  4.0912
  122MOL   C10224544   4.257   1.958   7.137 -0.3573  0.8064  0.6782
  122MOL   O10324545   4.152   1.892   7.120  0.3189  0.1963 -0.2729
  122MOL   C10424546   4.280   2.049   7.258  0.1970 -0.2343 -0.3988
  122MOL   C10524547   4.149   2.119   7.300 -0.4663  0.2216 -0.0159
  122MOL   N10624548   4.054   2.020   7.348  0.0476 -0.1494 -0.3292
  122MOL   H10724549   4.355   2.127   7.251  0.6504 -0.4574  1.6722
  122MOL   H10824550   4.320   1.985   7.336 -2.2000  1.0354  1.9672
  122MOL   H10924551   4.177   2.190   7.378  0.4597  1.3869 -1.3851
  122MOL   H11024552   4.090   2.173   7.226  0.3252 -0.4122 -1.1174
  122MOL   H11124553   4.018   1.965   7.271 -1.5785  0.2041  0.1620
  122MOL   C11224554   4.005   2.001   7.471  0.5592 -0.1419  0.0345
  122MOL   O11324555   4.032   2.069   7.571  0.3866 -0.7226  0.1624
  122MOL   C11424556   3.896   1.894   7.482  0.3406 -0.4893  0.1848
  122MOL   C11524557   3.767   1.954   7.538 -0.1666 -0.0406  0.0592
  122MOL   N11624558   3.692   2.028   7.440  0.3184 -0.4987  0.3004
  122MOL   H11724559   3.925   1.808   7.543 -0.5723 -1.3852 -0.6232
  122MOL   H11824560   3.878   1.847   7.385  1.8189 -1.4285  0.3594
  122MOL   H11924561   3.701   1.874   7.573 -1.5956  1.0198 -0.1738
  122MOL   H12024562   3.781   2.004   7.634  2.8001 -1.9212  0.6800
  122MOL   H12124563   3.666   2.124   7.459 -1.0505 -0.2835 -2.4661
  122MOL   C12224564   3.612   1.965   7.356  0.3567  0.9228  0.4838
  122MOL   O12324565   3.604   1.843   7.354 -0.4007 -0.6481 -0.2242
  122MOL   C12424566   3.515   2.061   7.280  0.0246 -0.3241  0.1028
  122MOL   C12524567   3.379   2.006   7.241 -0.4156 -0.0080 -0.3722
  122MOL   N12624568   3.297   1.980   7.357 -0.3530  0.1107  0.0043
  122MOL   H12724569   3.564   2.087   7.187 -1.9375  0.6881 -0.6752
  122MOL   H12824570   3.509   2.158   7.328 -2.1434 -0.2984 -0.1433
  122MOL   H12924571   3.338   2.078   7.170 -0.9825  0.1541  0.1123
  122MOL   H13024572   3.401   1.916   7.184  0.8540 -1.1572  1.8495
  122MOL   H13124573   3.296   2.043   7.435 -1.1101  0.3101 -0.1599
  122MOL   C13224574   3.213   1.876   7.367  0.0922  0.4231  0.4227
  122MOL   O13324575   3.167   1.814   7.267  0.5814 -0.4000 -0.4561
  122MOL   C13424576   3.162   1.844   7.507  0.4495 -0.1321  0.2932
  122MOL   C13524577   3.161   1.696   7.552 -0.1436 -0.5971  0.3422
  122MOL   N13624578   3.301   1.636   7.547  0.3889  0.2947  0.1708
  122MOL   H13724579   3.058   1.877   7.511  0.0906 -1.3793  2.4046
  122MOL   H13824580   3.215   1.901   7.584  2.5364 -0.0474 -1.1932
  122MOL   H13924581   3.122   1.704   7.654 -1.2701  2.8641 -0.2980
  122MOL   H14024582   3.095   1.630   7.496  0.8872 -0.0591 -1.5542
  122MOL   H14124583   3.365   1.672   7.478  2.0140 -0.1684  1.3793
  122MOL   C14224584   3.346   1.543   7.634 -0.3348  0.2201 -0.2575
  122MOL   O14324585   3.268   1.493   7.724  0.3541  0.9037  0.5241
  122MOL   C14424586   3.498   1.502   7.630  0.6551  0.5473 -0.5241
  122MOL   C14524587   3.585   1.590   7.722 -0.2442 -0.0265 -0.4102
  122MOL   N14624588   3.721   1.540   7.731 -0.1615  0.3035 -0.0583
  122MOL   H14724589   3.543   1.502   7.531 -1.1181  0.3441 -1.3442
  122MOL   H14824590   3.520   1.401   7.665 -1.3234 -0.0995 -1.0360
  122MOL   H14924591   3.586   1.690   7.678 -0.5873  0.0008 -0.3565
  122MOL   H15024592   3.546   1.589   0.044  1.4201 -0.4698  0.2384
  122MOL   H15124593   3.780   1.543   7.649  1.2643 -2.5169  0.7818
  122MOL   C15224594   3.770   1.468   0.056 -0.3096 -0.2074  0.4509
  122MOL   O15324595   3.703   1.437   0.153 -0.0918 -0.4612  0.0562
  122MOL   C15424596   3.920   1.419   0.048 -0.5108 -0.1613 -0.1875
  122MOL   C15524597   3.926   1.302   7.727 -0.1262 -0.0919  0.7770
  122MOL   N15624598   3.909   1.178   0.020  0.3349 -0.2870  0.1517
  122MOL   H15724599   3.960   1.399   0.147  0.5447  0.9237 -0.3946
  122MOL   H15824600   3.963   1.512   0.012 -2.0539  0.8471  0.5052
  122MOL   H15924601   3.849   1.304   7.650  0.5893  0.8354  0.0634
  122MOL   H16024602   4.021   1.297   7.674  0.1278 -0.3504  1.2527
  122MOL   H16124603   3.835   1.120   7.763  0.8008 -0.0448 -1.1720
  122MOL   C16224604   3.998   1.124   0.096 -0.2455  0.5695  0.4516
  122MOL   O16324605   4.103   1.183   0.117  1.2734  0.0373 -0.2886
  122MOL   C16424606   3.970   0.988   0.168  0.0693 -0.5121 -0.5091
  122MOL   C16524607   4.008   0.992   0.314 -0.0684  1.0998  0.0979
  122MOL   N16624608   3.939   0.896   0.395 -0.0245 -0.5516 -0.9481
  122MOL   H16724609   4.023   0.908   0.117  1.9828  0.2150  0.2979
  122MOL   H16824610   3.871   0.943   0.167  0.7236 -1.9770 -0.4943
  122MOL   H16924611   4.115   0.981   0.331 -0.0770  0.1157 -0.4332
  122MOL   H17024612   3.976   1.090   0.348 -0.5188  0.6709  0.9250
  122MOL   H17124613   3.841   0.915   0.404 -0.0730 -1.4270  0.5246
  122MOL   C17224614   3.996   0.805   0.476  0.6868 -0.0286  0.0067
  122MOL   O17324615   4.116   0.799   0.493  0.4494  0.4127  0.3060
  122MOL   C17424616   3.910   0.708   0.548  0.2648  0.3685 -0.6063
  122MOL   C17524617   3.911   0.722   0.706 -0.1432  0.5239  0.4811
  122MOL   N17624618   3.857   0.846   0.763  0.1647  0.4494  0.2356
  122MOL   H17724619   3.945   0.609   0.518 -0.5370 -0.3411  0.7701
  122MOL   H17824620   3.807   0.718   0.513  0.3388  1.3453 -0.5586
  122MOL   H17924621   3.868   0.629   0.744 -1.9685  1.0020 -0.3400
  122MOL   H18024622   4.016   0.734   0.731  0.0266  0.3667 -0.1628
  122MOL   H18124623   3.923   0.922   0.770 -0.1243  0.7705 -0.5277
  122MOL   C18224624   3.735   0.860   0.822  0.9629 -0.4442  0.1527
  122MOL   O18324625   3.649   0.771   0.831  0.1218  0.0784  0.8199
  122MOL   C18424626   3.711   0.992   0.897  0.1124 -0.2792  0.3516
  122MOL   C18524627   3.629   0.998   1.025 -0.2722 -0.1192 -0.0409
  122MOL   N18624628   3.675   0.903   1.124 -0.1937  0.1921 -0.1145
  122MOL   H18724629   3.666   1.067   0.833 -0.3803  1.1406  2.3085
  122MOL   H18824630   3.809   1.027   0.929 -1.2657  3.5650  0.5892
  122MOL   H18924631   3.628   1.102   1.057  0.6679 -0.7022  1.9481
  122MOL   H19024632   3.528   0.978   0.989 -0.0519 -1.5054  0.0757
  122MOL   H19124633   3.650   0.805   1.122  0.6185 -0.0896  2.1396
  122MOL   C19224634   3.742   0.934   1.230 -0.6212  0.2139  0.2210
  122MOL   O19324635   3.799   1.039   1.245  0.1339 -0.0702  0.3067
  122MOL   C19424636   3.751   0.820   1.334  0.7341 -0.1082 -0.2646
  122MOL   C19524637   3.742   0.873   1.477  0.1571 -0.4381  0.4363
  122MOL   N19624638   3.605   0.902   1.514 -0.3594  0.3789  0.0565
  122MOL   H19724639   3.668   0.751   1.323  1.5935 -1.5261  1.9261
  122MOL   H19824640   3.845   0.768   1.316 -0.0636 -1.2565 -1.1791
  122MOL   H19924641   3.771   0.792   1.544 -1.2638 -1.6510 -0.3767
  122MOL   H20024642   3.786   0.970   1.501 -1.2521  0.3504 -0.0786
  122MOL   H20124643   3.558   0.830   1.460  0.8179 -0.8084  0.5913
  122MOL   H20224644   3.584   0.983   1.456 -3.8622 -2.1171 -2.3636
  123MOL     C124645   7.210   4.322   0.717 -0.3112 -0.8486 -0.6386
  123MOL     O224646   7.249   4.439   0.742  0.5128 -0.8002  0.1043
  123MOL     C324647   7.262   4.203   0.795 -0.3648  0.1528 -0.4001
  123MOL     C424648   7.182   4.077   0.782  0.1254  0.2188  0.1455
  123MOL     N524649   7.216   3.972   0.887 -0.0891 -0.4258  0.0959
  123MOL     H624650   7.295   4.217   0.898 -0.3368  1.2481 -0.5438
  123MOL     H724651   7.352   4.162   0.749 -0.3417 -0.9082  0.5873
  123MOL     H824652   7.208   4.032   0.686 -1.3315  0.3749 -0.3337
  123MOL     H924653   7.078   4.103   0.762  0.9789  2.0177 -2.2472
  123MOL    H1024654   7.300   3.917   0.880  1.3125  1.8291 -1.7405
  123MOL    H1124655   7.123   4.305   0.653  0.9116  0.1988 -2.6471
  123MOL    C1224656   7.149   3.980   1.006 -1.0886 -0.2502  0.4810
  123MOL    O1324657   7.064   4.061   1.033 -0.3274 -0.1340 -0.0640
  123MOL    C1424658   7.199   3.874   1.110 -0.5392  0.2716 -0.1647
  123MOL    C1524659   7.123   3.739   1.099  0.0201 -0.0260  0.4926
  123MOL    N1624660   6.978   3.754   1.100  0.0449  0.6107  0.6245
  123MOL    H1724661   7.174   3.925   1.203 -1.0814  1.0910 -0.7429
  123MOL    H1824662   7.306   3.861   1.096 -0.5164 -0.2624  0.4893
  123MOL    H1924663   7.144   3.692   1.003  1.5122  1.2073  0.1951
  123MOL    H2024664   7.163   3.659   1.161  0.0377  0.5885  1.2893
  123MOL    H2124665   6.938   3.783   1.012 -0.8561  0.5153  0.9984
  123MOL    C2224666   6.896   3.753   1.202  0.1827 -0.7605 -0.7019
  123MOL    O2324667   6.935   3.745   1.318 -0.4571  0.5149 -0.8101
  123MOL    C2424668   6.745   3.777   1.178 -0.0759 -0.7033 -0.5210
  123MOL    C2524669   6.687   3.910   1.242  0.0102  0.5492  0.0202
  123MOL    N2624670   6.732   4.023   1.161 -0.6714  0.3057  0.2103
  123MOL    H2724671   6.684   3.703   1.229 -1.7485  1.2619  0.4308
  123MOL    H2824672   6.737   3.773   1.070  0.1859  0.7246 -0.6125
  123MOL    H2924673   6.579   3.919   1.227 -0.0312 -1.6603 -1.2917
  123MOL    H3024674   6.724   3.910   1.344 -1.0163  1.4433  0.3997
  123MOL    H3124675   6.768   4.010   1.068 -0.4899  0.1608  0.3014
  123MOL    C3224676   6.743   4.150   1.200 -0.6429 -0.5286  0.0341
  123MOL    O3324677   6.722   4.182   1.321 -0.2107  0.5290 -0.3314
  123MOL    C3424678   6.786   4.249   1.094 -0.3801 -0.8485 -0.0053
  123MOL    C3524679   6.897   4.343   1.147 -0.1000 -0.3349 -0.3129
  123MOL    N3624680   6.931   4.451   1.060 -0.4937 -0.0886 -0.2207
  123MOL    H3724681   6.696   4.309   1.078 -0.2314 -1.6383 -4.2551
  123MOL    H3824682   6.819   4.211   0.998 -0.2408  0.5942 -0.5392
  123MOL    H3924683   6.879   4.395   1.241  0.7571  1.2347 -0.9819
  123MOL    H4024684   6.982   4.276   1.160 -0.3786 -0.7076 -0.4038
  123MOL    H4124685   6.857   4.496   1.009  0.1222 -0.4145 -1.4343
  123MOL    C4224686   7.050   4.503   1.043 -0.6630 -0.2349  0.0754
  123MOL    O4324687   7.158   4.464   1.098 -0.4173 -0.0170 -0.2414
  123MOL    C4424688   7.038   4.623   0.949  0.4435  0.4122 -0.1462
  123MOL    C4524689   7.149   4.725   0.956  0.5213  0.1305 -0.5455
  123MOL    N4624690   7.274   4.656   0.925 -0.7836  0.3270  0.0129
  123MOL    H4724691   7.037   4.582   0.848  0.2057 -1.7872  0.7204
  123MOL    H4824692   6.947   4.675   0.981 -0.7069 -1.6358 -0.0131
  123MOL    H4924693   7.135   4.814   0.894 -3.1880 -1.3110 -1.9403
  123MOL    H5024694   7.149   4.747   1.063  1.0904 -2.8088  0.1141
  123MOL    H5124695   7.275   4.589   0.849 -0.7725  0.1434  0.1733
  123MOL    C5224696   7.383   4.644   1.007 -0.0098  0.5099  0.3259
  123MOL    O5324697   7.389   4.706   1.111  0.0722  0.2713 -0.2563
  123MOL    C5424698   7.490   4.547   0.972 -0.6741 -0.1606 -0.1419
  123MOL    C5524699   7.582   4.576   0.851  0.3357 -0.0434 -1.2626
  123MOL    N5624700   7.522   4.562   0.723 -0.5881 -0.2704  0.3991
  123MOL    H5724701   7.553   4.547   1.060  1.3586  2.7667 -1.5256
  123MOL    H5824702   7.441   4.450   0.963  1.1789 -1.1054 -0.1796
  123MOL    H5924703   7.664   4.506   0.863  2.1746  1.9935 -1.6625
  123MOL    H6024704   7.623   4.675   0.868 -0.8123  0.4024 -1.0328
  123MOL    H6124705   7.430   4.521   0.732 -2.3505  3.5729  0.7860
  123MOL    C6224706   7.557   4.621   0.612  0.0022 -0.2136 -0.2411
  123MOL    O6324707   7.657   4.692   0.608  0.6390  0.2624 -0.0171
  123MOL    C6424708   7.475   4.592   0.488  0.2992  0.0066 -0.1581
  123MOL    C6524709   7.406   4.721   0.428 -0.1234 -0.0362 -0.2573
  123MOL    N6624710   7.282   4.766   0.485 -0.3192 -0.6468  0.4061
  123MOL    H6724711   7.545   4.548   0.417  0.6990 -0.9566  0.8195
  123MOL    H6824712   7.388   4.537   0.523  0.4661 -0.8035 -1.0074
  123MOL    H6924713   7.465   4.811   0.450  0.1582 -0.1504 -0.5370
  123MOL    H7024714   7.401   4.702   0.321  0.2408  0.3546 -0.3499
  123MOL    H7124715   7.296   4.832   0.560  1.6835  1.0835 -1.4178
  123MOL    C7224716   7.159   4.721   0.464  0.3386  0.4914  0.0067
  123MOL    O7324717   7.142   4.625   0.390  0.5264  0.8544  0.6099
  123MOL    C7424718   7.043   4.783   0.550  0.2755  0.1689 -0.3191
  123MOL    C7524719   6.898   4.733   0.514  0.2057 -0.5622 -0.6022
  123MOL    N7624720   6.882   4.587   0.519 -0.1741  0.0931  0.0778
  123MOL    H7724721   7.063   4.769   0.656 -1.2476 -0.7318 -0.1188
  123MOL    H7824722   7.060   4.890   0.541  0.4519  0.1872  0.2630
  123MOL    H7924723   6.829   4.784   0.580 -0.2789  0.4420 -1.8555
  123MOL    H8024724   6.875   4.772   0.415  2.1259  0.6131 -0.6078
  123MOL    H8124725   6.940   4.534   0.454 -0.5563  2.2165 -2.0679
  123MOL    C8224726   6.800   4.519   0.600  0.1613 -0.3882 -0.4666
  123MOL    O8324727   6.735   4.559   0.693  0.3655 -0.5257  0.2804
  123MOL    C8424728   6.818   4.367   0.579 -0.8182 -0.2577 -0.6981
  123MOL    C8524729   6.683   4.298   0.578 -0.4112  0.0093  0.2305
  123MOL    N8624730   6.604   4.322   0.453  1.0439 -0.5248 -0.2402
  123MOL    H8724731   6.888   4.344   0.498 -0.1281  0.0545 -0.1902
  123MOL    H8824732   6.873   4.332   0.666 -2.3333 -2.7177 -0.6875
  123MOL    H8924733   6.700   4.191   0.578 -1.2985 -0.1392 -0.1400
  123MOL    H9024734   6.631   4.314   0.672 -0.8571 -1.4935  0.2392
  123MOL    H9124735   6.665   4.340   0.374 -0.2101 -0.0841 -1.1118
  123MOL    C9224736   6.474   4.297   0.448 -0.4172  0.2748  0.1107
  123MOL    O9324737   6.405   4.261   0.543  0.1563  0.2464  0.1782
  123MOL    C9424738   6.411   4.310   0.313  0.3337  0.2182 -0.1729
  123MOL    C9524739   6.260   4.322   0.310 -0.0223 -0.9303 -0.5117
  123MOL    N9624740   6.186   4.312   0.185 -0.1014  0.4392  0.0214
  123MOL    H9724741   6.448   4.397   0.258  0.2954  1.9615  2.4916
  123MOL    H9824742   6.437   4.218   0.260 -0.0469  0.8040 -1.4076
  123MOL    H9924743   6.217   4.245   0.374  0.2533  0.0030  0.7919
  123MOL   H10024744   6.235   4.419   0.353 -0.1891  0.6430 -3.9337
  123MOL   H10124745   6.170   4.398   0.134 -2.1138 -0.0041 -0.1181
  123MOL   C10224746   6.146   4.202   0.121  0.3463 -0.5664 -0.3292
  123MOL   O10324747   6.164   4.091   0.171 -0.3375 -0.1099 -0.3203
  123MOL   C10424748   6.098   4.220   7.764 -0.1290 -0.2555  0.0491
  123MOL   C10524749   5.969   4.148   7.739  0.4595  0.2756  0.0083
  123MOL   N10624750   5.979   4.070   7.616  0.5572  0.3054  0.4017
  123MOL   H10724751   6.174   4.177   7.698 -1.1164 -1.1489 -0.5108
  123MOL   H10824752   6.083   4.324   7.736 -2.5149 -0.2453  1.2860
  123MOL   H10924753   5.938   4.092   0.047 -0.5778  1.4965  0.4261
  123MOL   H11024754   5.888   4.220   7.747 -0.1479 -0.3174 -0.7074
  123MOL   H11124755   6.069   4.034   7.588  0.3880 -0.2583  0.5682
  123MOL   C11224756   5.865   4.038   7.548 -0.0197  0.0880  0.2899
  123MOL   O11324757   5.751   4.066   7.589 -0.0345  0.3820 -0.5508
  123MOL   C11424758   5.869   3.969   7.407  0.2654 -0.0696  0.3665
  123MOL   C11524759   5.797   3.836   7.404 -0.3097  0.2113 -0.0593
  123MOL   N11624760   5.878   3.734   7.336 -0.1277 -0.4279  0.3348
  123MOL   H11724761   5.975   3.957   7.385  0.3250  0.5735  0.2823
  123MOL   H11824762   5.830   4.036   7.330 -0.6841 -0.3673  0.5887
  123MOL   H11924763   5.781   3.801   7.506 -0.5914 -0.5596 -0.3668
  123MOL   H12024764   5.698   3.848   7.360  0.2417  1.2546 -1.0471
  123MOL   H12124765   5.914   3.656   7.388  0.0783 -1.5332 -1.4318
  123MOL   C12224766   5.908   3.734   7.206  0.4773  0.2824  0.6140
  123MOL   O12324767   5.858   3.813   7.125  0.0717  0.1946  0.3610
  123MOL   C12424768   6.010   3.639   7.154  0.2478 -0.1907  0.0345
  123MOL   C12524769   5.977   3.579   7.018  0.5597 -0.3128  0.2233
  123MOL   N12624770   5.867   3.481   7.025 -0.6060 -0.4739 -0.2898
  123MOL   H12724771   6.040   3.569   7.231 -2.0299 -1.1971  0.0698
  123MOL   H12824772   6.102   3.697   7.157 -1.1223  1.9832  2.1230
  123MOL   H12924773   5.956   3.660   6.949 -1.8573 -0.1485  1.1164
  123MOL   H13024774   6.070   3.536   6.979  0.0138  0.5493 -2.0632
  123MOL   H13124775   5.787   3.515   7.077 -0.5071 -1.9740  0.8726
  123MOL   C13224776   5.856   3.371   6.949  0.0660 -0.0355 -0.0771
  123MOL   O13324777   5.953   3.337   6.876  0.1782  0.4263  0.4898
  123MOL   C13424778   5.723   3.299   6.942 -0.6921  0.0650 -0.1507
  123MOL   C13524779   5.688   3.250   6.807  0.5952 -0.0475  0.2190
  123MOL   N13624780   5.594   3.136   6.826 -0.4134  0.7785  0.2507
  123MOL   H13724781   5.640   3.334   7.003 -1.4927  1.1876 -1.8489
  123MOL   H13824782   5.743   3.214   7.007  2.3575  0.0589 -1.0087
  123MOL   H13924783   5.644   3.323   6.740  1.5456 -1.3724 -1.8962
  123MOL   H14024784   5.772   3.216   6.747  0.0518  1.6674 -1.5478
  123MOL   H14124785   5.495   3.144   6.804 -0.0757  0.7079 -1.3926
  123MOL   C14224786   5.635   3.006   6.842  0.2326 -0.1889  0.2269
  123MOL   O14324787   5.751   2.983   6.870  0.0790 -0.4149  0.5826
  123MOL   C14424788   5.533   2.895   6.845  0.0254  0.4745 -0.4572
  123MOL   C14524789   5.575   2.772   6.931 -0.8399  0.3199 -0.2432
  123MOL   N14624790   5.613   2.816   7.065  0.3026  0.5120  0.0059
  123MOL   H14724791   5.514   2.877   6.739 -1.5643 -1.3465  0.1000
  123MOL   H14824792   5.434   2.939   6.863  0.2890  0.4416  1.1659
  123MOL   H14924793   5.484   2.712   6.934  0.0104 -1.0035 -0.6376
  123MOL   H15024794   5.658   2.720   6.882  0.6405  1.2312  1.2169
  123MOL   H15124795   5.702   2.865   7.071 -0.8126  2.7332 -1.0048
  123MOL   C15224796   5.549   2.800   7.182 -0.1657 -0.0894 -0.0216
  123MOL   O15324797   5.438   2.746   7.199 -0.2891 -0.5088  0.1354
  123MOL   C15424798   5.617   2.869   7.303  0.0513 -0.5221  0.0047
  123MOL   C15524799   5.611   3.022   7.312 -0.3846 -0.3569 -0.7619
  123MOL   N15624800   5.472   3.076   7.329  0.2918  0.0798  0.3303
  123MOL   H15724801   5.720   2.833   7.296  0.0300 -0.3138 -1.6004
  123MOL   H15824802   5.578   2.816   7.390 -0.1224 -2.8095 -1.4214
  123MOL   H15924803   5.673   3.054   7.395 -0.5492  2.1028 -1.5484
  123MOL   H16024804   5.652   3.088   7.234  0.2926  0.2212  0.0747
  123MOL   H16124805   5.407   3.074   7.252 -1.2186 -0.3416  1.5881
  123MOL   C16224806   5.413   3.111   7.440 -0.2245  0.0115 -0.8864
  123MOL   O16324807   5.477   3.142   7.542  0.3581  0.4600  0.2158
  123MOL   C16424808   5.254   3.106   7.445  0.1800 -0.3683  0.7017
  123MOL   C16524809   5.203   3.226   7.516 -1.0303  0.5503  0.6101
  123MOL   N16624810   5.062   3.228   7.518  0.1224 -0.1575  0.3414
  123MOL   H16724811   5.237   3.012   7.498 -1.4755 -1.4837 -1.6974
  123MOL   H16824812   5.231   3.095   7.339  0.0290 -2.7327  0.9376
  123MOL   H16924813   5.250   3.228   7.614  0.1756  3.0535  0.0164
  123MOL   H17024814   5.245   3.306   7.455 -1.3139  0.1891 -0.0781
  123MOL   H17124815   5.008   3.158   7.568 -0.6591 -1.6880 -2.4973
  123MOL   C17224816   4.980   3.285   7.427 -0.0186  0.2262 -0.0160
  123MOL   O17324817   5.022   3.357   7.337 -0.6771 -0.0255 -0.5071
  123MOL   C17424818   4.830   3.262   7.439 -0.4091  0.6330 -0.8260
  123MOL   C17524819   4.747   3.389   7.466  0.4512 -0.2541 -0.6266
  123MOL   N17624820   4.774   3.451   7.602 -0.4017 -0.6993 -0.3744
  123MOL   H17724821   4.799   3.186   7.511  0.9780 -2.0025 -2.9013
  123MOL   H17824822   4.797   3.215   7.346 -2.6111  1.5634 -0.5442
  123MOL   H17924823   4.785   3.467   7.401  0.5647  0.4908  0.3117
  123MOL   H18024824   4.641   3.371   7.449  0.3419  1.3828 -1.7511
  123MOL   H18124825   4.862   3.499   7.616 -0.3030 -0.5538 -1.4441
  123MOL   C18224826   4.708   3.406   7.710  0.2747 -0.7049 -0.7028
  123MOL   O18324827   4.633   3.310   7.701 -0.5017  0.5790  0.3364
  123MOL   C18424828   4.747   3.455   0.068  0.6294  0.1066 -0.8725
  123MOL   C18524829   4.793   3.343   0.163  0.1693 -0.1796 -0.3751
  123MOL   N18624830   4.913   3.384   0.234 -0.0435  0.4909  0.5704
  123MOL   H18724831   4.659   3.508   0.107  0.9110  0.6832 -1.0184
  123MOL   H18824832   4.829   3.526   0.066 -2.0090  3.3995  1.4132
  123MOL   H18924833   4.730   3.323   0.250 -0.4644 -1.3701 -1.0810
  123MOL   H19024834   4.821   3.246   0.122  0.8935  0.1692 -0.7073
  123MOL   H19124835   4.928   3.483   0.251 -1.1435  0.5974  0.9429
  123MOL   C19224836   4.987   3.301   0.306 -0.2470 -0.1309 -0.4198
  123MOL   O19324837   4.979   3.178   0.298 -0.0924  0.6572  0.2411
  123MOL   C19424838   5.097   3.367   0.397  0.0790 -0.0093 -0.4761
  123MOL   C19524839   5.233   3.294   0.402 -0.4368  0.1019  0.2736
  123MOL   N19624840   5.312   3.295   0.285 -0.1962  0.1040 -0.2293
  123MOL   H19724841   5.127   3.467   0.366  1.3590 -0.9748 -2.4485
  123MOL   H19824842   5.067   3.370   0.502 -1.1579  0.5846 -0.8391
  123MOL   H19924843   5.295   3.335   0.481  2.3854 -1.0493 -1.2896
  123MOL   H20024844   5.212   3.190   0.428 -3.3516  1.0049  1.7501
  123MOL   H20124845   5.266   3.242   0.213 -0.8502  0.6692 -0.2394
  123MOL   H20224846   5.400   3.247   0.297 -0.6948 -0.4692  1.3139
  124MOL     C124847   7.612   1.443   4.738 -0.2744 -0.4946  0.2063
  124MOL     O224848   7.524   1.528   4.761 -0.8945 -0.2965  0.2061
  124MOL     C324849   7.648   1.349   4.851 -0.4369 -1.0405 -0.0304
  124MOL     C424850   7.542   1.240   4.864  0.4249  0.2997  0.1152
  124MOL     N524851   7.524   1.161   4.744 -0.4806 -0.4302  0.2100
  124MOL     H624852   7.670   1.409   4.939 -1.8883  0.1595 -0.4551
  124MOL     H724853   7.742   1.298   4.829 -1.4068 -2.1434 -1.7339
  124MOL     H824854   7.447   1.282   4.898  0.8966 -0.3907  2.4085
  124MOL     H924855   7.590   1.175   4.937 -1.0831 -1.0973 -0.1170
  124MOL    H1024856   7.431   1.166   4.704  0.4096 -0.1257 -1.8751
  124MOL    H1124857   7.665   1.431   4.643  0.2419  0.2227  0.4035
  124MOL    C1224858   7.613   1.065   4.705 -0.4934 -0.6024 -0.5689
  124MOL    O1324859   7.729   1.069   4.748  0.1596  0.3241 -0.5439
  124MOL    C1424860   7.581   0.975   4.587 -0.1837  0.2273  0.1490
  124MOL    C1524861   7.560   0.829   4.634  0.4560 -0.5919 -0.4762
  124MOL    N1624862   7.527   0.747   4.523 -0.4609 -0.3768 -0.6907
  124MOL    H1724863   7.664   0.987   4.518  0.5419 -2.7503  0.4075
  124MOL    H1824864   7.490   1.009   4.538 -1.1512 -1.2488  0.8830
  124MOL    H1924865   7.650   0.785   4.676  0.2450 -0.1268  0.4774
  124MOL    H2024866   7.488   0.826   4.716 -0.8122 -0.0559 -1.5539
  124MOL    H2124867   7.608   0.701   4.484 -0.2753 -1.4535  0.9439
  124MOL    C2224868   7.406   0.720   4.480 -0.1323 -0.0950  0.9056
  124MOL    O2324869   7.310   0.771   4.527  0.8621 -0.0747  0.0570
  124MOL    C2424870   7.403   0.634   4.357  0.0941 -0.0338  0.4890
  124MOL    C2524871   7.359   0.484   4.383 -0.4457  0.0891  0.7095
  124MOL    N2624872   7.206   0.464   4.389  0.0903  0.6634  0.2756
  124MOL    H2724873   7.504   0.633   4.317 -1.0968 -0.0714 -2.6913
  124MOL    H2824874   7.342   0.676   4.277  3.0652  0.6067 -1.5086
  124MOL    H2924875   7.384   0.423   4.296 -1.2059  1.4512 -0.4890
  124MOL    H3024876   7.399   0.449   4.478 -0.1427  0.8488  0.8641
  124MOL    H3124877   7.150   0.491   4.468 -1.3063 -0.5463 -0.2834
  124MOL    C3224878   7.130   0.449   4.279 -0.0049 -0.8084 -0.0094
  124MOL    O3324879   7.179   0.437   4.167  0.3516 -0.3187  0.7946
  124MOL    C3424880   6.977   0.475   4.287 -0.4444  0.2468 -0.1056
  124MOL    C3524881   6.891   0.406   4.180  0.7320  0.3232 -0.0348
  124MOL    N3624882   6.867   0.267   4.209  0.4610  0.3007  0.0616
  124MOL    H3724883   6.975   0.583   4.289 -0.9662  0.2055  3.4380
  124MOL    H3824884   6.935   0.442   4.381 -2.3613  0.7853 -0.7536
  124MOL    H3924885   6.794   0.455   4.177  0.0907 -0.9799 -0.8358
  124MOL    H4024886   6.935   0.421   4.081  0.5724  0.0654 -0.1456
  124MOL    H4124887   6.871   0.236   4.305  1.1759  1.5253  0.4421
  124MOL    C4224888   6.820   0.178   4.121 -0.6389 -0.3821  0.6308
  124MOL    O4324889   6.797   0.211   4.006 -0.1801  0.1822  0.1742
  124MOL    C4424890   6.791   0.034   4.172  0.0787 -0.7804 -0.6767
  124MOL    C4524891   6.776   7.705   4.052  0.0727 -0.5795  0.6517
  124MOL    N4624892   6.740   7.566   4.098  0.2077 -0.2774  0.1373
  124MOL    H4724893   6.873   0.004   4.239  0.5475  1.5300 -0.1831
  124MOL    H4824894   6.699   0.043   4.230 -0.8808  0.4398 -2.3759
  124MOL    H4924895   6.705   7.731   3.973 -0.5340  0.3649  1.4874
  124MOL    H5024896   6.878   7.699   4.014 -0.1025 -2.4056  0.4278
  124MOL    H5124897   6.733   7.539   4.195 -1.5089 -2.4850 -0.5568
  124MOL    C5224898   6.743   7.467   4.017  0.1397  0.4641  0.6169
  124MOL    O5324899   6.753   7.479   3.893 -0.3568 -0.0900 -0.0453
  124MOL    C5424900   6.716   7.327   4.080 -0.2898 -0.2890  0.0400
  124MOL    C5524901   6.846   7.231   4.099 -0.1495  0.2355  0.2244
  124MOL    N5624902   6.950   7.269   4.191 -0.1471  0.4995  0.2842
  124MOL    H5724903   6.664   7.338   4.175  2.4288  1.5268  1.3973
  124MOL    H5824904   6.643   7.276   4.018 -2.8491  2.3549  0.7745
  124MOL    H5924905   6.895   7.220   4.002  0.2917  0.4305  0.4218
  124MOL    H6024906   6.814   7.130   4.126 -1.0296  0.1339 -1.1623
  124MOL    H6124907   7.037   7.299   4.150  0.0301 -0.9814 -0.4925
  124MOL    C6224908   6.958   7.236   4.322  0.2479 -0.1457 -0.3976
  124MOL    O6324909   6.867   7.184   4.383  0.5922  0.3730 -0.4678
  124MOL    C6424910   7.093   7.233   4.391 -0.3450 -0.0462  0.7873
  124MOL    C6524911   7.125   7.369   4.457 -0.2021  0.5961  0.3264
  124MOL    N6624912   7.172   7.465   4.354 -0.3061  0.1747  0.2393
  124MOL    H6724913   7.093   7.163   4.475  1.0284 -0.4484  0.4658
  124MOL    H6824914   7.173   7.207   4.322 -0.6698 -0.3737  0.5366
  124MOL    H6924915   7.040   7.402   4.516 -0.2863 -0.5529  0.8591
  124MOL    H7024916   7.204   7.348   4.528  0.0809  0.6646  0.0322
  124MOL    H7124917   7.185   7.429   4.260 -1.2885 -2.1646  0.9615
  124MOL    C7224918   7.190   7.594   4.373  0.2923 -0.3814  0.0427
  124MOL    O7324919   7.184   7.647   4.485  0.0797  1.0623  0.0463
  124MOL    C7424920   7.238   7.675   4.251 -0.0601  1.1967 -0.4308
  124MOL    C7524921   7.207   0.046   4.253 -0.4165 -0.6145 -0.1304
  124MOL    N7624922   7.264   0.114   4.135 -0.0617  0.1749  0.1175
  124MOL    H7724923   7.345   7.657   4.243 -0.1167  0.1201  0.9338
  124MOL    H7824924   7.190   7.638   4.161 -0.9730  0.6136  0.2822
  124MOL    H7924925   7.103   0.075   4.263  0.6508  3.6089 -0.1826
  124MOL    H8024926   7.242   0.093   4.345  1.7165 -3.2856  0.4728
  124MOL    H8124927   7.345   0.174   4.136  1.3318 -1.5746 -2.5290
  124MOL    C8224928   7.200   0.119   4.019  0.3542 -0.1146 -0.0072
  124MOL    O8324929   7.090   0.064   4.006 -0.9264 -0.2125 -0.0075
  124MOL    C8424930   7.281   0.164   3.900  0.0928  0.0908  0.2378
  124MOL    C8524931   7.260   0.309   3.851  0.9725 -0.3775  0.2516
  124MOL    N8624932   7.326   0.406   3.940  0.8342 -0.5175  0.4970
  124MOL    H8724933   7.387   0.146   3.916  0.4063  0.7029 -1.0719
  124MOL    H8824934   7.248   0.089   3.829 -1.4819 -0.3055  1.3509
  124MOL    H8924935   7.287   0.327   3.747 -0.0869 -2.9058 -0.4976
  124MOL    H9024936   7.152   0.319   3.855  1.0245  0.3308 -0.1497
  124MOL    H9124937   7.263   0.448   4.007 -0.5021  0.4121 -1.2728
  124MOL    C9224938   7.454   0.447   3.944 -1.0408  0.0406 -0.0740
  124MOL    O9324939   7.539   0.395   3.875 -0.8768  0.9762 -0.3599
  124MOL    C9424940   7.493   0.550   4.051 -0.2659  0.5325  0.6387
  124MOL    C9524941   7.556   0.663   3.967 -0.0385  1.3348  1.0355
  124MOL    N9624942   7.594   0.774   4.052 -0.3044 -0.2115 -0.1192
  124MOL    H9724943   7.398   0.572   4.100  0.4315 -1.1373  2.8764
  124MOL    H9824944   7.554   0.501   4.127 -0.8421 -2.0968 -0.5277
  124MOL    H9924945   7.640   0.628   3.907 -1.7133  0.1140 -0.6250
  124MOL   H10024946   7.490   0.707   3.893 -0.3824  1.9321  1.6865
  124MOL   H10124947   7.687   0.813   4.039 -0.9651  1.9395  1.2258
  124MOL   C10224948   7.508   0.854   4.123  0.0797 -0.6007  0.3930
  124MOL   O10324949   7.389   0.846   4.112 -0.4084 -0.3803  0.4000
  124MOL   C10424950   7.556   0.963   4.207 -0.9398 -0.2053 -0.0448
  124MOL   C10524951   7.496   1.104   4.170 -0.0783 -0.3334 -0.2662
  124MOL   N10624952   7.531   1.218   4.251  0.1395  0.8737  0.6166
  124MOL   H10724953   7.664   0.958   4.218 -0.7329  3.0050 -0.0981
  124MOL   H10824954   7.536   0.932   4.310 -1.1314 -0.6122 -0.2020
  124MOL   H10924955   7.513   1.124   4.064  0.5127 -0.2813 -0.1677
  124MOL   H11024956   7.390   1.096   4.191 -0.5550 -0.0696 -2.4923
  124MOL   H11124957   7.469   1.247   4.325 -1.2846  0.2164 -0.3103
  124MOL   C11224958   7.646   1.284   4.239  0.2774  0.4329 -0.4042
  124MOL   O11324959   7.735   1.252   4.163  0.0582  0.0683 -0.2730
  124MOL   C11424960   7.667   1.405   4.335 -0.7649  0.6839 -0.5428
  124MOL   C11524961   7.694   1.537   4.262 -0.1676 -0.4338  0.1814
  124MOL   N11624962   7.679   1.668   4.341  0.0222  0.2736 -0.4611
  124MOL   H11724963   7.751   1.377   4.400 -0.6423  0.7672 -0.6675
  124MOL   H11824964   7.579   1.420   4.398 -0.1699  0.9623  0.2302
  124MOL   H11924965   0.014   1.543   4.219 -0.6405 -0.6533 -0.9727
  124MOL   H12024966   7.627   1.539   4.176  1.2044 -0.0236 -0.9113
  124MOL   H12124967   7.762   1.720   4.368  0.1766 -0.5594  0.7185
  124MOL   C12224968   7.566   1.718   4.387 -0.0531 -0.2424  0.1570
  124MOL   O12324969   7.451   1.675   4.373 -0.3131 -0.4506 -0.2481
  124MOL   C12424970   7.585   1.857   4.446  0.0662  0.2084 -0.7658
  124MOL   C12524971   7.493   1.963   4.381 -0.1619  0.1414 -0.2186
  124MOL   N12624972   7.562   2.047   4.282 -0.2442 -0.0014 -0.3396
  124MOL   H12724973   7.687   1.896   4.445  0.1552  0.0129 -0.0003
  124MOL   H12824974   7.555   1.857   4.551 -1.0920  1.4519 -1.0957
  124MOL   H12924975   7.404   1.926   4.328  0.2694 -0.5569 -0.4653
  124MOL   H13024976   7.464   2.025   4.465  0.9879  1.5114 -0.8226
  124MOL   H13124977   7.598   1.996   4.203 -1.4796  0.5724 -1.2897
  124MOL   C13224978   7.564   2.181   4.276  0.2607  0.4022  0.4464
  124MOL   O13324979   7.515   2.249   4.370  0.0746  0.5777 -0.1197
  124MOL   C13424980   7.645   2.238   4.155  0.3034  0.2726 -0.3865
  124MOL   C13524981   7.644   2.391   4.145  0.3224 -0.6004 -0.6257
  124MOL   N13624982   7.531   2.449   4.065 -1.0305 -0.3310  0.6340
  124MOL   H13724983   7.606   2.194   4.063 -1.0094  0.2918  0.1515
  124MOL   H13824984   7.747   2.200   4.154 -0.2706 -1.3699  0.9336
  124MOL   H13924985   7.665   2.434   4.242 -0.8030 -1.2577 -0.0814
  124MOL   H14024986   7.723   2.431   4.082 -0.6410  2.4132  0.0087
  124MOL   H14124987   7.497   2.405   3.981 -1.2758  0.0765  0.5152
  124MOL   C14224988   7.478   2.565   4.095  0.4796  0.0237  0.7918
  124MOL   O14324989   7.522   2.631   4.185  0.4969 -0.0282 -0.0362
  124MOL   C14424990   7.375   2.617   3.999  0.0511 -0.1649 -0.5318
  124MOL   C14524991   7.274   2.713   4.067 -0.3950 -0.3681 -0.3378
  124MOL   N14624992   7.235   2.817   3.977  0.2463  0.2040  0.3303
  124MOL   H14724993   7.313   2.541   3.952  0.3259  0.4490 -1.9155
  124MOL   H14824994   7.434   2.669   3.923  2.7312 -1.1339  0.7883
  124MOL   H14924995   7.189   2.664   4.113 -1.0267 -0.0677 -1.1806
  124MOL   H15024996   7.312   2.762   4.157 -0.9265 -1.4887  0.5155
  124MOL   H15124997   7.302   2.888   3.952 -0.3290  0.4166 -0.6682
  124MOL   C15224998   7.112   2.816   3.922 -0.2345  0.2761  0.0415
  124MOL   O15324999   7.037   2.722   3.932  0.0975  0.5731 -0.2271
  124MOL   C15425000   7.056   2.946   3.852  0.4095  0.3341  0.3409
  124MOL   C15525001   6.909   2.980   3.882  0.2985 -0.4831 -0.5191
  124MOL   N15625002   6.818   2.950   3.773  0.7317  0.7656 -0.9131
  124MOL   H15725003   7.074   2.941   3.745 -0.3372  1.4562  0.1549
  124MOL   H15825004   7.120   3.025   3.891 -0.1016 -0.4333  2.8365
  124MOL   H15925005   6.866   2.922   3.964  1.7925  0.2072  0.7731
  124MOL   H16025006   6.908   3.082   3.920 -1.3381 -0.6850  0.0568
  124MOL   H16125007   6.767   2.863   3.779 -0.8719  1.6975 -0.6360
  124MOL   C16225008   6.812   3.025   3.662  0.2287 -1.1393 -0.0111
  124MOL   O16325009   6.877   3.129   3.651  0.0239 -0.3043 -0.0993
  124MOL   C16425010   6.720   2.975   3.552 -0.8216 -0.2646  0.6801
  124MOL   C16525011   6.738   3.038   3.410  0.1370  0.3045 -0.6484
  124MOL   N16625012   6.853   2.977   3.352 -0.2466  0.4208 -0.1212
  124MOL   H16725013   6.616   2.976   3.585 -1.4253  0.4123 -1.1482
  124MOL   H16825014   6.738   2.868   3.538 -3.8920 -0.8293  0.6980
  124MOL   H16925015   6.653   3.033   3.340  0.6135  0.4253 -1.2389
  124MOL   H17025016   6.758   3.144   3.420 -1.5375  0.7048 -1.2859
  124MOL   H17125017   6.927   3.045   3.337  0.5378 -0.5919 -0.9006
  124MOL   C17225018   6.858   2.868   3.274  0.1884 -0.9537  0.2066
  124MOL   O17325019   6.754   2.808   3.242  0.4993 -0.1887 -0.0645
  124MOL   C17425020   7.000   2.823   3.221  0.5641 -0.0091 -0.9766
  124MOL   C17525021   7.001   2.708   3.116 -0.2141  0.4060  0.3119
  124MOL   N17625022   6.978   2.761   2.982  0.0792  0.2601  0.1614
  124MOL   H17725023   7.052   2.795   3.312  0.6656  1.6515 -0.5061
  124MOL   H17825024   7.051   2.913   3.186  0.7043  1.1450  2.0584
  124MOL   H17925025   7.088   2.643   3.127 -0.1833  0.5133  0.7115
  124MOL   H18025026   6.916   2.640   3.130  1.0369 -1.4129 -0.6835
  124MOL   H18125027   6.885   2.799   2.969 -1.4716 -2.8185  1.5701
  124MOL   C18225028   7.069   2.777   2.889 -0.1112  0.3388  0.4485
  124MOL   O18325029   7.179   2.725   2.900 -0.0177  0.2996  0.0176
  124MOL   C18425030   7.039   2.863   2.768  0.9828 -0.2884 -0.3958
  124MOL   C18525031   6.938   2.789   2.672  0.4356 -0.3520 -0.6984
  124MOL   N18625032   6.804   2.848   2.677 -0.1429 -0.1843  0.0057
  124MOL   H18725033   7.133   2.872   2.713  1.7489  2.4048  1.2415
  124MOL   H18825034   7.011   2.965   2.794 -0.5141 -0.1463 -2.4617
  124MOL   H18925035   6.987   2.784   2.574 -0.5603 -1.7716 -1.1260
  124MOL   H19025036   6.938   2.684   2.699 -0.7207  0.0001  0.7382
  124MOL   H19125037   6.754   2.846   2.764 -2.1255 -2.5996 -1.1214
  124MOL   C19225038   6.737   2.908   2.575 -0.4272  0.7465  0.1008
  124MOL   O19325039   6.775   2.911   2.458 -0.0835 -0.3466  0.3697
  124MOL   C19425040   6.598   2.949   2.603  0.2908  0.3125 -0.1423
  124MOL   C19525041   6.572   3.094   2.571 -0.5371  0.5411  0.1222
  124MOL   N19625042   6.637   3.190   2.663 -0.2615 -0.0146  0.2984
  124MOL   H19725043   6.537   2.885   2.539  1.0685  0.0007 -0.5719
  124MOL   H19825044   6.566   2.924   2.705 -0.6744 -1.4608 -0.8591
  124MOL   H19925045   6.607   3.124   2.472 -2.1244  1.5182 -0.1516
  124MOL   H20025046   6.463   3.100   2.570 -0.7095 -1.5675  1.3897
  124MOL   H20125047   6.735   3.179   2.643 -0.1714 -0.4964  0.9757
  124MOL   H20225048   6.611   3.274   2.614  0.6318  0.7190  1.0615
  125MOL     C125049   4.207   3.327   7.157  0.2221 -0.8727  0.6011
  125MOL     O225050   4.158   3.216   7.150 -0.3639 -0.3011 -0.5330
  125MOL     C325051   4.128   3.434   7.082  0.6207 -0.0201  0.4057
  125MOL     C425052   4.162   3.446   6.931 -0.6626  0.9249 -0.0872
  125MOL     N525053   4.304   3.483   6.911  0.4892  0.0330 -0.2782
  125MOL     H625054   4.144   3.528   7.133  0.7091  0.0832  0.1913
  125MOL     H725055   4.023   3.405   7.082  1.5985 -3.9874 -1.5746
  125MOL     H825056   4.104   3.520   6.878  1.0693  1.4675 -1.2447
  125MOL     H925057   4.129   3.350   6.891 -1.1419  0.9174  0.3166
  125MOL    H1025058   4.328   3.564   6.966  0.8766  0.4148 -0.9994
  125MOL    H1125059   4.297   3.366   7.205 -0.3500  0.4865  0.5749
  125MOL    C1225060   4.388   3.430   6.825  0.0974 -0.0389  0.8876
  125MOL    O1325061   4.361   3.330   6.758 -0.1976 -0.5464  0.2414
  125MOL    C1425062   4.518   3.503   6.791 -0.4528 -0.5378 -0.2710
  125MOL    C1525063   4.565   3.509   6.648 -0.0683  0.2568  0.0132
  125MOL    N1625064   4.672   3.600   6.628 -0.5912 -0.0901 -0.0004
  125MOL    H1725065   4.597   3.452   6.846  0.7523 -0.5395 -1.9771
  125MOL    H1825066   4.523   3.604   6.833 -1.8282 -0.5829  0.0377
  125MOL    H1925067   4.581   3.404   6.624 -0.1566 -0.9786  4.9076
  125MOL    H2025068   4.485   3.546   6.583 -0.8385  2.4284  2.1056
  125MOL    H2125069   4.741   3.604   6.701 -1.2528 -0.5482  0.6518
  125MOL    C2225070   4.715   3.637   6.501 -0.5310 -0.3024 -0.7723
  125MOL    O2325071   4.650   3.610   6.400  0.1304 -0.5266  0.1988
  125MOL    C2425072   4.863   3.683   6.490 -0.0398  0.1614  0.0679
  125MOL    C2525073   4.893   3.804   6.403 -0.7202  0.5831  0.7562
  125MOL    N2625074   4.835   3.929   6.446 -0.2308  0.4206 -0.1110
  125MOL    H2725075   4.920   3.595   6.460 -1.2144 -0.4674 -0.3382
  125MOL    H2825076   4.894   3.703   6.593 -0.3020  0.6054  0.0600
  125MOL    H2925077   5.001   3.815   6.390 -0.7444  4.3706  3.0758
  125MOL    H3025078   4.838   3.786   6.311 -0.7471 -0.3438  0.9483
  125MOL    H3125079   4.742   3.949   6.412 -0.9017 -0.5204  1.1054
  125MOL    C3225080   4.891   4.029   6.514 -0.1991 -0.1019  0.2201
  125MOL    O3325081   5.007   4.024   6.540 -0.1877 -0.7753  0.0194
  125MOL    C3425082   4.801   4.137   6.566  0.8955  0.0462 -0.1761
  125MOL    C3525083   4.848   4.285   6.567  0.3836 -0.5883  0.2624
  125MOL    N3625084   4.813   4.357   6.693 -0.1559  0.7309 -0.7950
  125MOL    H3725085   4.790   4.116   6.672  0.4443 -3.3899 -0.8477
  125MOL    H3825086   4.694   4.130   6.543  0.2265  0.3190  2.6529
  125MOL    H3925087   4.955   4.298   6.552 -0.1791  0.1761 -3.4805
  125MOL    H4025088   4.807   4.334   6.479  1.2085  0.9798  0.7392
  125MOL    H4125089   4.879   4.363   6.769  0.0652  0.4862 -0.9632
  125MOL    C4225090   4.700   4.418   6.726 -0.9926  0.1627 -0.1812
  125MOL    O4325091   4.599   4.423   6.658  0.4317  0.8310  0.3170
  125MOL    C4425092   4.707   4.486   6.867  0.0458 -0.4470 -0.6878
  125MOL    C4525093   4.580   4.537   6.930  0.4211 -0.1431  0.3162
  125MOL    N4625094   4.471   4.445   6.935 -0.3870 -0.1025  0.2128
  125MOL    H4725095   4.752   4.414   6.935 -0.2392  0.9126  0.9820
  125MOL    H4825096   4.780   4.565   6.853  0.5166 -0.9637 -1.1662
  125MOL    H4925097   4.610   4.579   7.026  3.8362 -1.2754 -0.1775
  125MOL    H5025098   4.558   4.621   6.864  2.4700  0.7416  0.7295
  125MOL    H5125099   4.408   4.444   6.856 -0.0054  0.2129 -0.0944
  125MOL    C5225100   4.451   4.354   7.029  0.8843  0.0771  0.1264
  125MOL    O5325101   4.350   4.290   7.010 -0.7810  0.2915 -0.6340
  125MOL    C5425102   4.535   4.340   7.160  0.1428 -0.3240  0.0436
  125MOL    C5525103   4.517   4.195   7.228  0.7593 -0.2403 -0.3209
  125MOL    N5625104   4.561   4.194   7.370  0.3825  0.8098  0.7225
  125MOL    H5725105   4.640   4.365   7.148  0.0318  1.4860  2.4614
  125MOL    H5825106   4.501   4.418   7.227 -0.0732  0.6595 -1.2029
  125MOL    H5925107   4.571   4.120   7.170 -1.6189 -0.4144 -2.3879
  125MOL    H6025108   4.411   4.170   7.218  0.8169 -1.4093  1.6587
  125MOL    H6125109   4.562   4.287   7.409  3.8734  0.8239  0.7245
  125MOL    C6225110   4.568   4.087   7.455  0.9043 -0.5434 -0.6709
  125MOL    O6325111   4.547   3.969   7.418 -0.5942  0.0515 -0.1995
  125MOL    C6425112   4.594   4.132   7.604  0.1680  0.0724 -0.3165
  125MOL    C6525113   4.610   4.007   7.695 -0.5489  0.0460 -0.0918
  125MOL    N6625114   4.522   4.000   0.027 -0.0226  0.7665  0.2425
  125MOL    H6725115   4.682   4.197   7.609 -0.2713  0.8145 -2.0917
  125MOL    H6825116   4.514   4.195   7.643 -0.0658 -0.0490 -0.6040
  125MOL    H6925117   4.619   3.911   7.645 -3.0804 -0.8810  1.1581
  125MOL    H7025118   4.710   4.012   7.739 -0.8354 -0.3272  0.6034
  125MOL    H7125119   4.490   4.093   0.049 -0.1531  0.8288 -0.2154
  125MOL    C7225120   4.487   3.892   0.093 -0.2489  0.0426  0.8317
  125MOL    O7325121   4.525   3.782   0.056  0.1527 -0.0401 -0.1575
  125MOL    C7425122   4.388   3.899   0.208 -0.4297  0.4791  0.1805
  125MOL    C7525123   4.329   3.771   0.266  0.3695  0.2094  0.5651
  125MOL    N7625124   4.238   3.799   0.378  0.0107 -0.8269 -0.5276
  125MOL    H7725125   4.436   3.959   0.285  0.0237 -0.5183  0.6790
  125MOL    H7825126   4.311   3.961   0.162 -2.4897 -2.5789 -0.6746
  125MOL    H7925127   4.289   3.727   0.175 -0.5576  0.9652  0.5955
  125MOL    H8025128   4.409   3.699   0.282 -1.9205 -2.3827  0.7483
  125MOL    H8125129   4.137   3.804   0.370  0.1009  0.6117 -0.9165
  125MOL    C8225130   4.279   3.820   0.506  0.7198  0.3097  0.3254
  125MOL    O8325131   4.394   3.833   0.540  0.3090 -0.5733 -0.6548
  125MOL    C8425132   4.171   3.839   0.606  0.1898 -0.2642 -0.2292
  125MOL    C8525133   4.098   3.715   0.633  0.6006  0.6560 -0.9892
  125MOL    N8625134   4.031   3.708   0.761 -0.2245 -0.7298 -0.1700
  125MOL    H8725135   4.227   3.861   0.697 -0.5326 -2.3952  0.7533
  125MOL    H8825136   4.104   3.923   0.589 -0.0068 -0.3783 -0.0266
  125MOL    H8925137   4.021   3.705   0.556 -0.4743  3.3069 -0.3167
  125MOL    H9025138   4.161   3.626   0.632 -0.6788 -0.2637 -1.2094
  125MOL    H9125139   4.066   3.770   0.833 -0.0303 -0.8212 -0.1869
  125MOL    C9225140   3.944   3.611   0.800 -0.5883 -0.2421  0.2592
  125MOL    O9325141   3.891   3.524   0.731  0.0318  0.0947 -0.0007
  125MOL    C9425142   3.910   3.607   0.950 -0.0641 -0.5789  1.1870
  125MOL    C9525143   3.984   3.501   1.026  0.1688  0.3423  0.3774
  125MOL    N9625144   4.089   3.566   1.093 -0.2566  0.2809  0.2237
  125MOL    H9725145   3.920   3.709   0.989 -0.9680  0.4808 -1.2426
  125MOL    H9825146   3.802   3.591   0.950  0.4831 -4.7682  0.1589
  125MOL    H9925147   3.915   3.440   1.084 -0.6270  0.7010 -0.1859
  125MOL   H10025148   4.032   3.424   0.966 -0.8100 -0.3975  0.5402
  125MOL   H10125149   4.161   3.600   1.032 -0.0149  1.1162  0.9636
  125MOL   C10225150   4.089   3.622   1.213 -0.2962 -0.1553 -0.1289
  125MOL   O10325151   3.993   3.602   1.288 -0.0051 -0.0815 -0.0905
  125MOL   C10425152   4.207   3.714   1.246 -0.0407 -0.1813  0.2034
  125MOL   C10525153   4.302   3.647   1.345 -0.3847  0.6105  0.5388
  125MOL   N10625154   4.399   3.544   1.291 -0.6855 -0.0166  0.2268
  125MOL   H10725155   4.167   3.801   1.299  1.7609  0.9761 -0.2762
  125MOL   H10825156   4.254   3.744   1.151  1.4112 -1.3951  0.5211
  125MOL   H10925157   4.362   3.725   1.391 -0.2366 -0.9436  3.0912
  125MOL   H11025158   4.243   3.593   1.420  0.1032  1.2193  1.3631
  125MOL   H11125159   4.394   3.456   1.340 -0.1091 -0.0823  0.1761
  125MOL   C11225160   4.517   3.574   1.233  0.7698 -0.6307 -0.1413
  125MOL   O11325161   4.542   3.690   1.195  0.1489  0.1613 -0.4546
  125MOL   C11425162   4.606   3.457   1.199  0.6032  0.3400 -0.3752
  125MOL   C11525163   4.722   3.499   1.123 -0.2210  0.4834  0.3804
  125MOL   N11625164   4.777   3.381   1.058 -0.3573 -0.0660  0.7595
  125MOL   H11725165   4.549   3.389   1.136  2.6662 -0.1625 -1.7439
  125MOL   H11825166   4.636   3.403   1.290  1.2876  0.7123 -0.3795
  125MOL   H11925167   4.707   3.581   1.053  0.7811  2.3130  2.2300
  125MOL   H12025168   4.796   3.539   1.193  0.4280 -1.6987  0.9705
  125MOL   H12125169   4.748   3.290   1.088  0.9077 -0.0429  2.0973
  125MOL   C12225170   4.868   3.392   0.957  0.5521  0.3475  0.2016
  125MOL   O12325171   4.899   3.504   0.912 -0.2324  0.1498  0.5054
  125MOL   C12425172   4.922   3.262   0.892  0.9947  0.4115 -0.5640
  125MOL   C12525173   4.952   3.270   0.742  0.2444 -0.5929 -0.1498
  125MOL   N12625174   4.835   3.281   0.666  0.0468  0.3527 -0.7036
  125MOL   H12725175   4.857   3.176   0.910  0.4082  0.8745 -0.4448
  125MOL   H12825176   5.010   3.243   0.953 -0.2853 -0.6093  0.9823
  125MOL   H12925177   5.013   3.357   0.715  1.4837 -0.8852  1.6507
  125MOL   H13025178   5.006   3.182   0.708  1.4415  0.2343 -0.4321
  125MOL   H13125179   4.819   3.377   0.637 -0.8895  0.5810  0.5164
  125MOL   C13225180   4.748   3.188   0.629  0.3218 -0.3018 -0.0876
  125MOL   O13325181   4.765   3.068   0.657  0.3245 -0.9505  0.3700
  125MOL   C13425182   4.652   3.227   0.519  0.1705  0.6077 -0.2336
  125MOL   C13525183   4.510   3.161   0.537  0.0273 -0.3001 -0.0743
  125MOL   N13625184   4.452   3.209   0.658 -0.0663  0.7364  0.0732
  125MOL   H13725185   4.695   3.194   0.425 -1.2957  0.6121 -0.9130
  125MOL   H13825186   4.647   3.334   0.500  2.4788  0.4841 -1.7006
  125MOL   H13925187   4.441   3.187   0.457  2.0802  1.2267 -1.4124
  125MOL   H14025188   4.522   3.053   0.543 -0.9482 -0.3386  1.6149
  125MOL   H14125189   4.443   3.150   0.739  1.1890 -1.3607 -1.2781
  125MOL   C14225190   4.386   3.322   0.660  0.8616  0.2317  0.8019
  125MOL   O14325191   4.373   3.403   0.566 -0.1163  0.5261  0.5347
  125MOL   C14425192   4.313   3.349   0.790 -0.2037 -0.3188  0.0466
  125MOL   C14525193   4.412   3.393   0.899  0.1131 -0.9087  0.2522
  125MOL   N14625194   4.475   3.525   0.872  1.1611  0.3655  0.0091
  125MOL   H14725195   4.264   3.257   0.821  0.4835 -1.3792 -1.8899
  125MOL   H14825196   4.234   3.423   0.782 -0.4507 -0.6074 -0.2486
  125MOL   H14925197   4.359   3.394   0.994  2.1357 -1.0500  1.4129
  125MOL   H15025198   4.494   3.325   0.926  0.1682 -2.0517 -2.6749
  125MOL   H15125199   4.571   3.536   0.842  1.1498 -0.0276 -0.1689
  125MOL   C15225200   4.420   3.644   0.892 -0.8545 -0.4454  0.3735
  125MOL   O15325201   4.313   3.658   0.934 -0.1886  0.1137  0.0972
  125MOL   C15425202   4.502   3.770   0.848 -0.0014 -0.8139 -0.3838
  125MOL   C15525203   4.639   3.745   0.783  0.3103 -0.7782  0.3810
  125MOL   N15625204   4.636   3.719   0.640  0.2208 -0.0221 -0.1350
  125MOL   H15725205   4.525   3.825   0.939  0.4673 -0.7795 -0.5259
  125MOL   H15825206   4.446   3.851   0.801 -2.3770 -1.8303  0.5941
  125MOL   H15925207   4.705   3.832   0.786 -0.9162  0.2081 -0.6033
  125MOL   H16025208   4.696   3.669   0.836  0.9295  0.0257  0.8675
  125MOL   H16125209   4.559   3.762   0.592 -0.9304  1.4097  2.8841
  125MOL   C16225210   4.715   3.636   0.570  0.4528  0.5288 -0.5127
  125MOL   O16325211   4.802   3.559   0.623 -0.8831 -0.2036  1.0057
  125MOL   C16425212   4.695   3.636   0.422 -0.2644 -0.1216  0.7371
  125MOL   C16525213   4.728   3.763   0.347 -0.7566 -0.3842 -0.2991
  125MOL   N16625214   4.860   3.822   0.375  0.0545  0.5540  0.3218
  125MOL   H16725215   4.587   3.621   0.420 -0.2882 -0.4177  3.1004
  125MOL   H16825216   4.741   3.546   0.382 -0.6492  0.2560 -0.5989
  125MOL   H16925217   4.714   3.742   0.241  0.2513 -2.1572 -0.0998
  125MOL   H17025218   4.649   3.836   0.364  1.4292  2.0789 -0.3934
  125MOL   H17125219   4.878   3.905   0.430 -1.6170  0.5984  0.8321
  125MOL   C17225220   4.972   3.753   0.341  0.2069  0.1767 -0.4476
  125MOL   O17325221   4.977   3.649   0.275  0.1959  0.2467 -0.3302
  125MOL   C17425222   5.104   3.814   0.395  0.3978 -0.4375  0.7845
  125MOL   C17525223   5.167   3.760   0.523  0.4546  0.0158  0.8201
  125MOL   N17625224   5.076   3.787   0.633  0.2734  0.5292 -0.1311
  125MOL   H17725225   5.090   3.922   0.393  1.1768 -0.3035  1.5951
  125MOL   H17825226   5.178   3.785   0.321  0.2272 -3.6464  1.7574
  125MOL   H17925227   5.184   3.653   0.516  3.2543  0.3680  1.4652
  125MOL   H18025228   5.266   3.806   0.530 -1.2222  4.3470 -1.4880
  125MOL   H18125229   4.980   3.754   0.630  0.5138 -0.1454 -0.4498
  125MOL   C18225230   5.129   3.817   0.752 -0.7936  0.1523 -0.4366
  125MOL   O18325231   5.250   3.831   0.772 -1.1382  0.5584 -0.3767
  125MOL   C18425232   5.032   3.820   0.869  0.2983 -0.0606  0.2436
  125MOL   C18525233   5.076   3.905   0.989 -0.1358  0.1174  0.1837
  125MOL   N18625234   4.974   3.907   1.091  1.1694  0.3000 -0.2359
  125MOL   H18725235   5.013   3.720   0.908 -2.7159  0.2182 -0.4232
  125MOL   H18825236   4.933   3.847   0.833  1.0189  0.7199 -1.1969
  125MOL   H18925237   5.169   3.868   1.033 -0.0681  0.3330  0.2227
  125MOL   H19025238   5.087   4.011   0.970  0.3287  0.0516  0.0719
  125MOL   H19125239   4.970   3.842   1.169 -1.5593 -0.6009 -1.0624
  125MOL   C19225240   4.863   3.979   1.077  0.2345 -0.2809  0.0038
  125MOL   O19325241   4.838   4.060   0.986 -0.7482 -0.1219 -0.4384
  125MOL   C19425242   4.761   3.965   1.193 -0.7955 -0.4591 -0.0946
  125MOL   C19525243   4.629   4.048   1.170  0.2388  0.1747  0.9529
  125MOL   N19625244   4.654   4.186   1.173  0.0108  0.3219  0.3670
  125MOL   H19725245   4.737   3.858   1.193 -2.3216 -0.1340  0.8013
  125MOL   H19825246   4.806   3.993   1.289  1.3838  2.7559 -1.9697
  125MOL   H19925247   4.577   4.011   1.082  0.5348  0.5582  0.6137
  125MOL   H20025248   4.561   4.023   1.251  0.8821 -0.7303  1.2143
  125MOL   H20125249   4.701   4.219   1.089 -1.6413 -1.2406 -1.2141
  125MOL   H20225250   4.566   4.235   1.171 -0.1790 -0.0323 -0.0815
  126MOL     C125251   7.375   4.186   5.386  0.2416  0.5271 -0.1458
  126MOL     O225252   7.403   4.306   5.382 -0.1604 -0.1089  0.1040
  126MOL     C325253   7.251   4.132   5.456  0.0192  0.2035 -0.1726
  126MOL     C425254   7.154   4.242   5.506  0.3904  0.0441  0.6006
  126MOL     N525255   7.036   4.185   5.572 -0.7892 -0.7402 -0.1641
  126MOL     H625256   7.288   4.067   5.535  1.9106 -0.7372 -1.7858
  126MOL     H725257   7.201   4.083   5.373  1.2473 -1.7720  0.2135
  126MOL     H825258   7.126   4.300   5.418  0.6081 -0.5072  0.1622
  126MOL     H925259   7.202   4.310   5.577  2.3759 -0.8677  0.1546
  126MOL    H1025260   7.029   4.084   5.569 -3.1329 -0.5780 -1.7326
  126MOL    H1125261   7.431   4.103   5.343 -1.3092  0.4236 -2.0366
  126MOL    C1225262   6.942   4.254   5.632 -0.0385  0.2816  1.1899
  126MOL    O1325263   6.956   4.375   5.636  0.3981  0.0154  0.1957
  126MOL    C1425264   6.811   4.191   5.679  0.2312  0.1478  0.1437
  126MOL    C1525265   6.686   4.243   5.600 -0.5176 -0.4262  0.5462
  126MOL    N1625266   6.559   4.181   5.638 -0.6331  0.7279  0.0365
  126MOL    H1725267   6.805   4.225   5.783  1.9752  0.7467  0.0726
  126MOL    H1825268   6.823   4.083   5.673 -1.3513  0.0412 -1.5038
  126MOL    H1925269   6.669   4.350   5.607 -0.0475 -0.4161  1.7738
  126MOL    H2025270   6.705   4.218   5.496  0.5509 -1.3776  0.9535
  126MOL    H2125271   6.503   4.232   5.704 -1.1269  1.9276 -1.2786
  126MOL    C2225272   6.515   4.057   5.605 -0.5118 -0.0580  0.1000
  126MOL    O2325273   6.577   3.978   5.531 -0.3665  0.1299 -0.2474
  126MOL    C2425274   6.390   4.007   5.677 -0.2932 -0.9135 -0.0952
  126MOL    C2525275   6.364   3.855   5.658  0.4939  0.6604  0.1375
  126MOL    N2625276   6.241   3.814   5.722  0.9984  0.8138 -0.7464
  126MOL    H2725277   6.306   4.050   5.621  1.3390  2.7117  0.1001
  126MOL    H2825278   6.380   4.045   5.779  2.6324 -2.1384  0.6925
  126MOL    H2925279   6.348   3.846   5.551 -1.7001 -0.8103  0.5684
  126MOL    H3025280   6.442   3.786   5.690 -0.6902 -0.6776  0.1568
  126MOL    H3125281   6.212   3.864   5.804  0.5742 -1.6470  0.6513
  126MOL    C3225282   6.184   3.697   5.684 -0.6943 -0.0417 -0.1755
  126MOL    O3325283   6.210   3.637   5.584 -0.2580  0.0872  0.4684
  126MOL    C3425284   6.067   3.653   5.778 -0.5579 -0.3805  0.6560
  126MOL    C3525285   5.951   3.574   5.711 -0.8221 -0.3998 -0.4584
  126MOL    N3625286   5.868   3.647   5.623 -0.1443  0.1153  0.5052
  126MOL    H3725287   6.030   3.747   5.819  1.4895  1.6631 -1.9855
  126MOL    H3825288   6.104   3.594   5.861 -1.0888 -0.4910  0.8162
  126MOL    H3925289   5.994   3.487   5.660 -0.7105 -2.2798  2.7126
  126MOL    H4025290   5.897   3.540   5.799 -0.7336 -0.0374 -0.2635
  126MOL    H4125291   5.854   3.607   5.532  2.1072 -0.4652  0.3786
  126MOL    C4225292   5.786   3.750   5.644 -0.0448 -0.1334  0.1394
  126MOL    O4325293   5.785   3.818   5.748 -0.2884  0.7637 -0.5944
  126MOL    C4425294   5.696   3.776   5.526 -0.0044 -0.5900 -0.2743
  126MOL    C4525295   5.722   3.916   5.467 -0.0118  0.5263 -0.3368
  126MOL    N4625296   5.656   3.933   5.338  0.3666  0.3515 -0.2263
  126MOL    H4725297   5.729   3.697   5.459  2.8968 -0.8971  1.4188
  126MOL    H4825298   5.591   3.760   5.549 -0.4985  1.7486 -0.7549
  126MOL    H4925299   5.699   4.001   5.530 -0.2883 -0.4409  0.8799
  126MOL    H5025300   5.829   3.911   5.448 -0.4057  1.4078 -3.0530
  126MOL    H5125301   5.711   3.927   5.254 -1.0633 -0.1471 -1.1631
  126MOL    C5225302   5.521   3.956   5.316 -0.0683  0.2163 -0.1031
  126MOL    O5325303   5.440   3.952   5.403  0.7180  0.2480 -0.2022
  126MOL    C5425304   5.474   3.974   5.175 -0.3866 -0.1503 -0.0777
  126MOL    C5525305   5.356   4.072   5.169 -0.0870  0.1724  0.1242
  126MOL    N5625306   5.314   4.090   5.031  0.4722 -0.4352  0.5386
  126MOL    H5725307   5.555   4.015   5.115  0.2339  0.5389  1.2106
  126MOL    H5825308   5.453   3.879   5.126 -1.5555 -0.0377  0.1968
  126MOL    H5925309   5.385   4.167   5.214 -2.6330  0.3567  1.5110
  126MOL    H6025310   5.272   4.028   5.224  1.2666 -2.6371 -0.0105
  126MOL    H6125311   5.343   4.175   4.987 -3.3583  0.4478 -0.4190
  126MOL    C6225312   5.218   4.023   4.971  0.3900 -0.7334 -0.1092
  126MOL    O6325313   5.177   3.917   5.009  0.0583 -0.2519 -0.1881
  126MOL    C6425314   5.149   4.096   4.855  0.6405  0.6412  0.4988
  126MOL    C6525315   5.057   4.013   4.772  0.1063  0.4843 -0.2970
  126MOL    N6625316   5.041   4.070   4.640 -0.0730  0.0668 -0.0050
  126MOL    H6725317   5.095   4.183   4.891 -3.8079 -1.3102 -1.1131
  126MOL    H6825318   5.230   4.128   4.789 -0.2900  0.4038 -0.7745
  126MOL    H6925319   5.092   3.910   4.769 -1.4344 -0.0802  0.4178
  126MOL    H7025320   4.955   4.003   4.811  0.5552 -2.3551  0.2230
  126MOL    H7125321   5.067   4.167   4.625  0.5161 -0.1499 -0.4161
  126MOL    C7225322   5.017   4.003   4.528  0.6355 -0.8969 -0.5092
  126MOL    O7325323   5.004   3.882   4.528 -0.0862 -0.5022 -0.3548
  126MOL    C7425324   5.015   4.074   4.394 -0.1055 -0.2439  0.5374
  126MOL    C7525325   4.906   4.027   4.291 -0.0986 -0.2568  0.3253
  126MOL    N7625326   4.787   4.100   4.307  0.6387 -0.1622 -0.2639
  126MOL    H7725327   5.011   4.180   4.419 -0.1324 -0.0804 -0.1521
  126MOL    H7825328   5.112   4.059   4.347 -0.7353  1.0025 -1.2150
  126MOL    H7925329   4.938   4.027   4.187 -1.4087  0.2922 -0.0867
  126MOL    H8025330   4.882   3.924   4.318  1.4760 -0.8555 -0.4927
  126MOL    H8125331   4.782   4.142   4.399  2.3568  0.7732 -0.5603
  126MOL    C8225332   4.710   4.155   4.206 -0.0822 -0.3445  0.0270
  126MOL    O8325333   4.717   4.109   4.089 -0.2228 -0.6760 -0.2260
  126MOL    C8425334   4.626   4.280   4.237  0.5579 -0.1144 -0.2360
  126MOL    C8525335   4.662   4.393   4.141  0.6858  0.3566 -0.1659
  126MOL    N8625336   4.756   4.487   4.194  0.4853 -0.0885  0.0274
  126MOL    H8725337   4.519   4.266   4.222  0.7013  0.2061 -1.6026
  126MOL    H8825338   4.631   4.303   4.344  0.7804  0.3742 -0.3486
  126MOL    H8925339   4.686   4.354   4.042  0.1264  4.2981 -1.9859
  126MOL    H9025340   4.573   4.448   4.111  0.9199  1.1413  0.5373
  126MOL    H9125341   4.729   4.583   4.206 -0.8880 -0.5906  1.0473
  126MOL    C9225342   4.887   4.475   4.213 -0.6642 -0.1966  1.1449
  126MOL    O9325343   4.940   4.367   4.184  1.0819 -0.0873 -0.4292
  126MOL    C9425344   4.969   4.591   4.266 -0.1180 -0.4347  0.1780
  126MOL    C9525345   5.009   4.573   4.413  0.3959  0.3117 -0.2575
  126MOL    N9625346   5.124   4.479   4.420 -0.3092  0.4240 -0.4702
  126MOL    H9725347   5.055   4.619   4.205  1.3675 -1.8851  1.5460
  126MOL    H9825348   4.906   4.680   4.268  1.4424  0.6576  2.2212
  126MOL    H9925349   5.036   4.672   4.449 -0.8756  0.4374  0.3894
  126MOL   H10025350   4.918   4.543   4.465  1.0503  1.2019  1.4492
  126MOL   H10125351   5.181   4.477   4.337  1.1805  1.4516  0.5123
  126MOL   C10225352   5.157   4.393   4.513 -0.3873 -0.3602  0.6252
  126MOL   O10325353   5.099   4.370   4.614  0.3290 -0.1216 -0.2202
  126MOL   C10425354   5.265   4.304   4.471  0.1162 -0.2682  0.3342
  126MOL   C10525355   5.407   4.362   4.514  0.1337  0.2167  0.0594
  126MOL   N10625356   5.513   4.303   4.437 -0.5899 -0.2728  0.3430
  126MOL   H10725357   5.263   4.303   4.362  3.1309  1.2292  0.2123
  126MOL   H10825358   5.252   4.211   4.526  0.5592  0.0656  1.0025
  126MOL   H10925359   5.406   4.471   4.501  0.3451  0.4771  2.0211
  126MOL   H11025360   5.419   4.358   4.622  0.3621  0.9394  0.0682
  126MOL   H11125361   5.494   4.211   4.400 -2.8376  0.3997 -0.2515
  126MOL   C11225362   5.617   4.375   4.388  0.0648 -0.6637 -0.7602
  126MOL   O11325363   5.644   4.500   4.402 -0.0281  0.0325 -0.4906
  126MOL   C11425364   5.711   4.289   4.303 -0.4404  0.0122 -0.6331
  126MOL   C11525365   5.738   4.364   4.174  0.2339 -0.0455  0.6733
  126MOL   N11625366   5.818   4.295   4.075  0.1737  0.4207  0.3779
  126MOL   H11725367   5.660   4.194   4.284 -1.1054 -0.4146  2.9189
  126MOL   H11825368   5.802   4.272   4.361 -1.1206  1.6140  0.9351
  126MOL   H11925369   5.640   4.391   4.135 -0.7512 -0.9211  2.4783
  126MOL   H12025370   5.777   4.465   4.189  3.4095 -0.8973 -1.4816
  126MOL   H12125371   5.917   4.314   4.082  0.0883  0.2871  2.1136
  126MOL   C12225372   5.772   4.236   3.965  0.3316 -0.4111 -0.3038
  126MOL   O12325373   5.653   4.209   3.935  0.1501  0.6342  0.2045
  126MOL   C12425374   5.884   4.193   3.875  0.1610  0.6510  0.6127
  126MOL   C12525375   5.850   4.138   3.732 -0.2180  0.3123  0.6987
  126MOL   N12625376   5.860   3.992   3.732 -0.2366  0.0155  0.2504
  126MOL   H12725377   5.943   4.129   3.941 -0.3815 -0.0866  0.3931
  126MOL   H12825378   5.951   4.278   3.867  0.5390  0.4567  1.6226
  126MOL   H12925379   5.751   4.165   3.695  1.1578  0.8024 -2.7845
  126MOL   H13025380   5.924   4.175   3.661 -0.3229  1.6710  1.2802
  126MOL   H13125381   5.820   3.947   3.812 -0.5388  0.2728  0.2440
  126MOL   C13225382   5.896   3.915   3.635  0.2862 -0.2538 -0.0372
  126MOL   O13325383   5.942   3.957   3.525  0.4547 -0.0532  0.1116
  126MOL   C13425384   5.847   3.772   3.639  0.2276  1.1142 -0.6908
  126MOL   C13525385   5.720   3.768   3.549 -0.2708 -0.1098  0.0724
  126MOL   N13625386   5.604   3.799   3.633  0.1755 -0.4821  0.3298
  126MOL   H13725387   5.825   3.734   3.739 -1.2374  2.0461 -0.6475
  126MOL   H13825388   5.923   3.712   3.588 -0.9863  0.7616 -2.1263
  126MOL   H13925389   5.736   3.841   3.470  0.0176  1.5163  1.6018
  126MOL   H14025390   5.708   3.675   3.493  1.7810 -0.9243  0.9442
  126MOL   H14125391   5.593   3.890   3.676 -2.7666 -0.7483  0.1839
  126MOL   C14225392   5.531   3.719   3.706  0.2348 -0.1342 -0.3690
  126MOL   O14325393   5.541   3.597   3.694 -0.2825  0.0079 -0.1293
  126MOL   C14425394   5.431   3.783   3.801  0.1133 -0.5009  0.1135
  126MOL   C14525395   5.285   3.727   3.770 -0.4205 -0.8967 -0.1921
  126MOL   N14625396   5.224   3.801   3.664  0.1118 -0.1647  0.6310
  126MOL   H14725397   5.428   3.892   3.799  0.4705 -0.5059 -1.3836
  126MOL   H14825398   5.467   3.758   3.901 -0.1447  0.6906  0.5150
  126MOL   H14925399   5.281   3.618   3.769 -0.7061 -0.8792 -2.2774
  126MOL   H15025400   5.221   3.756   3.854  1.3102  1.7384  0.2525
  126MOL   H15125401   5.173   3.883   3.695 -2.2294 -1.9275  1.5504
  126MOL   C15225402   5.211   3.763   3.537  0.1747 -0.2885 -0.2315
  126MOL   O15325403   5.219   3.642   3.516 -0.2407 -0.8837  0.2870
  126MOL   C15425404   5.164   3.849   3.417  0.0473  0.4217  0.1611
  126MOL   C15525405   5.212   3.800   3.277 -0.4226  0.1537  0.4668
  126MOL   N15625406   5.344   3.844   3.236  0.4748  0.0522 -0.1747
  126MOL   H15725407   5.205   3.949   3.431  0.4324  0.2469  0.2741
  126MOL   H15825408   5.056   3.860   3.409  0.1001  0.8933  0.0618
  126MOL   H15925409   5.216   3.691   3.266 -0.1399  0.1342  0.7636
  126MOL   H16025410   5.152   3.851   3.202  2.7564  0.7052 -1.8216
  126MOL   H16125411   5.348   3.942   3.213 -0.9170  0.0878 -0.2859
  126MOL   C16225412   5.455   3.771   3.224 -0.6905 -0.3444  0.0707
  126MOL   O16325413   5.465   3.660   3.272  0.3279  0.0880  0.7549
  126MOL   C16425414   5.574   3.835   3.166 -0.0285 -0.3965  0.3846
  126MOL   C16525415   5.589   3.789   3.020 -0.7646  0.3986  0.0672
  126MOL   N16625416   5.499   3.861   2.929 -0.0945  0.3794 -0.3773
  126MOL   H16725417   5.656   3.792   3.224  1.7148  0.8199 -1.0994
  126MOL   H16825418   5.597   3.940   3.186  1.7140 -0.8819  1.0766
  126MOL   H16925419   5.696   3.784   2.997 -1.0250 -1.4649 -0.7839
  126MOL   H17025420   5.550   3.688   3.015 -1.7152  0.8372 -2.2247
  126MOL   H17125421   5.408   3.818   2.918  0.8244 -1.2056 -1.9803
  126MOL   C17225422   5.522   3.980   2.871 -0.3285  0.1553  0.5767
  126MOL   O17325423   5.629   4.041   2.874 -0.4382  0.2185  0.1398
  126MOL   C17425424   5.403   4.039   2.793 -0.2917 -0.1368  0.3621
  126MOL   C17525425   5.288   4.092   2.884  0.4111 -0.1606  0.4396
  126MOL   N17625426   5.305   4.210   2.957  0.6087  0.1461 -0.1786
  126MOL   H17725427   5.369   3.961   2.725 -1.2466  1.2280 -0.7495
  126MOL   H17825428   5.425   4.118   2.721  3.3804 -0.9269  0.5389
  126MOL   H17925429   5.208   4.115   2.814  0.5773  0.0129  0.3069
  126MOL   H18025430   5.260   4.012   2.953 -0.7770 -1.4962 -1.5271
  126MOL   H18125431   5.286   4.299   2.914  0.3942 -0.6483 -1.7328
  126MOL   C18225432   5.328   4.204   3.093  0.2739  0.3008 -0.4643
  126MOL   O18325433   5.346   4.100   3.157  0.1346  0.4695  0.1875
  126MOL   C18425434   5.347   4.339   3.158 -0.4303 -0.8151 -0.3172
  126MOL   C18525435   5.249   4.380   3.269 -0.4227 -0.5924 -0.0558
  126MOL   N18625436   5.291   4.301   3.394 -0.1846  0.6721  0.6198
  126MOL   H18725437   5.331   4.412   3.078  0.7581 -0.7991 -0.5529
  126MOL   H18825438   5.452   4.354   3.182 -0.4150 -1.6186  0.1549
  126MOL   H18925439   5.254   4.487   3.285 -0.3055 -0.6721  0.4582
  126MOL   H19025440   5.144   4.354   3.257 -0.5916  0.5816 -1.2329
  126MOL   H19125441   5.354   4.224   3.378 -1.5976 -0.7225  1.6154
  126MOL   C19225442   5.248   4.319   3.518 -0.1062 -0.0487 -0.4232
  126MOL   O19325443   5.179   4.417   3.547 -0.1038 -0.3033 -0.0035
  126MOL   C19425444   5.285   4.210   3.626  0.4506 -0.2440 -0.3445
  126MOL   C19525445   5.435   4.173   3.636 -0.3314 -0.4000 -0.0094
  126MOL   N19625446   5.528   4.283   3.679  0.0066  0.3983  0.9380
  126MOL   H19725447   5.245   4.253   3.717 -0.5775  0.2583 -1.0227
  126MOL   H19825448   5.231   4.118   3.607  0.1672 -0.3978  1.2115
  126MOL   H19925449   5.452   4.089   3.703 -0.9336 -1.3349 -0.9945
  126MOL   H20025450   5.471   4.139   3.538  0.1392  0.1406 -0.0228
  126MOL   H20125451   5.570   4.261   3.768  0.2809 -1.8888  0.2759
  126MOL   H20225452   5.607   4.301   3.619 -0.8028  3.0461  0.5898
  127MOL     C125453   5.381   1.432   6.240 -0.0158  0.0770 -0.8828
  127MOL     O225454   5.478   1.473   6.176  0.0378  0.5905  0.3386
  127MOL     C325455   5.392   1.349   6.367 -0.5192 -0.0229  0.3725
  127MOL     C425456   5.422   1.435   6.492 -0.3005  0.1715  0.5308
  127MOL     N525457   5.565   1.447   6.498  0.1510 -0.0553  0.3265
  127MOL     H625458   5.468   1.271   6.356 -0.0624  0.2677  1.4712
  127MOL     H725459   5.297   1.296   6.375 -0.4778 -0.1672 -0.0888
  127MOL     H825460   5.387   1.385   6.583 -0.4191 -0.6191  0.0560
  127MOL     H925461   5.368   1.530   6.493  0.7547  0.8032 -1.1594
  127MOL    H1025462   5.609   1.358   6.513  1.9839  0.8804  0.7476
  127MOL    H1125463   5.279   1.445   6.205 -0.8951 -2.9787  0.3801
  127MOL    C1225464   5.646   1.552   6.499  0.6110  1.1246  0.2724
  127MOL    O1325465   5.602   1.662   6.487 -0.3545 -0.1386  0.1937
  127MOL    C1425466   5.790   1.526   6.526  0.7101 -0.2149 -0.2597
  127MOL    C1525467   5.865   1.650   6.578  0.0012  0.0566  0.0685
  127MOL    N1625468   6.012   1.644   6.554 -0.0404  0.0055  0.5335
  127MOL    H1725469   5.839   1.487   6.437  0.3428 -1.0904 -0.0835
  127MOL    H1825470   5.800   1.452   6.606 -2.6565  0.3364  0.7468
  127MOL    H1925471   5.843   1.753   6.548  0.0708  0.1612  0.3761
  127MOL    H2025472   5.854   1.642   6.686 -1.7019 -0.1945 -0.0989
  127MOL    H2125473   6.061   1.565   6.593  0.7451  0.8176  1.2054
  127MOL    C2225474   6.079   1.710   6.460  0.1748 -0.5495 -0.4569
  127MOL    O2325475   6.039   1.807   6.398  0.6890 -0.0667  1.2002
  127MOL    C2425476   6.225   1.663   6.446  0.2464  0.0357  0.3363
  127MOL    C2525477   6.287   1.690   6.310 -0.3413  0.5040 -0.5696
  127MOL    N2625478   6.238   1.595   6.216 -0.2460 -0.0067  0.5525
  127MOL    H2725479   6.236   1.556   6.464 -2.6315 -0.2741  0.4533
  127MOL    H2825480   6.287   1.716   6.518 -0.9771  0.2661  1.2309
  127MOL    H2925481   6.261   1.788   6.270 -0.1801  0.5400 -0.5868
  127MOL    H3025482   6.395   1.680   6.309 -0.5556 -2.4790  0.7721
  127MOL    H3125483   6.144   1.599   6.180  0.4113 -0.6138 -1.3112
  127MOL    C3225484   6.305   1.487   6.166  0.7078 -0.6487  0.7162
  127MOL    O3325485   6.426   1.470   6.188 -0.2758 -0.9188 -0.4814
  127MOL    C3425486   6.222   1.387   6.091 -0.0908 -0.1223  0.2685
  127MOL    C3525487   6.308   1.349   5.965  0.0582  0.9749  0.3414
  127MOL    N3625488   6.226   1.295   5.857  0.0161 -0.2598 -0.3640
  127MOL    H3725489   6.125   1.430   6.066  0.1597  0.6674  0.6331
  127MOL    H3825490   6.195   1.294   6.142  0.2965  0.5657  1.7713
  127MOL    H3925491   6.369   1.431   5.926  0.6596  0.6349  0.5644
  127MOL    H4025492   6.379   1.269   5.986  1.4043  1.9459 -0.4413
  127MOL    H4125493   6.143   1.351   5.844 -1.1113 -1.7626  0.2311
  127MOL    C4225494   6.225   1.170   5.820  0.0409 -1.2198 -0.6331
  127MOL    O4325495   6.313   1.086   5.844  0.0475  0.2795 -0.1115
  127MOL    C4425496   6.104   1.115   5.744 -0.9129 -0.0741 -0.4558
  127MOL    C4525497   6.140   1.015   5.635  0.5282 -0.4047 -0.4681
  127MOL    N4625498   6.110   0.881   5.656 -0.6132 -0.2339 -0.6736
  127MOL    H4725499   6.029   1.074   5.812 -2.0662  0.8001 -1.1924
  127MOL    H4825500   6.043   1.192   5.698 -1.3680 -0.5888 -0.7241
  127MOL    H4925501   6.117   1.044   5.532 -0.9098 -0.6880 -0.2464
  127MOL    H5025502   6.247   0.996   5.627  0.7226  1.3069 -2.4176
  127MOL    H5125503   6.190   0.824   5.678  2.1155  2.9485 -1.8373
  127MOL    C5225504   5.991   0.819   5.629 -0.0338  0.4996 -0.5760
  127MOL    O5325505   5.893   0.880   5.594  0.3915 -0.3212  0.3328
  127MOL    C5425506   5.988   0.666   5.634  0.4658 -0.3944 -0.2289
  127MOL    C5525507   5.903   0.597   5.746  0.5834 -0.3032  0.9177
  127MOL    N5625508   5.842   0.477   5.702  0.0925  0.1726 -0.1865
  127MOL    H5725509   5.947   0.629   5.540 -2.6011 -4.1343  2.4551
  127MOL    H5825510   6.090   0.629   5.619  0.9677  1.3012 -1.1388
  127MOL    H5925511   5.829   0.666   5.785  0.1153  0.7098 -1.6316
  127MOL    H6025512   5.969   0.555   5.822 -3.0438 -2.8958  2.7609
  127MOL    H6125513   5.885   0.422   5.630 -1.9968  0.2243 -1.4951
  127MOL    C6225514   5.734   0.427   5.756 -0.2128 -0.3607  0.7049
  127MOL    O6325515   5.669   0.483   5.841 -0.2689  0.0026  0.4172
  127MOL    C6425516   5.687   0.289   5.718  0.2369 -0.3614  1.1444
  127MOL    C6525517   5.747   0.182   5.812  0.3793  0.0473 -0.5322
  127MOL    N6625518   5.715   0.054   5.763 -0.3652  0.4894 -0.1752
  127MOL    H6725519   5.578   0.295   5.717  0.1896 -1.2708 -0.0542
  127MOL    H6825520   5.715   0.269   5.615 -1.9583  0.5222  0.3602
  127MOL    H6925521   5.855   0.196   5.823  0.5286  0.4855 -2.5187
  127MOL    H7025522   5.710   0.204   5.912 -0.2911  1.8902 -1.1572
  127MOL    H7125523   5.794   0.003   5.727 -0.2036  0.0772  0.7573
  127MOL    C7225524   5.593   7.776   5.768  0.1686 -0.0729  0.7824
  127MOL    O7325525   5.500   0.051   5.825  0.0185  0.5633  0.3848
  127MOL    C7425526   5.564   7.647   5.688 -0.1330  0.4176 -0.0925
  127MOL    C7525527   5.459   7.655   5.577  0.0893 -0.3006 -0.7419
  127MOL    N7625528   5.504   7.678   5.439 -0.6613 -0.4166 -0.0274
  127MOL    H7725529   5.659   7.612   5.647 -0.5230 -0.5623 -0.1773
  127MOL    H7825530   5.522   7.574   5.758  0.3737  1.7397  1.6098
  127MOL    H7925531   5.394   7.568   5.580  0.9223 -0.9816 -2.0682
  127MOL    H8025532   5.393   7.738   5.605 -2.5296 -2.0184 -1.6915
  127MOL    H8125533   5.512   7.603   5.371  1.0270 -0.3561  0.0823
  127MOL    C8225534   5.543   0.014   5.386  0.4127  0.0961  0.1114
  127MOL    O8325535   5.531   0.125   5.437  0.0521  0.6065  0.3619
  127MOL    C8425536   5.581   7.780   5.236 -0.2531 -0.2154 -0.7310
  127MOL    C8525537   5.579   0.130   5.158  0.0372 -0.0293 -0.7580
  127MOL    N8625538   5.451   0.171   5.128  0.0747  0.4000 -1.1675
  127MOL    H8725539   5.684   7.745   5.228 -0.0075  0.4469 -0.4322
  127MOL    H8825540   5.520   7.705   5.185 -2.4756  0.0496  1.4475
  127MOL    H8925541   5.622   0.212   5.215  2.1617 -2.8456  1.8549
  127MOL    H9025542   5.642   0.130   5.069 -0.3993 -0.3186 -1.0693
  127MOL    H9125543   5.406   0.241   5.186 -0.3019 -1.0764  0.3738
  127MOL    C9225544   5.372   0.106   5.042  0.5777  0.1110 -0.0112
  127MOL    O9325545   5.406   0.010   4.970 -0.2520 -0.4324  0.1109
  127MOL    C9425546   5.221   0.141   5.038 -0.0103 -0.4341  0.7889
  127MOL    C9525547   5.166   0.244   5.139  0.1063 -0.2993  0.0147
  127MOL    N9625548   5.167   0.195   5.274  1.2200 -0.0137 -0.7914
  127MOL    H9725549   5.208   0.178   4.937  0.2184  0.7067  1.1620
  127MOL    H9825550   5.171   0.047   5.058  0.6426 -0.7714  0.8703
  127MOL    H9925551   5.214   0.340   5.117 -0.0932 -0.5611 -1.6514
  127MOL   H10025552   5.060   0.260   5.115  0.5785  1.9952 -0.7576
  127MOL   H10125553   5.108   0.120   5.307  0.3391  1.4273  0.9963
  127MOL   C10225554   5.230   0.258   5.370  0.3835 -0.0779 -0.0644
  127MOL   O10325555   5.273   0.372   5.355  0.2675  0.3653 -0.1484
  127MOL   C10425556   5.229   0.196   5.511 -0.0943 -0.6806  0.8967
  127MOL   C10525557   5.300   0.269   5.626 -0.1114  0.0235  0.8080
  127MOL   N10625558   5.231   0.380   5.681 -0.9149  0.3736  0.0145
  127MOL   H10725559   5.268   0.095   5.501  0.5210 -0.3643  0.0414
  127MOL   H10825560   5.123   0.193   5.537  0.5601 -1.2483  3.6343
  127MOL   H10925561   5.334   0.194   5.698 -1.0907 -2.2251 -1.0138
  127MOL   H11025562   5.392   0.306   5.579 -0.7902  0.2005 -0.3961
  127MOL   H11125563   5.249   0.469   5.637  2.2225  0.4837  1.4451
  127MOL   C11225564   5.142   0.372   5.783  0.8182  0.0222 -0.1255
  127MOL   O11325565   5.122   0.266   5.842  0.1135 -0.0593  0.3478
  127MOL   C11425566   5.070   0.497   5.826  0.3981 -0.3443  0.2071
  127MOL   C11525567   4.924   0.483   5.821 -0.1009  0.4589  0.6679
  127MOL   N11625568   4.860   0.588   5.899 -0.1018 -0.4773 -0.6901
  127MOL   H11725569   5.091   0.571   5.749 -0.7888  0.3071  0.5022
  127MOL   H11825570   5.105   0.535   5.922 -0.2880 -1.0562  0.7472
  127MOL   H11925571   4.887   0.482   5.718 -1.9663  0.7624  1.3150
  127MOL   H12025572   4.897   0.390   5.871  0.6230  0.1383  0.4713
  127MOL   H12125573   4.922   0.662   5.928  0.2407 -0.5046 -1.3433
  127MOL   C12225574   4.730   0.593   5.942 -0.0583  0.2600  0.1477
  127MOL   O12325575   4.645   0.513   5.908 -0.8556 -0.0469  0.3506
  127MOL   C12425576   4.696   0.716   6.024 -0.4248 -0.5527 -0.3892
  127MOL   C12525577   4.563   0.713   6.102 -0.2086 -0.6076 -0.2172
  127MOL   N12625578   4.445   0.744   6.021 -0.2486  0.0623  0.1312
  127MOL   H12725579   4.686   0.797   5.952 -0.5070 -0.0316  0.2065
  127MOL   H12825580   4.779   0.738   6.092  0.6868  1.1336 -2.2235
  127MOL   H12925581   4.543   0.612   6.139  0.4903 -0.6697  0.0012
  127MOL   H13025582   4.572   0.768   6.195 -1.8805  2.3600 -1.7329
  127MOL   H13125583   4.451   0.733   5.920  2.6419 -0.0451  0.2718
  127MOL   C13225584   4.328   0.780   6.076  0.8373  0.4061  0.0780
  127MOL   O13325585   4.302   0.801   6.195 -0.0642 -0.0407 -0.2638
  127MOL   C13425586   4.205   0.783   5.981  0.9119  0.0349 -0.1012
  127MOL   C13525587   4.069   0.809   6.049 -0.0308  0.8170  0.5091
  127MOL   N13625588   3.954   0.791   5.969  0.5371 -0.1061 -0.1932
  127MOL   H13725589   4.196   0.691   5.923  0.8532 -1.2613  1.9268
  127MOL   H13825590   4.224   0.867   5.914 -0.8115  1.5260  1.2113
  127MOL   H13925591   4.040   0.744   6.132  2.9299  0.0911  1.0231
  127MOL   H14025592   4.069   0.914   6.079 -0.2787  0.8870  0.2637
  127MOL   H14125593   3.900   0.707   5.985  0.0424  0.3760  0.6844
  127MOL   C14225594   3.902   0.873   5.882 -0.1482  0.3103 -0.1273
  127MOL   O14325595   3.961   0.968   5.839 -0.0739  0.1917  0.2823
  127MOL   C14425596   3.767   0.832   5.820 -0.0026  1.0211 -0.6120
  127MOL   C14525597   3.651   0.932   5.830 -0.3298 -0.0880  0.0277
  127MOL   N14625598   3.539   0.889   5.745  0.7472  0.2651 -0.3357
  127MOL   H14725599   3.734   0.738   5.865 -1.3999  3.0250  2.7535
  127MOL   H14825600   3.785   0.802   5.717 -0.6085  0.4221 -0.5522
  127MOL   H14925601   3.621   0.966   5.930 -0.3099  1.2421 -0.4102
  127MOL   H15025602   3.692   1.019   5.780 -0.5929  0.3710  0.5933
  127MOL   H15125603   3.547   0.902   5.646  1.0125  1.3765 -0.1676
  127MOL   C15225604   3.433   0.834   5.797  0.5794  0.1881  0.8748
  127MOL   O15325605   3.417   0.815   5.918 -0.6250  0.4201  0.0669
  127MOL   C15425606   3.324   0.794   5.696 -0.1392 -0.4966  0.4269
  127MOL   C15525607   3.195   0.730   5.753  0.2216 -0.3435 -0.9700
  127MOL   N15625608   3.140   0.613   5.685  0.2702  0.2168  0.2879
  127MOL   H15725609   3.374   0.732   5.622  0.9794 -0.8519  1.4869
  127MOL   H15825610   3.296   0.879   5.634  0.7232 -0.7567 -0.3349
  127MOL   H15925611   3.193   0.725   5.862 -0.1192  0.7804 -0.9143
  127MOL   H16025612   3.109   0.796   5.746 -1.0979 -1.8404  0.7071
  127MOL   H16125613   3.049   0.621   5.643  0.2559 -2.4544 -0.2935
  127MOL   C16225614   3.190   0.490   5.687  0.1313 -0.2081 -0.0040
  127MOL   O16325615   3.299   0.454   5.737  0.3368 -0.4398  0.5758
  127MOL   C16425616   3.089   0.400   5.622 -0.1109  0.4958  0.0879
  127MOL   C16525617   3.173   0.319   5.513 -0.3229 -0.1062 -0.4358
  127MOL   N16625618   3.110   0.309   5.387 -0.5946  0.0283  0.4826
  127MOL   H16725619   3.019   0.460   5.564 -0.1740 -0.3811 -0.7625
  127MOL   H16825620   3.043   0.341   5.701  0.6872  1.1911  1.0728
  127MOL   H16925621   3.272   0.361   5.499 -0.6462  2.0078  2.9198
  127MOL   H17025622   3.192   0.220   5.554  1.6212 -0.2137 -1.5316
  127MOL   H17125623   3.084   0.397   5.346 -1.0026 -0.8497 -1.1854
  127MOL   C17225624   3.073   0.194   5.325  0.0081  0.0806  0.5774
  127MOL   O17325625   3.130   0.088   5.340 -0.0712 -0.0465 -0.1700
  127MOL   C17425626   2.956   0.211   5.227 -0.4664  0.3431 -0.1709
  127MOL   C17525627   2.964   0.164   5.074  0.0618  0.1795 -0.0245
  127MOL   N17625628   3.082   0.212   5.005 -0.0376 -0.4617 -0.5975
  127MOL   H17725629   2.934   0.318   5.231 -1.7881  0.0605  0.4803
  127MOL   H17825630   2.874   0.170   5.286 -1.6028  2.8292  0.0412
  127MOL   H17925631   2.976   0.058   5.053  0.9827  0.2510  0.1047
  127MOL   H18025632   2.869   0.185   5.025 -1.6680 -1.0801  2.7249
  127MOL   H18125633   3.166   0.156   5.001  0.3490 -0.1354  1.9833
  127MOL   C18225634   3.088   0.332   4.946 -0.8238  0.8422  0.7929
  127MOL   O18325635   2.986   0.390   4.907 -0.0311 -0.3368  0.1528
  127MOL   C18425636   3.231   0.388   4.918  0.4140 -0.3630 -0.1700
  127MOL   C18525637   3.238   0.538   4.929 -0.2608 -0.4750 -0.1295
  127MOL   N18625638   3.360   0.608   4.888 -0.7834 -0.3532 -0.2750
  127MOL   H18725639   3.240   0.357   4.814  0.1432  2.3567 -1.0422
  127MOL   H18825640   3.298   0.332   4.982  0.2271 -0.6629 -0.2363
  127MOL   H18925641   3.161   0.574   4.861 -1.3634  0.6030  1.6737
  127MOL   H19025642   3.204   0.566   5.029  0.2104 -1.2075  0.2355
  127MOL   H19125643   3.440   0.609   4.950 -0.8412  0.1431 -0.2093
  127MOL   C19225644   3.375   0.693   4.783 -0.2564  0.2359  0.0726
  127MOL   O19325645   3.288   0.718   4.701 -0.1008 -0.1319 -0.2121
  127MOL   C19425646   3.502   0.766   4.768 -0.3383 -0.0828 -0.2134
  127MOL   C19525647   3.623   0.705   4.845 -0.3466  0.0428  1.0157
  127MOL   N19625648   3.621   0.727   4.989  0.1153  0.1723  0.5928
  127MOL   H19725649   3.530   0.754   4.664  1.2337 -0.6006  0.2644
  127MOL   H19825650   3.488   0.872   4.787  1.9552  0.1383  0.3604
  127MOL   H19925651   3.628   0.604   4.804 -1.6469  0.5990 -0.6081
  127MOL   H20025652   3.702   0.768   4.805 -1.5794  0.5813 -0.6104
  127MOL   H20125653   3.712   0.716   5.031  0.3875 -0.1527 -0.0785
  127MOL   H20225654   3.588   0.822   4.995  1.6688  0.9726 -2.7870
  128MOL     C125655   0.594   2.988   2.306 -0.2843 -0.1952  0.5859
  128MOL     O225656   0.580   2.939   2.196  0.3460 -0.3259 -0.0923
  128MOL     C325657   0.499   3.094   2.355 -0.6698  0.1682  0.4416
  128MOL     C425658   0.385   3.129   2.256  0.8475 -0.4871  0.1112
  128MOL     N525659   0.305   3.240   2.308  0.2739 -0.3871  0.3107
  128MOL     H625660   0.560   3.185   2.363 -1.4602  0.8824 -1.2910
  128MOL     H725661   0.464   3.065   2.454  0.0494 -1.2281  0.2925
  128MOL     H825662   0.326   3.041   2.231  1.4450 -0.6925 -0.5908
  128MOL     H925663   0.428   3.159   2.161 -0.4339  2.2694  0.3562
  128MOL    H1025664   0.239   3.210   2.378 -0.0777 -1.5155 -0.4841
  128MOL    H1125665   0.668   2.964   2.383  0.1975  1.4746  0.6711
  128MOL    C1225666   0.297   3.363   2.257  0.5719  0.0745 -0.1372
  128MOL    O1325667   0.382   3.398   2.166  0.2370  0.4235  0.1666
  128MOL    C1425668   0.182   3.451   2.302  0.3053 -0.1343  0.2823
  128MOL    C1525669   0.170   3.579   2.215 -0.0439  1.0254 -0.4853
  128MOL    N1625670   0.276   3.681   2.245  0.4112  0.0403 -0.9536
  128MOL    H1725671   0.201   3.486   2.403  1.1396 -0.7058  0.3253
  128MOL    H1825672   0.091   3.391   2.308 -0.6460  1.1897 -0.6118
  128MOL    H1925673   0.180   3.555   2.109 -0.8779  1.3621 -0.6468
  128MOL    H2025674   0.070   3.616   2.240 -1.1391 -2.3530  0.3837
  128MOL    H2125675   0.364   3.652   2.285  0.6058  0.6567 -0.9370
  128MOL    C2225676   0.278   3.805   2.196  0.3489 -0.7360 -0.1291
  128MOL    O2325677   0.182   3.855   2.140  0.1070 -0.1025 -0.2015
  128MOL    C2425678   0.404   3.889   2.220 -0.5522  0.7507  0.6776
  128MOL    C2525679   0.397   3.995   2.331  0.0750  0.2401 -0.2288
  128MOL    N2625680   0.349   4.124   2.282 -0.5070 -0.1538  0.0505
  128MOL    H2725681   0.431   3.934   2.125 -0.8430 -0.9545 -0.2278
  128MOL    H2825682   0.485   3.820   2.244 -0.6408  0.5086  0.2809
  128MOL    H2925683   0.342   3.964   2.419 -3.0558 -0.4708 -2.3621
  128MOL    H3025684   0.498   4.006   2.370 -0.1108  1.6374 -0.1143
  128MOL    H3125685   0.251   4.144   2.269 -0.6523 -0.4463  0.6555
  128MOL    C3225686   0.431   4.236   2.274  0.7035 -0.2087  0.5905
  128MOL    O3325687   0.545   4.245   2.317 -0.0734  0.5552  0.5581
  128MOL    C3425688   0.353   4.355   2.221  0.2582  0.0151  0.3819
  128MOL    C3525689   0.429   4.492   2.226 -0.0510  0.2652 -0.2550
  128MOL    N3625690   0.376   4.584   2.332  0.1026 -0.1688  0.1147
  128MOL    H3725691   0.252   4.360   2.263  0.4525  1.8737  0.6819
  128MOL    H3825692   0.355   4.334   2.114  0.8339  0.6166  0.2706
  128MOL    H3925693   0.537   4.482   2.219 -0.1456 -0.7377 -0.4108
  128MOL    H4025694   0.419   4.549   2.134 -0.2212  0.4616 -0.1146
  128MOL    H4125695   0.362   4.678   2.299 -0.5248 -1.2480 -2.7999
  128MOL    C4225696   0.349   4.557   2.460 -0.1571  0.3212  0.6671
  128MOL    O4325697   0.338   4.438   2.501  0.0764  0.0667  0.0431
  128MOL    C4425698   0.360   4.672   2.561  0.3090  0.0032  0.7241
  128MOL    C4525699   0.299   4.647   2.701  0.2051  0.0209 -0.3967
  128MOL    N4625700   0.405   4.640   2.803 -0.4329  0.1798 -0.0661
  128MOL    H4725701   0.467   4.681   2.577  1.1405 -1.4557 -3.5363
  128MOL    H4825702   0.324   4.764   2.515 -0.4920 -0.1906  0.9576
  128MOL    H4925703   0.236   4.735   2.716  0.4465 -0.2040  2.1690
  128MOL    H5025704   0.239   4.556   2.709  1.1497 -0.7528 -2.0241
  128MOL    H5125705   0.410   4.547   2.840 -3.3757 -0.6332 -1.5448
  128MOL    C5225706   0.453   4.748   2.869 -0.5305 -0.4283 -0.1133
  128MOL    O5325707   0.410   4.863   2.837  0.0524 -0.6774  0.2986
  128MOL    C5425708   0.553   4.734   2.980  0.0391  0.1804  0.6581
  128MOL    C5525709   0.485   4.745   3.122  0.0602 -0.9217 -0.2493
  128MOL    N5625710   0.384   4.646   3.148  0.1873  0.1775 -0.0007
  128MOL    H5725711   0.596   4.634   2.970  2.1503  0.9164  2.0769
  128MOL    H5825712   0.644   4.791   2.963  2.7376 -3.5556  2.0370
  128MOL    H5925713   0.448   4.848   3.123  0.8144 -0.6241 -1.4522
  128MOL    H6025714   0.555   4.747   3.206  1.5277  0.8937 -1.4732
  128MOL    H6125715   0.414   4.558   3.108 -0.8904 -0.4589  0.5449
  128MOL    C6225716   0.276   4.658   3.229  0.3564 -1.6100  0.1413
  128MOL    O6325717   0.247   4.762   3.285 -0.0901 -0.2615  0.0454
  128MOL    C6425718   0.195   4.530   3.257 -0.2854  0.4678  0.1726
  128MOL    C6525719   0.046   4.546   3.221  0.1197 -0.5310 -0.0541
  128MOL    N6625720   7.733   4.478   3.312  1.4555 -0.0247 -0.0642
  128MOL    H6725721   0.236   4.449   3.196  0.6383  1.4964 -0.5756
  128MOL    H6825722   0.213   4.511   3.363 -0.7373 -1.0507  0.0023
  128MOL    H6925723   0.005   4.647   3.232  0.9289 -0.2002 -0.0064
  128MOL    H7025724   0.043   4.527   3.114  0.8695  0.3715 -0.2446
  128MOL    H7125725   7.761   4.419   3.389 -1.4571 -0.6113  0.6163
  128MOL    C7225726   7.605   4.461   3.286 -0.3818 -0.8325  0.6163
  128MOL    O7325727   7.547   4.499   3.181  0.6040  0.0068  0.3146
  128MOL    C7425728   7.519   4.391   3.394 -0.2380  0.1152  0.2309
  128MOL    C7525729   7.494   4.241   3.366  0.3359 -0.9672 -0.0878
  128MOL    N7625730   7.451   4.220   3.231  0.0808 -0.0874  0.3071
  128MOL    H7725731   7.569   4.403   3.490 -1.9232 -1.5984  1.3662
  128MOL    H7825732   7.425   4.445   3.385  0.4906  1.4509  0.4752
  128MOL    H7925733   7.581   4.180   3.389  2.4122  2.0489  0.3372
  128MOL    H8025734   7.411   4.211   3.430 -2.0439 -1.8557 -3.4229
  128MOL    H8125735   7.447   4.300   3.170  3.2222 -1.2534 -1.5410
  128MOL    C8225736   7.421   4.100   3.173  0.3388  0.7713  0.2132
  128MOL    O8325737   7.414   4.005   3.246  0.0301  0.1470  0.4006
  128MOL    C8425738   7.392   4.086   3.023 -0.5817 -0.0000  0.3948
  128MOL    C8525739   7.352   4.211   2.941  0.9437  0.0053  0.5887
  128MOL    N8625740   7.450   4.317   2.919 -0.5690 -0.2156  0.3337
  128MOL    H8725741   7.477   4.038   2.974 -1.8539 -0.2717 -1.6116
  128MOL    H8825742   7.309   4.016   3.018 -0.5279  0.0582 -1.6397
  128MOL    H8925743   7.321   4.179   2.842  1.1295  2.3380 -0.2519
  128MOL    H9025744   7.264   4.261   2.983  1.2025  0.7017  0.3083
  128MOL    H9125745   7.428   4.405   2.962 -0.5048  0.5606 -1.1842
  128MOL    C9225746   7.562   4.300   2.855 -0.6810 -0.5953 -0.0988
  128MOL    O9325747   7.594   4.195   2.799  0.1756 -0.3156 -0.2316
  128MOL    C9425748   7.656   4.423   2.862 -0.7319  0.1626 -0.6000
  128MOL    C9525749   0.027   4.395   2.880  0.2659 -0.3528 -0.9560
  128MOL    N9625750   0.089   4.290   2.799  0.5465 -0.3440 -0.4585
  128MOL    H9725751   7.641   4.477   2.769  1.4052 -0.0754 -1.1107
  128MOL    H9825752   7.629   4.488   2.946  1.5935  1.6808 -0.9909
  128MOL    H9925753   0.081   4.490   2.874 -0.8343  0.4113  0.7845
  128MOL   H10025754   0.038   4.367   2.985 -0.8007  0.4001 -0.6306
  128MOL   H10125755   0.027   4.231   2.745 -0.2960 -0.1426  0.2776
  128MOL   C10225756   0.223   4.271   2.792 -0.3791 -0.0716  0.2710
  128MOL   O10325757   0.307   4.329   2.858  0.4522  0.0090 -0.0181
  128MOL   C10425758   0.257   4.168   2.679  0.2146  0.2394  1.0196
  128MOL   C10525759   0.406   4.138   2.668  1.0119  0.0493 -0.7889
  128MOL   N10625760   0.496   4.252   2.636 -0.0738  0.0142  0.2888
  128MOL   H10725761   0.230   4.223   2.589 -3.0390 -0.0666  1.7347
  128MOL   H10825762   0.190   4.084   2.695 -0.7799  0.8043 -0.0964
  128MOL   H10925763   0.459   4.081   2.745  1.0661  0.5778 -0.4329
  128MOL   H11025764   0.416   4.067   2.585  0.4222 -1.6634  0.5802
  128MOL   H11125765   0.445   4.328   2.595 -0.4438 -0.9181 -1.0211
  128MOL   C11225766   0.625   4.260   2.650 -0.2836  0.7307 -0.0878
  128MOL   O11325767   0.702   4.174   2.704 -0.5331  0.1077  0.0821
  128MOL   C11425768   0.692   4.387   2.589 -0.1030 -0.6348  0.4610
  128MOL   C11525769   0.852   4.377   2.561  0.5022 -0.6755  0.6063
  128MOL   N11625770   0.921   4.504   2.521 -0.1816  0.2669 -0.4307
  128MOL   H11725771   0.671   4.469   2.658  0.1077 -0.8428  0.7720
  128MOL   H11825772   0.637   4.412   2.498  0.9664  0.4028  0.0808
  128MOL   H11925773   0.892   4.333   2.652  1.3074  0.5237  0.8523
  128MOL   H12025774   0.871   4.307   2.480  1.9514  0.6480 -0.2174
  128MOL   H12125775   0.874   4.583   2.479 -1.9567 -1.4971 -1.7868
  128MOL   C12225776   1.054   4.498   2.522 -0.0558  0.1145 -0.2927
  128MOL   O12325777   1.106   4.397   2.568 -0.1554 -0.9069  0.1198
  128MOL   C12425778   1.136   4.618   2.477  0.1797  0.2534  0.2311
  128MOL   C12525779   1.284   4.619   2.520 -0.3950 -0.5214  0.2249
  128MOL   N12625780   1.374   4.570   2.415 -0.1652 -0.1915  0.9192
  128MOL   H12725781   1.097   4.713   2.515 -0.0420  0.0596  0.4887
  128MOL   H12825782   1.125   4.619   2.368  0.9289 -1.1049  0.1404
  128MOL   H12925783   1.304   4.725   2.537 -1.4401 -0.5825  1.9389
  128MOL   H13025784   1.300   4.567   2.614 -1.4172  2.4598  2.1016
  128MOL   H13125785   1.333   4.533   2.330 -0.3454  2.8981 -0.4231
  128MOL   C13225786   1.505   4.547   2.434 -0.3633  0.3174  0.3451
  128MOL   O13325787   1.559   4.567   2.542  0.2718  0.3754 -0.4980
  128MOL   C13425788   1.588   4.487   2.318 -0.1099 -0.1155  0.2527
  128MOL   C13525789   1.727   4.553   2.302  0.1211  0.6547 -0.3851
  128MOL   N13625790   1.822   4.508   2.408 -0.5801  0.2618 -0.1158
  128MOL   H13725791   1.534   4.490   2.223 -1.2253  0.8894  0.9139
  128MOL   H13825792   1.608   4.383   2.345 -0.3871 -0.3474 -0.4174
  128MOL   H13925793   1.777   4.522   2.211  1.2533  2.0947 -0.2704
  128MOL   H14025794   1.718   4.661   2.303 -0.8533  0.5682  1.0923
  128MOL   H14125795   1.783   4.444   2.476  0.2891  1.0488  1.1447
  128MOL   C14225796   1.945   4.551   2.429 -0.0861  0.2790  0.3332
  128MOL   O14325797   2.005   4.631   2.357 -0.1065  0.2193 -0.0376
  128MOL   C14425798   2.018   4.495   2.553 -0.1082  0.5744 -0.1771
  128MOL   C14525799   2.148   4.566   2.589 -0.6232 -0.2028 -0.3330
  128MOL   N14625800   2.217   4.490   2.688  0.2177  0.4249  0.1498
  128MOL   H14725801   2.039   4.390   2.532 -2.0716  0.1140  0.0093
  128MOL   H14825802   1.950   4.500   2.638 -1.5712  1.5133 -1.3661
  128MOL   H14925803   2.203   4.595   2.499  1.9879 -1.5268  0.7568
  128MOL   H15025804   2.133   4.669   2.623  0.1040  0.5857 -2.3449
  128MOL   H15125805   2.197   4.516   2.783  1.2657  3.1215 -0.3351
  128MOL   C15225806   2.311   4.395   2.662 -0.3536  0.5179  0.1185
  128MOL   O15325807   2.355   4.375   2.549 -0.0041  0.2813  0.5378
  128MOL   C15425808   2.364   4.320   2.777 -0.1879  0.5036 -0.5780
  128MOL   C15525809   2.363   4.171   2.769 -0.0827 -0.1254 -0.1797
  128MOL   N15625810   2.226   4.116   2.773 -0.5083  0.0220 -0.8044
  128MOL   H15725811   2.299   4.346   2.861 -0.7521 -0.5984 -0.6567
  128MOL   H15825812   2.467   4.353   2.786  0.1839 -0.8492  0.2887
  128MOL   H15925813   2.411   4.142   2.676 -0.0527  1.7536 -0.7759
  128MOL   H16025814   2.426   4.147   2.854  1.6782  0.5910 -1.2576
  128MOL   H16125815   2.192   4.104   2.868  1.7612  1.6788  0.2641
  128MOL   C16225816   2.141   4.101   2.670 -0.5678  0.2027 -0.5422
  128MOL   O16325817   2.178   4.107   2.550  0.9746 -0.3329 -0.2690
  128MOL   C16425818   1.999   4.059   2.705  0.5572  0.1519 -0.5815
  128MOL   C16525819   1.899   4.093   2.595  0.6312 -0.5363  0.3747
  128MOL   N16625820   1.757   4.104   2.628  0.2568 -0.0968  0.5465
  128MOL   H16725821   1.974   4.120   2.792  1.6606  0.5342 -0.5257
  128MOL   H16825822   2.004   3.954   2.736 -0.3280 -1.0135 -4.1160
  128MOL   H16925823   1.924   4.186   2.544  1.6161 -1.6201 -1.1771
  128MOL   H17025824   1.908   4.020   2.514 -1.9144 -0.1145 -0.3631
  128MOL   H17125825   1.704   4.019   2.639  1.0856 -0.6397  0.4292
  128MOL   C17225826   1.692   4.220   2.639 -0.4435 -0.0186 -0.4216
  128MOL   O17325827   1.749   4.330   2.619  0.2190 -0.3856  0.3776
  128MOL   C17425828   1.540   4.227   2.648 -0.0903 -0.8642 -0.4749
  128MOL   C17525829   1.492   4.309   2.772  0.2099  0.1084  0.5609
  128MOL   N17625830   1.352   4.294   2.799  0.7215  0.7347 -0.1229
  128MOL   H17725831   1.504   4.124   2.659  0.9463 -1.2492 -0.6060
  128MOL   H17825832   1.511   4.284   2.560  0.0682  0.4822  0.3481
  128MOL   H17925833   1.540   4.268   2.860 -1.1253  0.3731  1.4184
  128MOL   H18025834   1.507   4.417   2.764  1.7792 -0.1702 -0.6366
  128MOL   H18125835   1.293   4.366   2.758  0.8648  1.5828  1.1271
  128MOL   C18225836   1.299   4.194   2.869  0.2391  0.1313  0.3623
  128MOL   O18325837   1.363   4.098   2.905 -0.0403  0.3493  0.0278
  128MOL   C18425838   1.151   4.205   2.903  0.6156  0.3057  0.5256
  128MOL   C18525839   1.075   4.075   2.913 -0.4820  0.0199 -0.1848
  128MOL   N18625840   1.037   4.041   3.053  0.2763 -0.2388  0.0025
  128MOL   H18725841   1.091   4.265   2.834  1.0676  1.5132  1.1764
  128MOL   H18825842   1.144   4.271   2.990 -0.2403  0.8518  0.0560
  128MOL   H18925843   0.978   4.078   2.862 -1.3549  0.0034  1.4684
  128MOL   H19025844   1.136   3.990   2.881  0.5006  1.2281 -1.5787
  128MOL   H19125845   1.040   4.111   3.126  1.7946 -1.9289  1.6250
  128MOL   C19225846   0.989   3.924   3.097  0.2545 -0.5944 -0.3749
  128MOL   O19325847   0.991   3.821   3.032 -0.6982  0.5695  0.5122
  128MOL   C19425848   0.924   3.929   3.235 -0.0584  0.6683 -0.0117
  128MOL   C19525849   0.832   3.804   3.250 -0.0436  0.1398  0.1720
  128MOL   N19625850   0.753   3.807   3.378 -0.5913  0.0266 -0.3623
  128MOL   H19725851   0.990   3.934   3.321  1.4265 -1.2945 -1.0145
  128MOL   H19825852   0.857   4.016   3.237 -1.7836 -0.5949 -0.9287
  128MOL   H19925853   0.770   3.783   3.163 -0.1562  0.0339  0.2772
  128MOL   H20025854   0.891   3.712   3.248  0.5781  0.5470 -0.2377
  128MOL   H20125855   0.764   3.877   3.450  1.1953 -0.1358 -0.4535
  128MOL   H20225856   0.656   3.814   3.354 -0.8040  0.4679  0.6114
  129MOL     C125857   0.439   2.874   3.862  0.7834  0.4375  0.5075
  129MOL     O225858   0.396   2.766   3.824  0.0499 -0.5219 -0.0804
  129MOL     C325859   0.452   2.904   4.011 -0.5228  0.5711 -0.3817
  129MOL     C425860   0.488   2.784   4.103  0.2663 -0.3977 -0.5304
  129MOL     N525861   0.475   2.814   4.245  0.2586 -0.0359 -0.4020
  129MOL     H625862   0.355   2.947   4.036 -0.3578  1.6896 -1.5939
  129MOL     H725863   0.535   2.974   4.015  1.4530 -1.7052 -0.6773
  129MOL     H825864   0.588   2.746   4.082  0.3135  0.0969 -1.2167
  129MOL     H925865   0.419   2.702   4.079  1.3759 -1.5187  0.0690
  129MOL    H1025866   0.384   2.802   4.287  0.1028  0.4087 -0.6068
  129MOL    H1125867   0.491   2.940   3.793 -0.7899 -1.2144 -2.3253
  129MOL    C1225868   0.571   2.842   4.329 -1.2728 -0.7118  0.3695
  129MOL    O1325869   0.690   2.842   4.301 -0.2301 -0.1666 -0.4129
  129MOL    C1425870   0.528   2.857   4.476  0.3230 -0.3398 -0.0400
  129MOL    C1525871   0.646   2.889   4.573  0.4585  0.1781  0.6523
  129MOL    N1625872   0.618   2.896   4.710  0.4003  0.2052 -0.1418
  129MOL    H1725873   0.484   2.763   4.512  2.0906 -0.6372  1.4335
  129MOL    H1825874   0.446   2.928   4.487 -1.0779 -1.6330 -1.7405
  129MOL    H1925875   0.718   2.807   4.565  0.6747  0.4260 -0.0419
  129MOL    H2025876   0.692   2.980   4.534  0.3560 -0.3500 -0.7185
  129MOL    H2125877   0.620   2.804   4.753  2.9440  1.4860  2.7123
  129MOL    C2225878   0.572   3.008   4.768  0.7314  0.2145 -0.3983
  129MOL    O2325879   0.545   3.106   4.704 -0.1925  0.0057 -0.0976
  129MOL    C2425880   0.549   3.024   4.925 -0.1303 -0.0116  0.1099
  129MOL    C2525881   0.632   2.933   5.015  0.4358  0.2984 -0.4022
  129MOL    N2625882   0.765   2.983   5.054 -0.1841  0.4711 -0.3375
  129MOL    H2725883   0.448   2.987   4.936  0.0823 -0.3180  1.0835
  129MOL    H2825884   0.535   3.125   4.965 -0.1851  1.4547 -3.4246
  129MOL    H2925885   0.583   2.906   5.108  0.7405 -0.6312 -0.5056
  129MOL    H3025886   0.649   2.840   4.961 -0.8186 -0.3215  0.2627
  129MOL    H3125887   0.803   3.061   5.003 -1.1940 -0.0086 -1.8504
  129MOL    C3225888   0.845   2.934   5.150  0.1975 -0.1621 -0.6432
  129MOL    O3325889   0.803   2.849   5.230 -0.6927 -0.6977  0.3710
  129MOL    C3425890   0.981   2.989   5.166  0.4643  0.4517  0.4149
  129MOL    C3525891   1.070   2.915   5.270 -0.5543 -0.2299  0.4440
  129MOL    N3625892   1.212   2.949   5.253 -0.2029  0.4577 -0.0946
  129MOL    H3725893   0.988   3.098   5.176  0.3828  0.4579  0.4074
  129MOL    H3825894   1.031   2.965   5.072  0.7312  0.6701  0.5004
  129MOL    H3925895   1.029   2.940   5.367 -1.6214  0.8657 -0.2679
  129MOL    H4025896   1.063   2.807   5.270  3.9329 -0.6147  0.9601
  129MOL    H4125897   1.252   3.022   5.311  1.7397  0.1733 -1.0350
  129MOL    C4225898   1.303   2.890   5.174  0.1321 -0.3821  0.6459
  129MOL    O4325899   1.280   2.781   5.120  0.6185  0.1735 -0.0395
  129MOL    C4425900   1.440   2.956   5.150 -0.3944  0.1763  0.2469
  129MOL    C4525901   1.553   2.877   5.217 -0.5853  0.6283 -0.2108
  129MOL    N4625902   1.683   2.931   5.200  0.3784 -0.2082 -0.1971
  129MOL    H4725903   1.457   2.942   5.043 -0.0024  2.8376 -0.0916
  129MOL    H4825904   1.444   3.062   5.177  2.3955 -0.0284  0.8322
  129MOL    H4925905   1.552   2.858   5.325 -1.4120 -1.2966 -0.5391
  129MOL    H5025906   1.551   2.771   5.189 -1.6063  0.4283  0.5842
  129MOL    H5125907   1.723   2.959   5.289 -1.6542  1.0453  0.3419
  129MOL    C5225908   1.758   2.918   5.086  0.1105 -0.6283  0.3379
  129MOL    O5325909   1.701   2.889   4.982 -0.0375 -0.0802 -0.4960
  129MOL    C5425910   1.911   2.945   5.093  0.5078  0.3982  0.0982
  129MOL    C5525911   1.995   2.826   5.057 -0.7948 -0.1891 -0.0572
  129MOL    N5625912   2.134   2.848   5.040  0.6922 -0.0049  0.3277
  129MOL    H5725913   1.922   3.036   5.034 -0.1419  1.4763  1.6055
  129MOL    H5825914   1.937   2.966   5.197 -0.7241 -2.0279  0.9268
  129MOL    H5925915   1.966   2.779   4.963 -0.3387 -1.7423  0.5624
  129MOL    H6025916   1.972   2.738   5.117  0.3558  0.5824  1.5736
  129MOL    H6125917   2.156   2.900   4.957 -0.8078 -0.9264 -0.6748
  129MOL    C6225918   2.233   2.841   5.129 -0.2314 -0.8782  0.0965
  129MOL    O6325919   2.226   2.793   5.240  0.3789 -0.1690 -0.0089
  129MOL    C6425920   2.366   2.905   5.088  0.4673  0.0907 -0.2385
  129MOL    C6525921   2.483   2.872   5.187 -0.1802 -0.1226  0.5463
  129MOL    N6625922   2.599   2.948   5.148 -0.0047 -0.2242 -0.0167
  129MOL    H6725923   2.392   2.887   4.983 -1.0477  0.6244 -0.7155
  129MOL    H6825924   2.345   3.011   5.094  5.6159  1.1000  2.8928
  129MOL    H6925925   2.456   2.897   5.289  0.3531 -0.5608  0.7943
  129MOL    H7025926   2.503   2.765   5.190  3.8032  0.5888  1.5040
  129MOL    H7125927   2.571   3.017   5.079  1.7385  1.2811  0.7284
  129MOL    C7225928   2.723   2.931   5.183  0.0869  0.1807 -0.2243
  129MOL    O7325929   2.757   2.850   5.268 -0.5024  0.7170 -0.1737
  129MOL    C7425930   2.829   3.008   5.104  0.7796  0.3217 -0.4480
  129MOL    C7525931   2.914   2.913   5.015 -0.0630  0.5639  0.0431
  129MOL    N7625932   2.960   2.791   5.079 -0.1970 -0.4263  0.2614
  129MOL    H7725933   2.789   3.092   5.048  2.7538  1.8621  0.3784
  129MOL    H7825934   2.884   3.060   5.183 -2.0203  0.1744  1.6675
  129MOL    H7925935   2.860   2.869   4.931  0.5204 -1.8648  0.9134
  129MOL    H8025936   2.987   2.977   4.964 -0.8482  1.0770 -0.4440
  129MOL    H8125937   2.898   2.712   5.076 -0.2629 -0.3182 -1.2883
  129MOL    C8225938   3.072   2.772   5.143 -0.0932 -0.1068  0.4268
  129MOL    O8325939   3.153   2.860   5.162 -0.1933  0.1896  0.0287
  129MOL    C8425940   3.106   2.630   5.192 -0.3089  0.1865 -0.3104
  129MOL    C8525941   3.203   2.545   5.108 -0.4980 -0.3221  0.6620
  129MOL    N8625942   3.215   2.406   5.157 -0.2916 -0.9143  0.2021
  129MOL    H8725943   3.155   2.644   5.289  2.1122  3.2325 -1.8892
  129MOL    H8825944   3.021   2.563   5.205  0.2144 -0.9237 -2.3352
  129MOL    H8925945   3.165   2.528   5.007  0.1326 -0.2203  0.4032
  129MOL    H9025946   3.301   2.586   5.083  0.1310 -1.6120  0.9839
  129MOL    H9125947   3.165   2.335   5.106 -1.5275  1.2983 -1.7587
  129MOL    C9225948   3.299   2.361   5.251 -0.2214 -0.3206  0.2533
  129MOL    O9325949   3.366   2.436   5.318  0.5916 -0.1215 -0.0907
  129MOL    C9425950   3.301   2.216   5.275 -0.2536  0.1228  0.6694
  129MOL    C9525951   3.403   2.167   5.381  0.3680 -0.4563  0.5783
  129MOL    N9625952   3.341   2.170   5.515 -0.9381 -0.3426 -0.2270
  129MOL    H9725953   3.207   2.171   5.309 -0.2501  0.4781  1.1543
  129MOL    H9825954   3.327   2.191   5.172  2.4441  1.6024  0.9756
  129MOL    H9925955   3.437   2.066   5.361  0.5357 -0.4728  0.9505
  129MOL   H10025956   3.498   2.219   5.379  0.7050 -1.0136  1.8081
  129MOL   H10125957   3.341   2.258   5.565  1.7153 -0.1366 -0.5051
  129MOL   C10225958   3.269   2.069   5.564 -0.3203 -0.3745 -0.1930
  129MOL   O10325959   3.258   1.966   5.506 -0.2778  0.5120  0.0411
  129MOL   C10425960   3.204   2.086   5.704 -0.7674 -0.1172 -0.1196
  129MOL   C10525961   3.288   2.022   5.818  0.3788 -0.3720  0.4844
  129MOL   N10625962   3.213   1.941   5.913  0.1805 -0.5662  0.2956
  129MOL   H10725963   3.111   2.029   5.702 -0.1837 -1.1615  1.3667
  129MOL   H10825964   3.191   2.189   5.737  1.4948  0.4073 -0.7680
  129MOL   H10925965   3.372   1.962   5.782 -1.1295 -1.3478 -1.4855
  129MOL   H11025966   3.333   2.101   5.878  0.6914  0.0276 -0.2636
  129MOL   H11125967   3.113   1.955   5.923  0.6949  2.4674  1.7067
  129MOL   C11225968   3.272   1.857   5.997  0.0985  0.7377 -0.0379
  129MOL   O11325969   3.398   1.858   6.006  0.2200  0.1477 -0.1143
  129MOL   C11425970   3.184   1.746   6.067  0.1858  0.2203  0.0558
  129MOL   C11525971   3.257   1.607   6.091 -0.5415  0.1169  0.4291
  129MOL   N11625972   3.348   1.609   6.203  0.1811  0.2367  0.4977
  129MOL   H11725973   3.096   1.726   6.006 -0.2096 -0.1214  0.7330
  129MOL   H11825974   3.147   1.780   6.164 -0.3476 -0.5368  0.1243
  129MOL   H11925975   3.185   1.527   6.104 -1.8456  1.3613  0.9434
  129MOL   H12025976   3.318   1.582   6.004  1.5320  1.1479  1.5260
  129MOL   H12125977   3.445   1.632   6.184 -0.3660  1.2977 -1.0321
  129MOL   C12225978   3.311   1.589   6.329 -0.7720  0.2597 -0.1976
  129MOL   O12325979   3.193   1.581   6.356  0.0929 -0.2680 -0.9761
  129MOL   C12425980   3.427   1.556   6.433  0.7422 -0.0273 -0.1058
  129MOL   C12525981   3.380   1.548   6.583 -0.8271  0.3949  0.6034
  129MOL   N12625982   3.281   1.451   6.599  0.5040 -0.2138  0.4114
  129MOL   H12725983   3.517   1.617   6.430 -0.8551  2.3594 -1.4930
  129MOL   H12825984   3.471   1.462   6.401 -1.0914 -0.4187 -1.5229
  129MOL   H12925985   3.468   1.533   6.645 -0.2390  2.2530  0.2353
  129MOL   H13025986   3.347   1.648   6.612 -0.5983  1.2669 -2.0098
  129MOL   H13125987   3.206   1.456   6.532  1.5197  0.5008 -0.6686
  129MOL   C13225988   3.272   1.370   6.701 -0.1093 -0.2075  0.0252
  129MOL   O13325989   3.351   1.358   6.796 -0.3144 -0.1278  0.2359
  129MOL   C13425990   3.139   1.285   6.692  0.5349  0.1651  0.2875
  129MOL   C13525991   3.165   1.150   6.758  0.2335 -0.7446  0.3323
  129MOL   N13625992   3.152   1.146   6.906 -0.0741  0.0451  0.0824
  129MOL   H13725993   3.108   1.267   6.589  1.3471  0.4298 -0.0159
  129MOL   H13825994   3.059   1.343   6.739 -1.3131 -3.0748  1.2605
  129MOL   H13925995   3.090   1.083   6.715  0.6480 -0.6816 -0.4815
  129MOL   H14025996   3.261   1.109   6.728  0.1309 -0.6749 -0.0996
  129MOL   H14125997   3.238   1.124   6.955  0.1593  0.5185 -0.1110
  129MOL   C14225998   3.037   1.148   6.969 -0.2648  1.1291  0.0974
  129MOL   O14325999   2.934   1.172   6.906 -0.3432  0.0603  0.9620
  129MOL   C14426000   3.023   1.127   7.122 -0.4702  0.5050 -0.3306
  129MOL   C14526001   2.886   1.070   7.170 -0.8193  0.5739  0.0364
  129MOL   N14626002   2.845   0.944   7.110  0.2380 -0.1014  0.2738
  129MOL   H14726003   3.040   1.226   7.164 -1.5001  1.2272 -1.5918
  129MOL   H14826004   3.099   1.065   7.170 -0.9775  0.4051  0.3624
  129MOL   H14926005   2.885   1.074   7.279 -0.1161  0.1901  0.0619
  129MOL   H15026006   2.814   1.147   7.141 -1.7844 -1.8996 -4.5623
  129MOL   H15126007   2.891   0.912   7.025 -1.0810  2.0546 -1.3100
  129MOL   C15226008   2.760   0.860   7.163  0.0409 -0.8654 -0.9874
  129MOL   O15326009   2.681   0.889   7.255  0.0272 -0.2384  0.0954
  129MOL   C15426010   2.739   0.737   7.083 -0.9555 -0.3361 -0.2484
  129MOL   C15526011   2.633   0.740   6.975  0.7306 -0.2167  0.1354
  129MOL   N15626012   2.690   0.790   6.845  0.8257  0.5874 -0.5123
  129MOL   H15726013   2.705   0.673   7.165 -4.1321  1.9685  0.3495
  129MOL   H15826014   2.833   0.688   7.057  0.0271  0.9123  0.8633
  129MOL   H15926015   2.592   0.640   6.961  1.2873 -0.5369  0.7869
  129MOL   H16026016   2.548   0.795   7.016 -0.4475 -0.5555 -1.8033
  129MOL   H16126017   2.780   0.748   6.826 -0.5072 -0.7840 -4.2510
  129MOL   C16226018   2.641   0.874   6.752 -0.6708 -0.3941  0.1333
  129MOL   O16326019   2.526   0.912   6.756 -0.2064  0.2714  1.0856
  129MOL   C16426020   2.746   0.926   6.645 -0.1231  0.5930 -1.0660
  129MOL   C16526021   2.758   0.841   6.515 -0.2097 -0.6841 -0.1514
  129MOL   N16626022   2.823   0.906   6.408 -0.6362 -0.3618 -0.2773
  129MOL   H16726023   2.840   0.944   6.698 -0.0199  0.7516 -1.2995
  129MOL   H16826024   2.711   1.027   6.624 -2.7849  0.5228  2.5436
  129MOL   H16926025   2.812   0.751   6.543  1.7788 -0.0293 -1.8124
  129MOL   H17026026   2.655   0.817   6.487 -1.0333 -0.9110  2.8546
  129MOL   H17126027   2.845   1.003   6.425 -0.1835 -0.5889  0.4515
  129MOL   C17226028   2.870   0.853   6.295 -0.4352  0.0472 -0.4281
  129MOL   O17326029   2.852   0.739   6.261 -0.5356  0.1691  0.0026
  129MOL   C17426030   2.965   0.941   6.203 -0.2065  0.2150  0.1086
  129MOL   C17526031   3.089   0.875   6.143 -1.1468 -0.4583  0.4114
  129MOL   N17626032   3.180   0.970   6.092 -0.1160  0.1486  0.2107
  129MOL   H17726033   2.996   1.035   6.248 -1.9197  1.3140 -0.9348
  129MOL   H17826034   2.898   0.967   6.122 -1.4985 -1.6962  0.5070
  129MOL   H17926035   3.130   0.804   6.216  2.0423  0.2581 -0.6380
  129MOL   H18026036   3.071   0.813   6.055 -3.3159 -1.4252  1.4975
  129MOL   H18126037   3.164   0.990   5.994  2.2714  0.0586 -0.2261
  129MOL   C18226038   3.270   1.037   6.166  1.3291  0.0231 -0.0670
  129MOL   O18326039   3.293   1.019   6.290  0.0816  1.0798  0.3652
  129MOL   C18426040   3.351   1.141   6.088  0.8096 -0.0676  0.4415
  129MOL   C18526041   3.479   1.199   6.148  0.4326 -0.0401 -1.4286
  129MOL   N18626042   3.517   1.328   6.092 -0.3899  0.3480 -0.2935
  129MOL   H18726043   3.284   1.218   6.051 -0.7652 -2.1884 -1.2719
  129MOL   H18826044   3.381   1.093   5.994 -2.4225  0.1641 -0.7691
  129MOL   H18926045   3.463   1.217   6.255 -0.3829 -1.9596 -1.2141
  129MOL   H19026046   3.569   1.138   6.143 -0.1722 -1.1233  0.3703
  129MOL   H19126047   3.447   1.388   6.052  0.9531 -0.9354 -4.7692
  129MOL   C19226048   3.643   1.375   6.082 -0.1032 -0.1240 -0.2846
  129MOL   O19326049   3.740   1.329   6.140  0.5177 -0.4675 -0.7021
  129MOL   C19426050   3.662   1.492   5.989 -0.5519  0.0856 -0.1068
  129MOL   C19526051   3.728   1.617   6.051  0.4628 -0.1181  0.3171
  129MOL   N19626052   3.624   1.695   6.123  0.0927  0.5991 -0.6232
  129MOL   H19726053   3.723   1.453   5.908  1.7389  2.6885  0.2994
  129MOL   H19826054   3.568   1.512   5.936 -1.5459 -1.4867  1.0182
  129MOL   H19926055   3.803   1.583   6.123  0.9916 -1.2954 -0.7551
  129MOL   H20026056   3.775   1.679   5.975 -1.5741 -0.9753 -1.7003
  129MOL   H20126057   3.671   1.760   6.185  0.5163 -1.4288  1.2199
  129MOL   H20226058   3.556   1.749   6.072 -2.4874 -0.3272  1.6973
  130MOL     C126059   3.215   1.817   3.179 -0.5350 -0.3927  0.0789
  130MOL     O226060   3.240   1.699   3.154 -0.1373 -0.2602 -0.6841
  130MOL     C326061   3.153   1.866   3.311 -0.2459  0.3675 -0.3778
  130MOL     C426062   3.224   1.818   3.436  0.4094 -0.2444 -0.1418
  130MOL     N526063   3.332   1.909   3.480 -0.3922 -0.0238 -0.6427
  130MOL     H626064   3.051   1.828   3.304  0.8514 -2.6149 -0.9057
  130MOL     H726065   3.125   1.972   3.313 -0.4848  0.2887  0.7649
  130MOL     H826066   3.255   1.715   3.421 -0.7956 -0.9059  1.6281
  130MOL     H926067   3.146   1.828   3.512  0.9980  1.8195  0.2058
  130MOL    H1026068   3.357   1.983   3.416 -1.8047  1.0515  0.0259
  130MOL    H1126069   3.234   1.900   3.111 -2.2148  2.1819  2.5947
  130MOL    C1226070   3.375   1.926   3.605 -0.1491 -0.3341  0.2209
  130MOL    O1326071   3.341   1.841   3.687 -0.0745  0.1139  0.2305
  130MOL    C1426072   3.468   2.036   3.633 -0.2446 -0.5600  0.6191
  130MOL    C1526073   3.602   2.002   3.699  0.1287  0.3611 -0.3402
  130MOL    N1626074   3.589   1.936   3.829  0.1312  0.3116  0.5141
  130MOL    H1726075   3.410   2.106   3.694 -3.3422 -0.8566 -1.8087
  130MOL    H1826076   3.487   2.089   3.540  1.9299 -2.2333  0.0771
  130MOL    H1926077   3.653   1.947   3.620 -0.1397  0.3125 -0.4813
  130MOL    H2026078   3.659   2.093   3.719  0.6793 -0.5600  2.4717
  130MOL    H2126079   3.553   1.994   3.904 -3.2761  0.5529 -1.2028
  130MOL    C2226080   3.613   1.805   3.854  0.3377 -0.2522 -0.3448
  130MOL    O2326081   3.671   1.729   3.777  0.0266  0.2323 -0.6726
  130MOL    C2426082   3.564   1.746   3.982 -0.1616  0.5447  0.1683
  130MOL    C2526083   3.490   1.608   3.965 -0.3924 -0.4630 -1.1818
  130MOL    N2626084   3.389   1.608   3.863  0.6396  0.5273 -0.5367
  130MOL    H2726085   3.490   1.811   4.029 -0.1346  1.8641 -1.5598
  130MOL    H2826086   3.648   1.737   4.051 -0.6659 -0.7618  0.6175
  130MOL    H2926087   3.561   1.530   3.939 -1.4767 -1.1078 -2.2517
  130MOL    H3026088   3.464   1.597   4.070 -0.1658  0.3832 -1.0336
  130MOL    H3126089   3.368   1.695   3.818 -0.9108 -0.1388 -1.1613
  130MOL    C3226090   3.326   1.497   3.821  0.3067 -0.3527  0.1393
  130MOL    O3326091   3.336   1.391   3.878 -0.1682 -0.3156 -0.3552
  130MOL    C3426092   3.224   1.512   3.701  0.4283 -0.5034 -0.3848
  130MOL    C3526093   3.083   1.467   3.744  0.0778  0.2107 -0.3846
  130MOL    N3626094   2.995   1.569   3.798 -0.5726 -0.2557 -0.6521
  130MOL    H3726095   3.253   1.437   3.627 -0.4400 -1.5081  0.2701
  130MOL    H3826096   3.243   1.613   3.666 -1.7529  0.5490  1.3715
  130MOL    H3926097   3.045   1.441   3.645 -0.2540 -0.3586 -0.1059
  130MOL    H4026098   3.089   1.377   3.804  0.7393  0.6243  0.1905
  130MOL    H4126099   3.008   1.668   3.783  1.3192 -0.4306 -0.2319
  130MOL    C4226100   2.892   1.540   3.876 -0.0223  0.7388  0.4072
  130MOL    O4326101   2.856   1.431   3.913  0.2747  0.4276  0.1646
  130MOL    C4426102   2.806   1.661   3.925 -0.0300  0.2447  0.5618
  130MOL    C4526103   2.849   1.729   4.059  0.0820  0.5192  0.1421
  130MOL    N4626104   2.988   1.765   4.072  0.3548 -0.0422 -0.4613
  130MOL    H4726105   2.813   1.742   3.853  0.5506  0.8604  1.2922
  130MOL    H4826106   2.700   1.640   3.920  0.0902 -0.2595  0.0546
  130MOL    H4926107   2.783   1.815   4.070 -0.0987  0.4748 -0.5650
  130MOL    H5026108   2.818   1.662   4.139 -0.2201  1.6803  1.0130
  130MOL    H5126109   3.031   1.724   4.154 -1.9976 -0.4950  0.5963
  130MOL    C5226110   3.076   1.829   3.992 -0.5416 -0.5013 -0.1074
  130MOL    O5326111   3.043   1.858   3.876 -0.0010  0.0692  0.4751
  130MOL    C5426112   3.213   1.874   4.048 -0.3034 -0.4446  0.0176
  130MOL    C5526113   3.221   2.020   4.086 -0.3040 -0.1507 -0.3168
  130MOL    N5626114   3.111   2.070   4.166  0.7496  0.0812 -0.2618
  130MOL    H5726115   3.230   1.814   4.138 -1.9768 -1.2609 -0.1996
  130MOL    H5826116   3.286   1.849   3.971 -0.3544 -3.1254  0.7827
  130MOL    H5926117   3.217   2.074   3.991  0.2958 -0.1449 -0.3358
  130MOL    H6026118   3.318   2.046   4.127  0.2021 -1.8617 -0.4079
  130MOL    H6126119   3.041   2.123   4.116 -0.8331 -0.9669  0.8119
  130MOL    C6226120   3.115   2.059   4.302  0.1629 -0.1739 -0.0780
  130MOL    O6326121   3.203   1.993   4.356  0.9306  0.5054 -0.4291
  130MOL    C6426122   3.007   2.125   4.387 -0.0754  0.6087  0.2365
  130MOL    C6526123   2.958   2.047   4.518  0.0995  0.2067  0.4392
  130MOL    N6626124   2.886   1.921   4.476 -0.3467  0.9871 -0.2271
  130MOL    H6726125   3.050   2.223   4.409  2.1183  0.8190 -4.3714
  130MOL    H6826126   2.918   2.135   4.324  0.0132  0.7399  0.1314
  130MOL    H6926127   3.047   2.029   4.578  0.6659 -0.3759 -0.5638
  130MOL    H7026128   2.889   2.112   4.571  0.3184  0.3678  0.5265
  130MOL    H7126129   2.952   1.861   4.427 -2.1225 -1.0250 -0.2491
  130MOL    C7226130   2.766   1.879   4.507 -0.7873  0.0050 -0.4395
  130MOL    O7326131   2.681   1.947   4.566 -0.4502  0.2046 -0.8084
  130MOL    C7426132   2.731   1.738   4.481 -0.5624 -0.3996  0.5300
  130MOL    C7526133   2.618   1.675   4.562 -0.1594 -0.4788  0.7108
  130MOL    N7626134   2.592   1.546   4.522  0.2877  0.1469 -0.5459
  130MOL    H7726135   2.711   1.747   4.374 -1.1917 -2.5026  0.4484
  130MOL    H7826136   2.821   1.679   4.497 -0.8920 -1.6077 -1.7561
  130MOL    H7926137   2.641   1.702   4.665  0.5945 -0.7000  0.6087
  130MOL    H8026138   2.526   1.730   4.542  1.2294  0.8608 -2.3591
  130MOL    H8126139   2.649   1.520   4.442 -0.6085 -2.7775 -0.2697
  130MOL    C8226140   2.511   1.455   4.575 -0.3126  0.5166 -0.0308
  130MOL    O8326141   2.461   1.477   4.686 -0.2037 -0.6706 -0.0152
  130MOL    C8426142   2.470   1.323   4.496 -0.0182  0.1084 -0.1432
  130MOL    C8526143   2.354   1.242   4.569 -0.1238  0.1609 -1.0091
  130MOL    N8626144   2.282   1.150   4.489 -0.1301 -0.1871 -0.0479
  130MOL    H8726145   2.442   1.357   4.396  2.0973 -0.7112 -1.0458
  130MOL    H8826146   2.549   1.249   4.485  0.4458  0.3845  1.2900
  130MOL    H8926147   2.380   1.183   4.656  0.2177  2.9329  0.8281
  130MOL    H9026148   2.278   1.310   4.607 -1.0821 -2.6328  2.2252
  130MOL    H9126149   2.311   1.053   4.492 -1.3976 -0.5438  1.1524
  130MOL    C9226150   2.197   1.190   4.390  0.4822 -0.7989 -0.6648
  130MOL    O9326151   2.147   1.304   4.371 -0.0331  0.9459 -0.6599
  130MOL    C9426152   2.170   1.084   4.286  0.1581 -0.4619 -0.3714
  130MOL    C9526153   2.023   1.047   4.290  0.2570 -0.5656  0.2026
  130MOL    N9626154   1.983   0.965   4.177  0.0042 -0.2859  0.0722
  130MOL    H9726155   2.198   1.119   4.187  3.2996  1.5595  1.1727
  130MOL    H9826156   2.221   0.989   4.299  2.7655  1.0158  0.6849
  130MOL    H9926157   2.008   0.998   4.386  0.5094 -2.0880 -0.5196
  130MOL   H10026158   1.955   1.133   4.290  1.5651  0.4832  0.9529
  130MOL   H10126159   1.969   1.013   4.090 -2.5909 -0.4972  0.3374
  130MOL   C10226160   1.969   0.834   4.180  0.4831 -0.0334 -0.3392
  130MOL   O10326161   1.997   0.765   4.282 -0.3629  0.2046 -0.1934
  130MOL   C10426162   1.911   0.768   4.050  0.0382 -0.1121 -0.2224
  130MOL   C10526163   1.891   0.621   4.080  0.6620 -0.8185 -0.7451
  130MOL   N10626164   2.006   0.537   4.048  0.1097 -0.3659  0.0500
  130MOL   H10726165   1.977   0.795   3.968 -1.1458 -1.8246 -1.7612
  130MOL   H10826166   1.819   0.826   4.040 -0.9607 -1.3722  1.3297
  130MOL   H10926167   1.843   0.604   4.177 -0.2157  2.2117 -0.5977
  130MOL   H11026168   1.808   0.593   4.015 -0.9805  1.4273  0.3146
  130MOL   H11126169   2.073   0.570   3.981 -0.4202 -0.4779 -0.5390
  130MOL   C11226170   2.016   0.409   4.081 -0.6752  0.0958  0.8255
  130MOL   O11326171   1.923   0.353   4.138  0.3369  0.3672 -0.2216
  130MOL   C11426172   2.147   0.336   4.036 -0.0806 -0.0539  0.6875
  130MOL   C11526173   2.135   0.186   4.012  0.0663 -0.3990 -0.1504
  130MOL   N11626174   2.088   0.109   4.126  0.4049  0.4562 -0.6520
  130MOL   H11726175   2.216   0.361   4.116  0.3267 -0.2902  0.4159
  130MOL   H11826176   2.184   0.385   3.946 -2.7875 -1.2970 -1.1489
  130MOL   H11926177   2.062   0.162   3.935  0.2333 -1.3422 -0.0160
  130MOL   H12026178   2.236   0.152   3.987  0.5395  1.1856 -0.4537
  130MOL   H12126179   2.009   0.047   4.117  1.9580 -1.4180 -2.0298
  130MOL   C12226180   2.159   0.084   4.238 -0.3819 -1.2413 -0.7062
  130MOL   O12326181   2.275   0.129   4.253 -0.0297 -0.3345  0.1860
  130MOL   C12426182   2.085   0.010   4.347  0.1707 -0.8428 -0.3387
  130MOL   C12526183   2.172   7.711   4.447  0.3337  0.2351 -0.0674
  130MOL   N12626184   2.187   7.777   4.582  0.3910 -0.3370  0.2721
  130MOL   H12726185   2.015   7.714   4.313  0.8024 -1.9906  0.9267
  130MOL   H12826186   2.033   0.091   4.398 -0.5779 -1.4053 -0.2099
  130MOL   H12926187   2.129   7.615   4.476  0.7300  0.5226  1.5755
  130MOL   H13026188   2.269   7.701   4.400 -1.6063  1.0505 -4.5102
  130MOL   H13126189   2.279   0.015   4.617  0.7801 -1.7966  0.0404
  130MOL   C13226190   2.086   7.771   4.674 -0.5405 -0.0200 -0.8398
  130MOL   O13326191   1.975   7.718   4.660  0.8742 -0.0036 -0.2543
  130MOL   C13426192   2.119   0.062   4.815  0.2015  0.0041 -0.1603
  130MOL   C13526193   2.017   0.035   4.921 -0.6149 -0.3944 -0.4150
  130MOL   N13626194   2.019   0.140   5.023 -0.1560 -0.7881  0.3265
  130MOL   H13726195   2.112   0.166   4.786 -1.8780  0.3364  1.3950
  130MOL   H13826196   2.218   0.029   4.846  0.1325 -1.9735 -1.9210
  130MOL   H13926197   1.920   0.032   4.871  0.4554 -2.9966 -2.4579
  130MOL   H14026198   2.024   7.720   4.975  0.3124  0.0376  0.2425
  130MOL   H14126199   2.053   0.108   5.112 -1.5440 -1.2822  0.6874
  130MOL   C14226200   1.981   0.265   5.017 -0.1381 -0.6491 -0.1244
  130MOL   O14326201   1.918   0.297   4.920 -0.1831 -0.5578 -0.1775
  130MOL   C14426202   2.027   0.352   5.124 -0.2573  0.0368 -0.1401
  130MOL   C14526203   2.050   0.502   5.080  0.1363  0.0065  0.1065
  130MOL   N14626204   2.122   0.574   5.186 -0.6094  0.2217 -0.1581
  130MOL   H14726205   2.115   0.318   5.178 -1.0316 -3.3022 -0.8593
  130MOL   H14826206   1.946   0.345   5.196 -0.4163  1.2484 -0.1786
  130MOL   H14926207   2.113   0.500   4.991  1.5066 -0.7259  1.0781
  130MOL   H15026208   1.965   0.566   5.058  0.3638  0.0788 -0.5683
  130MOL   H15126209   2.222   0.581   5.178 -0.6910  1.2183 -0.3349
  130MOL   C15226210   2.078   0.649   5.286 -0.7844  0.2839 -0.0807
  130MOL   O15326211   1.956   0.654   5.300  0.0296  0.2661  0.0153
  130MOL   C15426212   2.174   0.711   5.388 -0.3607  0.3969  0.1270
  130MOL   C15526213   2.228   0.852   5.365 -0.0332 -0.5485 -0.1874
  130MOL   N15626214   2.303   0.864   5.239  0.5630  0.7307 -0.0867
  130MOL   H15726215   2.256   0.639   5.383 -0.8450 -0.2838  1.6514
  130MOL   H15826216   2.124   0.704   5.485  0.7160  2.0820  0.8246
  130MOL   H15926217   2.145   0.923   5.353 -1.1340 -1.5689  1.1952
  130MOL   H16026218   2.275   0.876   5.460 -1.2118  1.4067 -0.0796
  130MOL   H16126219   2.250   0.860   5.153 -1.0045 -0.5845  0.9056
  130MOL   C16226220   2.436   0.857   5.238 -0.3069 -0.6509 -0.3570
  130MOL   O16326221   2.501   0.847   5.344  0.5566  0.1396  1.3638
  130MOL   C16426222   2.499   0.887   5.100 -0.2025  0.3249 -0.1889
  130MOL   C16526223   2.646   0.829   5.080  0.7133  0.1888 -0.0657
  130MOL   N16626224   2.738   0.860   5.186  0.2036 -0.4829  0.9913
  130MOL   H16726225   2.501   0.994   5.079  0.9486 -0.1499 -2.6680
  130MOL   H16826226   2.436   0.839   5.025 -2.1393 -0.3181  1.8047
  130MOL   H16926227   2.653   0.721   5.071  1.1160  0.3146 -1.2862
  130MOL   H17026228   2.699   0.865   4.992  0.5441  2.5233  0.7474
  130MOL   H17126229   2.717   0.941   5.243  0.1303 -0.8498  1.4980
  130MOL   C17226230   2.860   0.804   5.202 -0.7550  0.1530  0.1280
  130MOL   O17326231   2.907   0.718   5.130 -0.0121  0.0683 -0.0424
  130MOL   C17426232   2.943   0.874   5.316 -0.9204  0.0266 -0.3271
  130MOL   C17526233   3.041   0.771   5.382  0.4170  0.4266  0.5713
  130MOL   N17626234   3.182   0.783   5.335 -0.2440  0.0069 -1.0923
  130MOL   H17726235   2.882   0.926   5.389  0.7576 -0.4841  1.5087
  130MOL   H17826236   3.005   0.953   5.274  1.5879 -0.6865  1.8335
  130MOL   H17926237   3.046   0.793   5.488  0.3433  2.2866  0.1958
  130MOL   H18026238   3.003   0.669   5.372 -0.5083  0.8853 -0.7136
  130MOL   H18126239   3.219   0.876   5.322 -0.3039  0.4933  1.8273
  130MOL   C18226240   3.262   0.679   5.309 -0.2585 -0.1572  0.2483
  130MOL   O18326241   3.226   0.561   5.322  0.3932 -0.4162  0.4776
  130MOL   C18426242   3.398   0.705   5.244 -0.2042 -0.6403  1.0310
  130MOL   C18526243   3.516   0.721   5.342 -1.0885  0.0623 -0.3919
  130MOL   N18626244   3.509   0.593   5.420 -0.2280  0.0878  0.0411
  130MOL   H18726245   3.389   0.793   5.182 -0.8404 -0.5286  1.2758
  130MOL   H18826246   3.413   0.626   5.171  1.8367  0.9905 -0.3577
  130MOL   H18926247   3.614   0.748   5.304 -0.9879  2.2395  1.3464
  130MOL   H19026248   3.492   0.792   5.421  0.2823 -0.2487  0.3234
  130MOL   H19126249   3.429   0.534   5.401  0.6033 -0.6442 -1.2495
  130MOL   C19226250   3.588   0.566   5.524  0.3414 -0.8480 -0.3975
  130MOL   O19326251   3.668   0.648   5.568  0.5812 -0.0266 -0.1590
  130MOL   C19426252   3.580   0.434   5.596 -0.0907  0.6046  0.3418
  130MOL   C19526253   3.712   0.374   5.642 -0.3075  0.0865  0.0501
  130MOL   N19626254   3.784   0.338   5.516  0.0312 -0.0054  0.0345
  130MOL   H19726255   3.520   0.445   5.687 -0.0676 -1.5568  0.6421
  130MOL   H19826256   3.527   0.372   5.524  0.4548  2.0793 -1.3704
  130MOL   H19926257   3.778   0.438   5.701  2.2593 -2.1796 -0.2587
  130MOL   H20026258   3.692   0.281   5.695 -0.2448  0.3331  0.5054
  130MOL   H20126259   3.785   0.421   5.460 -2.1704 -0.3361 -0.5438
  130MOL   H20226260   3.729   0.270   5.466  3.8966 -2.8052 -0.6306
  131MOL     C126261   0.726   6.318   1.272  0.6797 -0.5381 -0.6940
  131MOL     O226262   0.788   6.282   1.176 -0.4349  0.0346  0.0258
  131MOL     C326263   0.677   6.218   1.366  0.6535  0.4345 -0.8095
  131MOL     C426264   0.705   6.260   1.515 -0.6152 -0.5702 -0.1096
  131MOL     N526265   0.845   6.264   1.537 -0.5797  0.0304  0.0600
  131MOL     H626266   0.710   6.118   1.336  1.5287  0.5761 -0.3528
  131MOL     H726267   0.571   6.207   1.387  0.4186  1.5888 -1.3449
  131MOL     H826268   0.671   6.190   1.592  1.2816  0.8171  2.0719
  131MOL     H926269   0.670   6.362   1.525 -0.5384 -0.3688 -1.7553
  131MOL    H1026270   0.901   6.188   1.502  0.8011  0.4851  1.2353
  131MOL    H1126271   0.679   6.414   1.288  2.2082  0.1960 -0.5253
  131MOL    C1226272   0.918   6.366   1.590  0.4664 -0.4341 -0.2234
  131MOL    O1326273   0.875   6.473   1.625 -0.0846 -0.6580 -0.1619
  131MOL    C1426274   1.067   6.337   1.608  0.4460 -0.0885  0.4079
  131MOL    C1526275   1.125   6.360   1.753  0.0950 -0.3126 -0.2875
  131MOL    N1626276   1.097   6.496   1.803  0.2597  0.3062 -0.0695
  131MOL    H1726277   1.127   6.403   1.545  0.1437  0.4286  0.6561
  131MOL    H1826278   1.096   6.238   1.572 -0.9357 -0.5809  0.6147
  131MOL    H1926279   1.097   6.282   1.824  2.2870 -1.5411 -0.7130
  131MOL    H2026280   1.233   6.348   1.760  0.1122  0.9548  2.0177
  131MOL    H2126281   1.000   6.515   1.819 -0.2863 -2.5268  0.2058
  131MOL    C2226282   1.174   6.601   1.790 -0.2479 -0.6749 -0.5005
  131MOL    O2326283   1.284   6.600   1.743  0.3733  0.4049  0.3423
  131MOL    C2426284   1.109   6.724   1.845 -0.2740  0.0787 -0.4337
  131MOL    C2526285   1.198   6.851   1.853  0.2522  0.0820 -0.4552
  131MOL    N2626286   1.251   6.913   1.725 -0.0343 -0.3146 -0.1152
  131MOL    H2726287   1.083   6.685   1.943  0.0427 -2.3008 -1.2747
  131MOL    H2826288   1.012   6.739   1.796 -0.0027  0.4039 -0.8801
  131MOL    H2926289   1.151   6.924   1.920  0.9098 -0.6296  0.7969
  131MOL    H3026290   1.282   6.815   1.912 -0.0697 -0.5039 -0.3482
  131MOL    H3126291   1.348   6.896   1.702 -0.1128 -2.2007  0.9036
  131MOL    C3226292   1.191   7.013   1.657 -0.0065  0.3825 -0.8100
  131MOL    O3326293   1.088   7.065   1.692 -0.6866  0.4063 -0.2758
  131MOL    C3426294   1.268   7.072   1.540  0.0802 -0.0496 -0.5397
  131MOL    C3526295   1.198   7.175   1.442  0.6297 -0.4013  0.4134
  131MOL    N3626296   1.127   7.113   1.329  0.5230 -0.3861  0.5957
  131MOL    H3726297   1.302   6.981   1.490  0.1043 -0.8877  0.9684
  131MOL    H3826298   1.358   7.111   1.586 -1.2752 -0.1639  2.3010
  131MOL    H3926299   1.123   7.233   1.496  1.0423  0.1570  0.3915
  131MOL    H4026300   1.267   7.257   1.423 -1.7739  1.3648 -0.9161
  131MOL    H4126301   1.077   7.031   1.360  1.3844 -1.0005  0.3641
  131MOL    C4226302   1.147   7.149   1.199  0.7269 -0.2292  0.5149
  131MOL    O4326303   1.217   7.244   1.168  0.6342  0.4972 -0.2160
  131MOL    C4426304   1.059   7.075   1.099 -0.1126  0.2191 -0.4788
  131MOL    C4526305   1.130   7.053   0.962  0.1128  1.2894  0.2818
  131MOL    N4626306   1.228   6.941   0.970  0.1225  0.2610 -0.1252
  131MOL    H4726307   1.023   6.983   1.144 -0.8627  0.5510 -0.3806
  131MOL    H4826308   0.963   7.126   1.084 -0.0970  0.2796 -0.3753
  131MOL    H4926309   1.066   7.034   0.875  2.8169 -1.5913 -1.1719
  131MOL    H5026310   1.166   7.155   0.944 -2.1699  2.2927  1.3132
  131MOL    H5126311   1.186   6.850   0.978  3.4656 -1.4294 -1.1771
  131MOL    C5226312   1.360   6.961   0.955 -0.5606  0.4560  0.6348
  131MOL    O5326313   1.411   7.068   0.932 -0.0538  0.3171  0.5553
  131MOL    C5426314   1.454   6.845   0.995  0.7653 -0.4890 -0.1873
  131MOL    C5526315   1.544   6.807   0.871  0.4667  0.9134 -0.6508
  131MOL    N5626316   1.658   6.886   0.845 -0.5318  0.2705  0.1146
  131MOL    H5726317   1.499   6.885   1.086 -0.2083 -0.9750  0.5192
  131MOL    H5826318   1.404   6.757   1.037 -1.8318  1.7346  1.5909
  131MOL    H5926319   1.481   6.817   0.782 -0.8242 -0.9394  0.0182
  131MOL    H6026320   1.574   6.703   0.889 -0.3114  1.1995  2.4802
  131MOL    H6126321   1.668   6.982   0.876  1.6270 -0.5400  2.1319
  131MOL    C6226322   1.773   6.833   0.802  0.2919  0.1081  0.1164
  131MOL    O6326323   1.788   6.712   0.769  0.0377  0.3281  0.4251
  131MOL    C6426324   1.889   6.937   0.787 -0.5936  0.6420  0.1610
  131MOL    C6526325   2.027   6.879   0.833 -0.1038  0.1439 -0.5048
  131MOL    N6626326   2.056   6.879   0.984  0.0466 -0.1633 -0.2898
  131MOL    H6726327   1.894   6.971   0.683  0.6477  0.3056  0.1020
  131MOL    H6826328   1.874   7.031   0.841  1.6612 -0.0520  2.0466
  131MOL    H6926329   2.037   6.774   0.805  1.3754 -0.3292  1.6616
  131MOL    H7026330   2.111   6.927   0.783  3.0772 -2.3405  2.1620
  131MOL    H7126331   2.151   6.857   1.011 -0.3981 -0.8634  0.7222
  131MOL    C7226332   1.976   6.917   1.087 -0.2521 -0.3802  0.1336
  131MOL    O7326333   1.856   6.941   1.072 -0.0845 -0.1396 -0.0528
  131MOL    C7426334   2.031   6.913   1.230 -0.0649 -0.4479  0.5989
  131MOL    C7526335   2.105   7.042   1.268 -0.3120 -0.1993 -0.5929
  131MOL    N7626336   2.229   7.072   1.191  0.4806 -0.0866 -0.1727
  131MOL    H7726337   1.951   6.901   1.304  0.8468 -0.4789  1.5961
  131MOL    H7826338   2.100   6.828   1.239  2.1346  1.1883 -0.4186
  131MOL    H7926339   2.027   7.118   1.256  0.7353  0.8665 -0.8216
  131MOL    H8026340   2.122   7.041   1.376 -3.4016 -0.6590 -0.0660
  131MOL    H8126341   2.309   7.014   1.212 -0.2693 -0.9453  0.4008
  131MOL    C8226342   2.243   7.175   1.105 -0.2039 -0.0226  0.1507
  131MOL    O8326343   2.145   7.243   1.078  0.8779 -0.3647 -0.7884
  131MOL    C8426344   2.366   7.193   1.014  0.0043  0.8128 -0.7446
  131MOL    C8526345   2.402   7.341   0.981 -0.1343  0.0294 -0.2869
  131MOL    N8626346   2.413   7.429   1.097  0.2430 -0.3770  0.8933
  131MOL    H8726347   2.457   7.154   1.060 -1.4353 -2.9814 -0.9457
  131MOL    H8826348   2.351   7.137   0.922 -0.3207 -1.9818  0.9604
  131MOL    H8926349   2.493   7.350   0.923 -0.2622 -0.3428 -0.5483
  131MOL    H9026350   2.322   7.384   0.920 -0.3288  0.2391  0.1144
  131MOL    H9126351   2.331   7.452   1.151 -1.2102  0.0579 -1.4010
  131MOL    C9226352   2.526   7.487   1.142  0.7785 -0.1932  0.2421
  131MOL    O9326353   2.632   7.470   1.092  0.1466  0.2379 -0.0441
  131MOL    C9426354   2.521   7.563   1.278  0.4274 -0.4538 -0.3383
  131MOL    C9526355   2.548   7.720   1.272  0.1652 -0.1141 -0.1157
  131MOL    N9626356   2.442   0.027   1.221  0.7100 -0.3740 -0.1494
  131MOL    H9726357   2.430   7.534   1.330 -0.7652  0.8761 -1.6120
  131MOL    H9826358   2.602   7.521   1.338 -0.0307 -1.6695 -0.5610
  131MOL    H9926359   2.571   7.759   1.372  1.9650  0.8812 -0.8839
  131MOL   H10026360   2.643   7.742   1.222  0.8586 -0.8877  0.8282
  131MOL   H10126361   2.436   0.035   1.120  0.6770 -1.8577 -0.2713
  131MOL   C10226362   2.340   0.072   1.297 -0.3396  0.3029  0.0939
  131MOL   O10326363   2.345   0.081   1.422  0.5776 -0.1627 -0.4098
  131MOL   C10426364   2.226   0.132   1.210  0.0750 -0.3912 -1.1962
  131MOL   C10526365   2.110   0.177   1.293 -0.2296 -0.1772  0.8049
  131MOL   N10626366   1.984   0.182   1.217  0.1288 -0.1195  0.0539
  131MOL   H10726367   2.197   0.052   1.141  1.3612 -1.3089 -0.6821
  131MOL   H10826368   2.260   0.218   1.153 -0.3730 -0.7655 -2.0520
  131MOL   H10926369   2.110   0.132   1.392  1.5028  0.4407  1.1031
  131MOL   H11026370   2.139   0.277   1.325  0.5648 -0.5118  1.1552
  131MOL   H11126371   1.969   0.268   1.166 -2.6976  0.0575  1.1051
  131MOL   C11226372   1.902   0.078   1.226  0.1443  0.8188  0.0484
  131MOL   O11326373   1.914   7.769   1.314 -0.2841  0.0980 -0.6289
  131MOL   C11426374   1.802   0.068   1.117  0.4992 -0.2461  0.0459
  131MOL   C11526375   1.690   7.748   1.128 -0.3988  0.1644 -0.3076
  131MOL   N11626376   1.730   7.610   1.103 -0.1339  0.2297 -0.8326
  131MOL   H11726377   1.854   0.043   1.025 -0.5816 -1.8969 -0.1414
  131MOL   H11826378   1.742   0.159   1.118  2.6017  1.1789  0.6551
  131MOL   H11926379   1.656   7.757   1.231  1.5172 -1.3767  0.4820
  131MOL   H12026380   1.597   7.757   1.072 -0.7097  0.4342  0.2478
  131MOL   H12126381   1.742   7.544   1.178 -0.6883  0.4150 -0.5781
  131MOL   C12226382   1.753   7.561   0.979  0.3616  1.5873 -0.1872
  131MOL   O12326383   1.743   7.630   0.876  0.0022 -0.2235 -0.9254
  131MOL   C12426384   1.781   7.413   0.980 -0.3570  0.2146  0.6297
  131MOL   C12526385   1.815   7.339   0.854  0.4591  0.1071  0.1939
  131MOL   N12626386   1.686   7.307   0.797  0.1903  0.9941  0.3744
  131MOL   H12726387   1.698   7.361   1.028 -0.8117  0.3943  0.0459
  131MOL   H12826388   1.863   7.397   1.049 -0.6268  1.2337  1.1896
  131MOL   H12926389   1.873   7.405   0.790 -1.4062  1.7191  0.1341
  131MOL   H13026390   1.874   7.256   0.894  0.5469  1.4713  2.9522
  131MOL   H13126391   1.604   7.327   0.852  0.4754  0.3628  1.0267
  131MOL   C13226392   1.665   7.236   0.679 -0.1943 -1.1186  0.1960
  131MOL   O13326393   1.759   7.213   0.602 -0.1049  0.3219 -0.2630
  131MOL   C13426394   1.516   7.205   0.646 -0.4050 -0.6627  0.0577
  131MOL   C13526395   1.477   7.260   0.506  0.4108  0.0555 -0.2744
  131MOL   N13626396   1.338   7.272   0.488  0.3455  0.3176  0.2753
  131MOL   H13726397   1.463   7.251   0.730 -1.0176 -1.1603 -0.0525
  131MOL   H13826398   1.492   7.099   0.659 -0.0969 -0.9035 -1.3353
  131MOL   H13926399   1.523   7.358   0.497 -2.1853  1.4059  0.7787
  131MOL   H14026400   1.519   7.193   0.431 -0.8499  0.8799 -1.7581
  131MOL   H14126401   1.286   7.334   0.548 -0.3222  1.2129 -1.1943
  131MOL   C14226402   1.256   7.207   0.405  0.1062 -0.6572  0.3206
  131MOL   O14326403   1.292   7.146   0.302  0.2188  0.1434 -0.1412
  131MOL   C14426404   1.114   7.196   0.460  0.5559 -0.2615  0.4122
  131MOL   C14526405   1.032   7.087   0.392  0.3561  0.1786  0.0899
  131MOL   N14626406   0.892   7.080   0.441 -0.0964  0.0207  0.3880
  131MOL   H14726407   1.076   7.297   0.457  1.6946  0.1652  0.0009
  131MOL   H14826408   1.130   7.161   0.562  1.0051 -0.5030  0.2613
  131MOL   H14926409   1.035   7.108   0.285  0.4196 -2.0869 -0.3706
  131MOL   H15026410   1.078   6.990   0.406 -1.2858 -0.3572  2.0007
  131MOL   H15126411   0.818   7.074   0.373  0.2482 -0.7970  0.0751
  131MOL   C15226412   0.834   7.088   0.559 -0.3407  0.1553 -0.0665
  131MOL   O15326413   0.888   7.110   0.667 -0.6917 -0.0681 -0.2395
  131MOL   C15426414   0.684   7.068   0.550 -0.0076 -0.1551 -0.7134
  131MOL   C15526415   0.634   6.955   0.643  0.2396  0.4529 -0.0646
  131MOL   N15626416   0.527   6.876   0.579 -0.2420 -0.1341  0.7192
  131MOL   H15726417   0.648   7.055   0.448  0.7999  0.8101 -1.1262
  131MOL   H15826418   0.631   7.156   0.586 -0.9099 -1.3585  1.0015
  131MOL   H15926419   0.721   6.889   0.647  1.9114  2.5842 -0.3455
  131MOL   H16026420   0.597   6.993   0.738 -1.5580  0.6452 -0.8200
  131MOL   H16126421   0.519   6.880   0.479  0.5356 -1.5457  0.5866
  131MOL   C16226422   0.412   6.842   0.645 -0.2041  0.2981  0.1588
  131MOL   O16326423   0.402   6.850   0.767  0.2258  0.0117  0.1130
  131MOL   C16426424   0.303   6.777   0.562  0.3964 -0.4559  0.0417
  131MOL   C16526425   0.330   6.633   0.509 -0.5073 -0.2592 -0.1874
  131MOL   N16626426   0.239   6.606   0.403 -0.8269 -0.1648  0.6901
  131MOL   H16726427   0.288   6.849   0.481  1.6885  0.6535  0.7630
  131MOL   H16826428   0.211   6.770   0.619 -1.0135  1.7600 -1.8405
  131MOL   H16926429   0.433   6.618   0.477  0.3936  0.8270  2.0860
  131MOL   H17026430   0.308   6.562   0.589 -2.8642 -0.0745 -0.6376
  131MOL   H17126431   0.275   6.589   0.310 -1.5725  2.4178 -0.1227
  131MOL   C17226432   0.114   6.572   0.430 -0.8574 -0.0289  0.2342
  131MOL   O17326433   0.082   6.552   0.548 -0.4395  0.5077 -0.1052
  131MOL   C17426434   0.019   6.543   0.324 -0.1135  0.0847  0.0405
  131MOL   C17526435   7.647   6.540   0.370 -0.0524 -0.1703 -0.3602
  131MOL   N17626436   7.602   6.401   0.382 -0.3194  0.6866 -0.3447
  131MOL   H17726437   0.049   6.457   0.264  1.9705 -0.1986  1.4123
  131MOL   H17826438   0.031   6.627   0.257  1.9355  0.4825  0.8691
  131MOL   H17926439   7.633   6.589   0.467  2.8820  0.3283 -0.1353
  131MOL   H18026440   7.590   6.595   0.296 -0.4190  0.5028  0.4103
  131MOL   H18126441   7.602   6.362   0.475 -1.0492 -1.0773 -1.0564
  131MOL   C18226442   7.553   6.342   0.274 -0.1936  0.3411 -0.2176
  131MOL   O18326443   7.581   6.384   0.165 -0.8368  0.5898  0.1048
  131MOL   C18426444   7.483   6.205   0.295  0.0588 -0.5738  0.7863
  131MOL   C18526445   7.435   6.125   0.172 -0.1913  0.2049 -0.0698
  131MOL   N18626446   7.528   6.026   0.118  0.0196  0.2574 -0.0443
  131MOL   H18726447   7.392   6.232   0.347 -0.3640 -0.6961  0.1187
  131MOL   H18826448   7.544   6.137   0.355  1.4844  0.5590  0.6587
  131MOL   H18926449   7.337   6.080   0.189 -0.0073  0.2732  1.2016
  131MOL   H19026450   7.414   6.199   0.094 -0.6585  0.1088 -0.0370
  131MOL   H19126451   7.597   6.064   0.054  0.8402 -1.3968 -0.1634
  131MOL   C19226452   7.551   5.900   0.168 -0.7262 -1.2930 -0.3467
  131MOL   O19326453   7.474   5.858   0.256 -0.3689  0.4305  0.2305
  131MOL   C19426454   7.670   5.819   0.120  0.5351  0.1914  0.5196
  131MOL   C19526455   0.031   5.874   0.159  0.2704  0.4820 -0.0439
  131MOL   N19626456   0.059   5.995   0.089  0.5679 -0.4579  0.2735
  131MOL   H19726457   7.658   5.724   0.171 -2.0205  0.8145  1.1539
  131MOL   H19826458   7.662   5.794   0.014 -0.2782 -2.8814  1.2568
  131MOL   H19926459   0.029   5.884   0.267  2.0188  1.7599 -0.1042
  131MOL   H20026460   0.100   5.793   0.133  0.2131  0.1677  0.7707
  131MOL   H20126461   0.020   5.969   7.779  0.5601  1.9997 -0.4661
  131MOL   H20226462   0.158   6.006   0.075  0.5087  0.0255  0.2192
  132MOL     C126463   4.805   6.346   1.586 -0.9366 -0.1379 -0.5070
  132MOL     O226464   4.814   6.287   1.689  0.9337 -0.1604 -0.1312
  132MOL     C326465   4.670   6.347   1.516  0.3797 -0.7730 -0.0712
  132MOL     C426466   4.648   6.216   1.445 -0.5968  0.3498 -0.4001
  132MOL     N526467   4.501   6.204   1.417  0.2884 -0.0795  0.1906
  132MOL     H626468   4.668   6.431   1.448  1.0852  0.9102  1.9297
  132MOL     H726469   4.589   6.361   1.588 -0.3487 -0.1008 -1.0258
  132MOL     H826470   4.682   6.131   1.506 -2.5449 -0.8065 -0.8649
  132MOL     H926471   4.703   6.211   1.352  0.2428  0.9175  0.0643
  132MOL    H1026472   4.457   6.134   1.476  1.4987 -0.8687  0.1808
  132MOL    H1126473   4.874   6.418   1.543 -0.3062  0.8930  2.1597
  132MOL    C1226474   4.429   6.263   1.326  0.1411  0.0104 -0.2043
  132MOL    O1326475   4.476   6.343   1.246  0.3622 -0.4082  0.0690
  132MOL    C1426476   4.286   6.217   1.319  0.1378 -0.2087  0.0610
  132MOL    C1526477   4.190   6.276   1.424 -0.1742 -0.3798  0.0245
  132MOL    N1626478   4.051   6.257   1.388  0.2913 -0.2185 -0.0854
  132MOL    H1726479   4.286   6.108   1.325  1.6054 -0.4354 -2.8984
  132MOL    H1826480   4.252   6.243   1.218 -0.0006 -0.0840  0.1388
  132MOL    H1926481   4.216   6.241   1.524 -1.6366  1.2629  1.0047
  132MOL    H2026482   4.207   6.383   1.426  0.8199 -0.5525  1.8243
  132MOL    H2126483   4.023   6.320   1.314  2.3135  1.9710  0.9524
  132MOL    C2226484   3.976   6.152   1.418 -0.1904  0.4656  1.1416
  132MOL    O2326485   4.028   6.053   1.469  0.2714 -0.7719  0.2597
  132MOL    C2426486   3.818   6.152   1.400 -0.1976  0.2395  0.3962
  132MOL    C2526487   3.751   6.026   1.351  0.2492  0.6647  0.2285
  132MOL    N2626488   3.632   6.055   1.275  0.3557 -0.4229 -0.3050
  132MOL    H2726489   3.786   6.244   1.351 -0.9999 -0.2121  0.0660
  132MOL    H2826490   3.778   6.165   1.500  2.6387 -1.6159  1.8380
  132MOL    H2926491   3.826   5.958   1.310 -0.9072 -1.9324  2.2394
  132MOL    H3026492   3.707   5.974   1.435  1.9777  0.2983  0.9272
  132MOL    H3126493   3.562   6.106   1.326  0.0749 -1.2025  0.0958
  132MOL    C3226494   3.589   5.994   1.162  0.5921  0.6132  0.1377
  132MOL    O3326495   3.660   5.926   1.095  0.1556 -0.0929 -0.2642
  132MOL    C3426496   3.450   6.025   1.118 -0.4426  0.2631  0.4553
  132MOL    C3526497   3.395   5.932   1.008  0.0460 -0.0943 -0.3443
  132MOL    N3626498   3.331   5.813   1.058 -0.2474 -0.4073  0.2655
  132MOL    H3726499   3.445   6.122   1.068 -2.9303  1.2151  2.4403
  132MOL    H3826500   3.377   6.032   1.199 -1.0576  0.8341 -0.1331
  132MOL    H3926501   3.333   5.989   0.939  0.1807  0.7795  0.2495
  132MOL    H4026502   3.485   5.892   0.961 -0.7772  0.0318 -2.0515
  132MOL    H4126503   3.389   5.740   1.098  0.9850 -0.7746 -2.0810
  132MOL    C4226504   3.196   5.793   1.060 -0.4714 -0.2681 -0.1529
  132MOL    O4326505   3.114   5.878   1.027  0.0104  0.5250  0.2049
  132MOL    C4426506   3.155   5.660   1.120 -0.1383 -0.1173  0.4158
  132MOL    C4526507   3.034   5.667   1.211 -0.2201  0.4167  0.2630
  132MOL    N4626508   2.964   5.544   1.225  0.4332  0.4194 -0.0045
  132MOL    H4726509   3.129   5.609   1.028 -2.8816 -0.5552  1.3835
  132MOL    H4826510   3.242   5.614   1.167 -1.2962 -1.6967  1.0525
  132MOL    H4926511   3.052   5.706   1.311  1.8928 -0.6670  0.3152
  132MOL    H5026512   2.950   5.721   1.168 -0.4717 -0.3477 -0.2243
  132MOL    H5126513   2.880   5.542   1.169  0.8400  2.0761 -0.7038
  132MOL    C5226514   2.989   5.448   1.314 -0.3152  0.5623  0.5754
  132MOL    O5326515   3.084   5.454   1.393  0.2577 -0.1050 -0.1048
  132MOL    C5426516   2.875   5.340   1.325  0.5748 -0.9475  0.1447
  132MOL    C5526517   2.897   5.250   1.444  0.6263 -0.9598  0.5276
  132MOL    N5626518   3.031   5.184   1.469  0.1000 -0.3226 -0.5264
  132MOL    H5726519   2.781   5.394   1.331  1.4173  0.4109  1.6390
  132MOL    H5826520   2.871   5.291   1.229  0.5392  0.7097 -0.7253
  132MOL    H5926521   2.820   5.172   1.449  0.0175 -0.4731 -1.0609
  132MOL    H6026522   2.875   5.309   1.533 -1.6686 -2.6274  1.1282
  132MOL    H6126523   3.120   5.232   1.469  1.2568 -2.3627  1.2082
  132MOL    C6226524   3.035   5.067   1.539 -0.1158  0.4728  0.0729
  132MOL    O6326525   2.936   4.993   1.558 -0.1832  0.3536  0.2570
  132MOL    C6426526   3.173   5.025   1.586 -0.2983 -0.0429 -0.3893
  132MOL    C6526527   3.224   4.887   1.533 -0.4761 -0.5285 -0.3838
  132MOL    N6626528   3.196   4.861   1.384  0.0660 -0.6987  0.6956
  132MOL    H6726529   3.249   5.095   1.550 -0.6390 -0.3676 -1.7730
  132MOL    H6826530   3.183   5.025   1.695 -1.5516  0.4757 -0.2732
  132MOL    H6926531   3.328   4.868   1.561 -1.0114  2.8276  4.5421
  132MOL    H7026532   3.170   4.820   1.600 -1.1937 -0.0230 -0.4512
  132MOL    H7126533   3.183   4.944   1.328  1.8336 -2.1298 -1.9144
  132MOL    C7226534   3.227   4.739   1.333 -0.4230 -0.0711  0.3170
  132MOL    O7326535   3.246   4.644   1.407 -0.1445 -0.4758  0.8070
  132MOL    C7426536   3.246   4.720   1.182 -0.3557  0.8576 -0.3699
  132MOL    C7526537   3.402   4.735   1.144 -0.0760 -1.2443 -0.8518
  132MOL    N7626538   3.466   4.860   1.189  0.6878  0.1540 -0.4906
  132MOL    H7726539   3.204   4.625   1.150 -0.5603  0.5019  0.9094
  132MOL    H7826540   3.185   4.794   1.131  0.8343  1.4222 -0.9844
  132MOL    H7926541   3.462   4.651   1.180 -0.9357 -1.1392  0.9227
  132MOL    H8026542   3.410   4.737   1.036  1.7740  0.2812 -0.7284
  132MOL    H8126543   3.395   4.930   1.208 -0.1585 -0.8013 -0.0589
  132MOL    C8226544   3.592   4.873   1.216  0.3007 -0.1798 -0.6919
  132MOL    O8326545   3.678   4.792   1.188 -0.3802 -0.0484  0.0562
  132MOL    C8426546   3.620   5.014   1.272  0.0852  0.1038 -1.1510
  132MOL    C8526547   3.765   5.031   1.317  1.2384  0.2877  0.7338
  132MOL    N8626548   3.782   5.152   1.399 -0.7279  0.1685  0.2302
  132MOL    H8726549   3.593   5.079   1.189  0.2723  1.9070  0.1851
  132MOL    H8826550   3.554   5.028   1.358  1.0838 -1.1058 -0.1647
  132MOL    H8926551   3.785   4.945   1.381 -0.8910 -1.2135 -0.5692
  132MOL    H9026552   3.827   5.046   1.229  1.5101  0.2098  0.9124
  132MOL    H9126553   3.703   5.212   1.423 -0.8975  0.3017 -0.6610
  132MOL    C9226554   3.904   5.189   1.444  0.0544 -0.1044 -0.0010
  132MOL    O9326555   4.008   5.123   1.421 -0.2140 -0.1192 -0.1057
  132MOL    C9426556   3.905   5.317   1.530 -0.1719 -0.2845  0.4256
  132MOL    C9526557   4.030   5.326   1.618 -0.0794  0.5671  1.2095
  132MOL    N9626558   4.020   5.250   1.741 -0.1558  0.3200  0.2418
  132MOL    H9726559   3.898   5.408   1.470  2.3016  0.6680  1.5308
  132MOL    H9826560   3.819   5.318   1.597 -0.3654  2.1338  0.1917
  132MOL    H9926561   4.118   5.294   1.562 -2.8589 -2.1619 -1.8553
  132MOL   H10026562   4.041   5.431   1.645  2.5705  0.1746  1.7249
  132MOL   H10126563   4.034   5.150   1.742  0.5012  0.4159  1.3971
  132MOL   C10226564   4.013   5.300   1.862  0.2728  0.8801 -0.0730
  132MOL   O10326565   4.008   5.417   1.895  0.3619  0.1002  0.2507
  132MOL   C10426566   4.011   5.193   1.970 -0.8678  0.5539 -0.2976
  132MOL   C10526567   3.878   5.125   2.016  0.1139 -0.2127 -0.1280
  132MOL   N10626568   3.828   5.032   1.917  0.1577 -0.5483  0.0088
  132MOL   H10726569   4.080   5.227   2.048 -0.7532 -0.1097 -0.1063
  132MOL   H10826570   4.078   5.117   1.930 -1.0832  1.1164 -1.7351
  132MOL   H10926571   3.901   5.066   2.105  0.6963 -0.5318 -0.4880
  132MOL   H11026572   3.795   5.188   2.048 -0.0287 -1.7263  2.6950
  132MOL   H11126573   3.858   4.939   1.944 -0.8907 -0.9735 -0.2559
  132MOL   C11226574   3.748   5.050   1.811 -0.3531  0.6416 -0.1361
  132MOL   O11326575   3.692   5.151   1.777  0.1112 -0.5609  0.6902
  132MOL   C11426576   3.741   4.928   1.721  0.7514  0.3822 -0.6946
  132MOL   C11526577   3.594   4.900   1.669  0.4742  0.5356 -0.5858
  132MOL   N11626578   3.567   4.761   1.640  0.2720 -0.1792  0.2704
  132MOL   H11726579   3.768   4.848   1.790 -1.2110 -1.2961 -1.8167
  132MOL   H11826580   3.812   4.934   1.639 -1.1248  1.0660 -2.3118
  132MOL   H11926581   3.527   4.924   1.752  2.3302  0.4536  0.9685
  132MOL   H12026582   3.569   4.961   1.582 -0.9338 -1.1185 -1.3796
  132MOL   H12126583   3.484   4.719   1.681  0.2326 -0.6288 -0.2652
  132MOL   C12226584   3.633   4.687   1.550  0.2258 -1.0450  0.3036
  132MOL   O12326585   3.741   4.722   1.504 -0.3539  0.4491  0.0645
  132MOL   C12426586   3.560   4.564   1.507  1.0436  0.3602  0.4966
  132MOL   C12526587   3.650   4.443   1.486  0.0419  0.3560  0.1183
  132MOL   N12626588   3.583   4.326   1.431  0.6506  0.7477 -0.3941
  132MOL   H12726589   3.491   4.572   1.423  1.2608  0.8550  0.3657
  132MOL   H12826590   3.486   4.542   1.585  2.4342  0.8636  1.9898
  132MOL   H12926591   3.710   4.460   1.396 -0.3722 -0.7417 -0.3743
  132MOL   H13026592   3.708   4.435   1.578  0.0169 -0.9680  0.0315
  132MOL   H13126593   3.581   4.312   1.331 -2.8093 -0.2218 -0.2334
  132MOL   C13226594   3.533   4.231   1.512  0.1705 -0.1051  0.1547
  132MOL   O13326595   3.516   4.256   1.632  0.4018  0.2758  0.0502
  132MOL   C13426596   3.491   4.095   1.449 -0.2406  0.0090  0.4246
  132MOL   C13526597   3.567   3.973   1.497 -0.8761  0.6779  0.3308
  132MOL   N13626598   3.695   3.959   1.446 -0.0837 -0.2200 -0.0311
  132MOL   H13726599   3.482   4.104   1.341 -0.7495  1.3400  0.5563
  132MOL   H13826600   3.387   4.094   1.481 -0.3284  3.2603  0.4083
  132MOL   H13926601   3.578   3.983   1.605  0.2539  1.7135  0.1378
  132MOL   H14026602   3.510   3.881   1.482  0.7896 -0.6697  1.9993
  132MOL   H14126603   3.770   3.966   1.513 -0.3777 -0.3391  0.3075
  132MOL   C14226604   3.721   3.931   1.321 -0.2548 -0.3527  0.7020
  132MOL   O14326605   3.634   3.933   1.232  0.6513 -0.3765 -0.5350
  132MOL   C14426606   3.864   3.914   1.272  0.0451  0.3071  0.4169
  132MOL   C14526607   3.894   4.011   1.152  0.8322 -0.1307  0.8540
  132MOL   N14626608   4.039   4.029   1.133 -0.3551 -0.4944  0.2498
  132MOL   H14726609   3.878   3.809   1.245  0.5167  0.6364 -0.6851
  132MOL   H14826610   3.936   3.940   1.349  1.9455  0.0065 -1.2016
  132MOL   H14926611   3.861   3.956   1.063 -1.2422  1.1536  0.7951
  132MOL   H15026612   3.838   4.104   1.159  2.1027  0.8311 -1.1883
  132MOL   H15126613   4.083   4.099   1.192 -0.6572 -0.2564  0.1982
  132MOL   C15226614   4.117   3.977   1.041  0.6547  0.9798 -0.4851
  132MOL   O15326615   4.076   3.908   0.950  0.1371 -1.1438 -0.4293
  132MOL   C15426616   4.265   4.007   1.057  0.5567 -0.2198 -0.1874
  132MOL   C15526617   4.316   4.129   0.991  0.4880 -0.3282 -0.0291
  132MOL   N15626618   4.333   4.122   0.845 -0.9486 -0.0352  0.2400
  132MOL   H15726619   4.318   3.920   1.019  0.7630 -0.3020  0.2828
  132MOL   H15826620   4.282   4.009   1.165 -0.8563  0.6458  0.0421
  132MOL   H15926621   4.243   4.209   1.000 -0.5862 -1.3758  0.8415
  132MOL   H16026622   4.409   4.160   1.040 -1.0165  1.0104  2.0608
  132MOL   H16126623   4.287   4.060   0.780 -1.9553  1.7582 -0.7969
  132MOL   C16226624   4.429   4.188   0.787 -1.1363 -0.1643  1.0213
  132MOL   O16326625   4.477   4.288   0.849  0.0438 -0.2528 -0.4847
  132MOL   C16426626   4.471   4.162   0.643 -0.4811 -0.4055  0.0072
  132MOL   C16526627   4.595   4.079   0.626 -0.3003  0.1244 -0.1179
  132MOL   N16626628   4.715   4.132   0.687 -0.6486 -0.5542  0.0784
  132MOL   H16726629   4.499   4.252   0.589 -0.4318 -0.4171  0.0140
  132MOL   H16826630   4.391   4.119   0.583 -0.1023 -0.5153 -0.4233
  132MOL   H16926631   4.576   3.981   0.671  0.0572 -0.8405 -2.0106
  132MOL   H17026632   4.613   4.062   0.519  0.1980  0.8222 -0.1513
  132MOL   H17126633   4.696   4.192   0.766 -0.4034  0.0559 -0.3302
  132MOL   C17226634   4.839   4.122   0.639  1.0637 -0.2115 -0.4408
  132MOL   O17326635   4.865   4.044   0.548 -0.5912 -0.0346  0.0355
  132MOL   C17426636   4.948   4.203   0.702 -0.0172 -0.6703 -0.4369
  132MOL   C17526637   5.091   4.193   0.643 -0.3307  0.0637 -0.9260
  132MOL   N17626638   5.165   4.318   0.661 -0.5781 -0.5339 -0.2578
  132MOL   H17726639   4.952   4.175   0.807  1.7736  1.3276  0.0529
  132MOL   H17826640   4.928   4.310   0.705 -1.5419 -0.9524  0.0986
  132MOL   H17926641   5.152   4.119   0.694  0.3434  1.2244 -0.0258
  132MOL   H18026642   5.088   4.156   0.541 -0.3939  0.5381 -1.1017
  132MOL   H18126643   5.134   4.393   0.722  0.5931  0.1440 -0.4802
  132MOL   C18226644   5.291   4.333   0.613 -0.0228  0.5701 -0.7726
  132MOL   O18326645   5.353   4.246   0.555 -0.2656  0.3472 -0.5274
  132MOL   C18426646   5.347   4.474   0.645  0.2501  0.3170  0.5548
  132MOL   C18526647   5.298   4.592   0.565 -0.4625  0.1576  0.2411
  132MOL   N18626648   5.397   4.625   0.465 -0.3160  0.0574  0.3372
  132MOL   H18726649   5.456   4.473   0.636  0.1618  0.3392 -0.5633
  132MOL   H18826650   5.327   4.484   0.752 -0.1537 -0.9420  0.6010
  132MOL   H18926651   5.198   4.573   0.527 -0.6901 -0.1750  0.9931
  132MOL   H19026652   5.282   4.672   0.638 -2.7867  0.5996 -0.7165
  132MOL   H19126653   5.491   4.644   0.499 -0.0991  0.4565 -0.4819
  132MOL   C19226654   5.375   4.644   0.336 -0.4582 -0.1518 -0.1401
  132MOL   O19326655   5.264   4.621   0.282 -0.4931 -0.0873  0.1649
  132MOL   C19426656   5.481   4.709   0.248  0.7521 -0.8800  0.1822
  132MOL   C19526657   5.437   4.768   0.109 -0.4151  0.2779  0.4571
  132MOL   N19626658   5.448   4.676   7.779 -0.0071  0.0523 -0.1961
  132MOL   H19726659   5.519   4.793   0.307  1.0565 -0.9691  0.1123
  132MOL   H19826660   5.558   4.632   0.246  0.4029 -1.2785  1.4331
  132MOL   H19926661   5.338   4.813   0.125 -1.1014 -0.5771 -1.2556
  132MOL   H20026662   5.499   4.854   0.085  0.4505 -0.0067  1.6128
  132MOL   H20126663   5.412   4.594   0.046  1.9309 -0.2811  0.7662
  132MOL   H20226664   5.385   4.718   7.713  0.0368 -2.2146 -1.7451
  133MOL     C126665   2.608   4.571   4.577 -0.1296 -0.0670  0.7106
  133MOL     O226666   2.654   4.534   4.468  0.8208  0.5346 -0.3737
  133MOL     C326667   2.698   4.612   4.692 -0.7700  0.2610  0.2681
  133MOL     C426668   2.748   4.758   4.683  0.7007 -0.7006 -0.4322
  133MOL     N526669   2.658   4.845   4.760 -0.0833 -0.1350 -0.1692
  133MOL     H626670   2.786   4.549   4.691 -1.5926 -1.0489  3.1163
  133MOL     H726671   2.652   4.592   4.789 -0.8818 -0.0373  0.1538
  133MOL     H826672   2.735   4.794   4.581  2.3128 -0.9404 -0.7395
  133MOL     H926673   2.850   4.780   4.717  0.4379 -0.0871 -0.0184
  133MOL    H1026674   2.594   4.899   4.703 -0.7183 -0.8041 -0.1063
  133MOL    H1126675   2.503   4.572   4.605 -0.5942 -1.6113 -0.9484
  133MOL    C1226676   2.638   4.846   4.891 -0.4749 -0.3132 -0.0403
  133MOL    O1326677   2.689   4.774   4.974 -0.0637  0.4758 -0.2201
  133MOL    C1426678   2.538   4.950   4.940 -0.2738  0.2934 -0.3252
  133MOL    C1526679   2.443   4.889   5.051  0.7473 -0.1787  0.1176
  133MOL    N1626680   2.334   4.978   5.084 -0.9617 -0.1941 -0.1456
  133MOL    H1726681   2.460   4.975   4.867  1.1976  2.5487 -1.1742
  133MOL    H1826682   2.587   5.043   4.969 -0.7161  0.6980 -0.8459
  133MOL    H1926683   2.405   4.792   5.021  1.0854 -0.6735  1.2732
  133MOL    H2026684   2.505   4.886   5.141 -0.1497  0.4183  0.7630
  133MOL    H2126685   2.298   5.046   5.019 -2.0877 -1.3583 -0.7592
  133MOL    C2226686   2.273   4.973   5.200 -0.8091  0.0903 -0.5743
  133MOL    O2326687   2.295   4.894   5.290  0.2034 -0.2894 -0.7658
  133MOL    C2426688   2.180   5.091   5.236 -0.1891  0.1327 -0.3107
  133MOL    C2526689   2.209   5.173   5.358 -0.2246 -0.5035 -0.1989
  133MOL    N2626690   2.216   5.092   5.486  0.4914 -0.5834  0.6240
  133MOL    H2726691   2.083   5.041   5.249  0.4685 -0.9410  0.5462
  133MOL    H2826692   2.171   5.168   5.160  1.6775  0.2357 -0.4435
  133MOL    H2926693   2.309   5.216   5.352 -0.9556  1.2291 -0.2321
  133MOL    H3026694   2.154   5.266   5.368  0.7395  0.1462 -0.7695
  133MOL    H3126695   2.203   4.992   5.490 -0.0442 -0.4835  1.3378
  133MOL    C3226696   2.284   5.132   5.594 -0.4040  0.4131  0.1552
  133MOL    O3326697   2.322   5.252   5.616 -0.7983 -0.1091  0.2303
  133MOL    C3426698   2.320   5.024   5.695  0.3537  0.4781 -0.1698
  133MOL    C3526699   2.459   4.957   5.682 -0.5950 -0.8534  0.0979
  133MOL    N3626700   2.467   4.870   5.566 -0.1036  0.1090  0.4282
  133MOL    H3726701   2.247   4.944   5.683  0.1433  0.3451  1.9123
  133MOL    H3826702   2.320   5.056   5.799  0.4261 -0.3561  0.0882
  133MOL    H3926703   2.523   5.043   5.664 -2.5956  0.9475  1.3842
  133MOL    H4026704   2.499   4.912   5.773  0.6977 -0.8626 -0.4564
  133MOL    H4126705   2.468   4.918   5.477  1.0172 -3.5256 -1.6122
  133MOL    C4226706   2.493   4.738   5.585 -0.3226 -0.0029  0.2693
  133MOL    O4326707   2.490   4.680   5.697  0.2526  0.1922 -0.1044
  133MOL    C4426708   2.521   4.648   5.470 -0.1789 -0.4852 -0.4786
  133MOL    C4526709   2.406   4.546   5.442  0.3703  0.2507  1.4255
  133MOL    N4626710   2.294   4.609   5.385  0.7590  0.2658 -0.4434
  133MOL    H4726711   2.550   4.705   5.381  1.9386 -1.7539 -0.6176
  133MOL    H4826712   2.610   4.589   5.491  1.9739  2.3794 -1.1011
  133MOL    H4926713   2.446   4.479   5.365  0.2017 -0.7133  2.1685
  133MOL    H5026714   2.386   4.489   5.533 -2.4351  2.1707  2.0782
  133MOL    H5126715   2.289   4.708   5.368 -2.3568  0.4176  1.0010
  133MOL    C5226716   2.192   4.542   5.332  0.4237  0.2423 -0.7478
  133MOL    O5326717   2.177   4.415   5.326  0.0802 -0.1096  0.6568
  133MOL    C5426718   2.087   4.636   5.277 -0.6810 -0.1948  0.2453
  133MOL    C5526719   2.056   4.590   5.132 -0.2180  0.0834 -0.4425
  133MOL    N5626720   1.960   4.679   5.068 -0.5386  1.0219  0.2670
  133MOL    H5726721   2.007   4.623   5.349 -0.6007  2.6702  0.9313
  133MOL    H5826722   2.112   4.742   5.288  0.3107 -0.4283  0.2840
  133MOL    H5926723   2.012   4.490   5.137  1.2175 -0.5672 -0.5601
  133MOL    H6026724   2.143   4.568   5.070 -0.3227  0.3018 -0.6651
  133MOL    H6126725   1.938   4.768   5.111  1.2602  0.5014  2.3188
  133MOL    C6226726   1.877   4.638   4.970  0.4918  0.1267 -0.0770
  133MOL    O6326727   1.865   4.524   4.925  0.1704  0.3260  0.2019
  133MOL    C6426728   1.775   4.747   4.930 -0.4115 -0.7508  0.1768
  133MOL    C6526729   1.664   4.693   4.839  0.4520 -0.4177 -0.3968
  133MOL    N6626730   1.570   4.791   4.774  0.8491 -0.0265  0.2652
  133MOL    H6726731   1.734   4.781   5.025  3.2344 -2.3492  2.4148
  133MOL    H6826732   1.828   4.833   4.889 -0.1155 -0.4599  1.1600
  133MOL    H6926733   1.706   4.625   4.765 -0.8786 -2.2584  0.4979
  133MOL    H7026734   1.604   4.627   4.901 -0.4716  0.3028 -0.5091
  133MOL    H7126735   1.523   4.862   4.829  2.2554  2.6565 -1.8620
  133MOL    C7226736   1.543   4.785   4.640  0.9662 -0.5100  0.4362
  133MOL    O7326737   1.603   4.718   4.556  0.8411  0.1243  0.1872
  133MOL    C7426738   1.439   4.881   4.592  0.3134 -0.3270 -0.0492
  133MOL    C7526739   1.317   4.808   4.545 -0.4639 -0.3046  0.3150
  133MOL    N7626740   1.258   4.712   4.632  0.4852 -0.4798 -0.2966
  133MOL    H7726741   1.410   4.949   4.672 -1.0945  0.7676 -1.4683
  133MOL    H7826742   1.485   4.949   4.521 -1.6483 -0.5601 -1.5755
  133MOL    H7926743   1.236   4.873   4.511  1.9050  0.6164 -3.8166
  133MOL    H8026744   1.339   4.752   4.455 -0.9195 -1.0099  0.6386
  133MOL    H8126745   1.272   4.613   4.618  1.5894 -0.5101  1.0256
  133MOL    C8226746   1.179   4.746   4.729 -0.7026 -0.8046  0.2223
  133MOL    O8326747   1.141   4.863   4.740  0.0487  0.4543 -0.3314
  133MOL    C8426748   1.127   4.639   4.819  0.2736  0.4400  0.5613
  133MOL    C8526749   1.137   4.667   4.975 -0.2502  0.1837  0.3984
  133MOL    N8626750   1.265   4.703   5.027 -0.1191  0.4745 -0.5591
  133MOL    H8726751   1.025   4.607   4.793 -0.7244  2.8213  1.4263
  133MOL    H8826752   1.184   4.547   4.807  0.0580  0.4023 -0.2552
  133MOL    H8926753   1.067   4.742   5.013 -0.3940  0.3339 -0.1600
  133MOL    H9026754   1.112   4.574   5.027 -0.2417 -0.4195 -0.6756
  133MOL    H9126755   1.302   4.790   4.991 -1.6996  0.9998 -0.9265
  133MOL    C9226756   1.307   4.658   5.149  0.6972 -1.3574  0.1970
  133MOL    O9326757   1.252   4.563   5.202  0.0510  0.1189 -0.2122
  133MOL    C9426758   1.421   4.729   5.219  0.1449 -0.3513 -0.3361
  133MOL    C9526759   1.421   4.711   5.374 -0.7301  0.2172  0.0221
  133MOL    N9626760   1.535   4.776   5.436 -0.6150 -0.0363 -0.1837
  133MOL    H9726761   1.509   4.684   5.173  0.9514 -0.7650  1.5976
  133MOL    H9826762   1.427   4.835   5.192 -0.8440  0.2236  1.6545
  133MOL    H9926763   1.333   4.756   5.421  0.1415  0.9838  0.9683
  133MOL   H10026764   1.421   4.604   5.392 -0.6479  0.4894  1.7507
  133MOL   H10126765   1.505   4.836   5.511 -1.0791 -0.8774  0.3131
  133MOL   C10226766   1.665   4.741   5.421  0.0427 -0.2796 -0.2490
  133MOL   O10326767   1.705   4.669   5.333  0.8909 -0.3993 -0.7063
  133MOL   C10426768   1.769   4.808   5.506 -0.0959  0.2267 -0.2548
  133MOL   C10526769   1.856   4.912   5.428  0.1388  0.0142  0.0263
  133MOL   N10626770   1.774   5.004   5.346 -0.5365 -0.1717  0.3433
  133MOL   H10726771   1.833   4.738   5.559 -2.7781 -1.8052  0.3975
  133MOL   H10826772   1.716   4.863   5.584 -1.6007 -0.1993 -0.9742
  133MOL   H10926773   1.914   4.966   5.502  1.0231  0.6012 -1.0760
  133MOL   H11026774   1.937   4.866   5.372  1.6718  1.8484  0.7139
  133MOL   H11126775   1.707   5.054   5.401 -0.7878 -3.4287  3.1758
  133MOL   C11226776   1.770   5.017   5.213 -0.1530 -0.2405  0.6369
  133MOL   O11326777   1.856   4.959   5.141 -0.1058  0.0302 -0.0097
  133MOL   C11426778   1.657   5.106   5.147 -0.2974  0.0817 -0.2213
  133MOL   C11526779   1.665   5.118   4.993 -0.2130 -0.1913  0.9003
  133MOL   N11626780   1.542   5.158   4.931 -0.2156 -0.5638 -0.1116
  133MOL   H11726781   1.657   5.207   5.189 -3.3812  0.1137 -0.2205
  133MOL   H11826782   1.557   5.077   5.179 -0.4874 -0.5057 -1.3104
  133MOL   H11926783   1.750   5.178   4.960  0.8563 -1.8940  0.5440
  133MOL   H12026784   1.681   5.019   4.952 -0.1799  0.3883 -0.5181
  133MOL   H12126785   1.547   5.253   4.898 -2.5172 -0.4844 -0.3495
  133MOL   C12226786   1.431   5.086   4.920 -0.4067 -0.0467  0.3074
  133MOL   O12326787   1.417   4.970   4.963 -0.0749 -0.2396 -0.0539
  133MOL   C12426788   1.320   5.156   4.845 -0.8726  0.2185  0.4287
  133MOL   C12526789   1.180   5.151   4.915 -0.3946  0.0396 -0.2229
  133MOL   N12626790   1.181   5.203   5.046 -0.1010 -0.0434 -0.7072
  133MOL   H12726791   1.307   5.101   4.752  0.0605 -0.2643  0.5768
  133MOL   H12826792   1.340   5.261   4.826 -2.5791  1.0655  3.0506
  133MOL   H12926793   1.118   5.220   4.857 -0.5614  1.3325  1.4325
  133MOL   H13026794   1.132   5.054   4.902  0.0887 -0.0470 -1.4547
  133MOL   H13126795   1.253   5.271   5.065 -0.2181  0.1370 -0.9173
  133MOL   C13226796   1.106   5.167   5.150 -0.5858 -0.3456 -0.4659
  133MOL   O13326797   1.015   5.082   5.142  0.7289  0.0281 -0.0226
  133MOL   C13426798   1.145   5.228   5.288  0.0175  0.1335 -0.0117
  133MOL   C13526799   1.293   5.179   5.316  0.4853  0.4722 -0.2815
  133MOL   N13626800   1.343   5.234   5.447  0.3642  0.5386 -0.4484
  133MOL   H13726801   1.077   5.195   5.366  1.9451 -0.0841  1.6119
  133MOL   H13826802   1.152   5.336   5.292  1.6230  0.1102 -1.5088
  133MOL   H13926803   1.292   5.071   5.328  0.6640  0.6991  1.9518
  133MOL   H14026804   1.367   5.220   5.248 -0.9068 -0.0641 -2.1549
  133MOL   H14126805   1.284   5.303   5.490 -0.4228  0.2851 -1.1105
  133MOL   C14226806   1.452   5.194   5.514  0.0985 -0.7097  0.5234
  133MOL   O14326807   1.527   5.110   5.469  0.0361  0.0320 -0.0860
  133MOL   C14426808   1.491   5.258   5.638  0.4118 -0.0959 -0.4570
  133MOL   C14526809   1.496   5.154   5.758 -0.1795 -0.0392 -0.4416
  133MOL   N14626810   1.371   5.100   5.814 -0.5010 -0.5591 -0.6222
  133MOL   H14726811   1.427   5.342   5.663  0.3330 -0.6128  1.1408
  133MOL   H14826812   1.592   5.295   5.623  1.1028 -1.3818  0.8717
  133MOL   H14926813   1.546   5.062   5.728 -1.9447 -0.7521 -1.2309
  133MOL   H15026814   1.573   5.183   5.830  0.4093 -1.7125 -0.3675
  133MOL   H15126815   1.375   5.001   5.833 -0.1700 -0.2373  1.0233
  133MOL   C15226816   1.257   5.170   5.839 -0.3166  0.1914 -0.7742
  133MOL   O15326817   1.253   5.294   5.829 -0.3805  0.0946  0.3701
  133MOL   C15426818   1.135   5.091   5.884 -0.7215 -0.3418  0.2333
  133MOL   C15526819   1.018   5.100   5.788 -0.3208 -0.4147  0.2008
  133MOL   N15626820   1.037   5.037   5.660 -0.5356 -0.1363 -0.2744
  133MOL   H15726821   1.117   5.108   5.990  1.8417  2.2361  0.3205
  133MOL   H15826822   1.162   4.986   5.896 -0.0226 -0.2044 -0.1157
  133MOL   H15926823   0.938   5.045   5.837 -1.4824  0.4872 -0.6602
  133MOL   H16026824   0.998   5.207   5.776  0.3070 -0.1006  1.7868
  133MOL   H16126825   1.108   5.084   5.606  0.0429  0.0542  0.6400
  133MOL   C16226826   0.967   4.938   5.609  0.3594 -0.2695 -0.1821
  133MOL   O16326827   0.890   4.862   5.671  0.2888  0.3637 -0.4967
  133MOL   C16426828   0.991   4.917   5.461  0.1670 -0.0890  0.5532
  133MOL   C16526829   0.967   4.776   5.410  0.0583  0.2606 -0.0555
  133MOL   N16626830   0.926   4.784   5.277  0.0000 -0.3712 -0.1825
  133MOL   H16726831   1.093   4.944   5.437 -0.0285 -0.5321 -0.8290
  133MOL   H16826832   0.910   4.978   5.421  2.3732  0.7373 -2.7786
  133MOL   H16926833   1.062   4.726   5.430  1.1403  1.8299 -1.0871
  133MOL   H17026834   0.900   4.718   5.472  0.0918 -1.2538 -1.4046
  133MOL   H17126835   0.957   4.858   5.217  2.0212  0.8112  2.2339
  133MOL   C17226836   0.840   4.699   5.214  0.2187 -0.2638  0.3211
  133MOL   O17326837   0.802   4.589   5.263  0.7051  0.2626 -0.3660
  133MOL   C17426838   0.793   4.731   5.072  0.0055 -0.2580 -0.2878
  133MOL   C17526839   0.800   4.609   4.976 -0.3541 -0.2238 -0.0581
  133MOL   N17626840   0.670   4.533   4.966  0.2238 -0.5744 -0.4311
  133MOL   H17726841   0.842   4.815   5.023 -0.4035 -0.3579 -0.8759
  133MOL   H17826842   0.689   4.752   5.094 -0.1919 -2.3865  0.9418
  133MOL   H17926843   0.822   4.644   4.875 -2.2654 -0.6609 -0.6623
  133MOL   H18026844   0.883   4.547   5.006 -1.6024 -1.2502  1.3389
  133MOL   H18126845   0.603   4.597   4.925  0.1281 -1.4463 -1.6920
  133MOL   C18226846   0.650   4.398   4.989 -0.2983  0.0485 -0.9798
  133MOL   O18326847   0.738   4.330   5.044  0.6304  0.3771 -0.4181
  133MOL   C18426848   0.515   4.348   4.954 -0.0332 -0.3285 -0.4454
  133MOL   C18526849   0.524   4.222   4.869  0.5439 -0.3103  0.0494
  133MOL   N18626850   0.430   4.233   4.759 -0.1483  0.8690  0.0158
  133MOL   H18726851   0.465   4.427   4.897  1.4132  1.9652  1.3556
  133MOL   H18826852   0.458   4.325   5.045  1.4299  3.5696  1.5894
  133MOL   H18926853   0.620   4.184   4.835  0.3536 -0.8301  0.0824
  133MOL   H19026854   0.484   4.151   4.941 -3.2741  1.4087 -0.2392
  133MOL   H19126855   0.476   4.259   4.673 -1.3072 -0.3163 -0.9599
  133MOL   C19226856   0.297   4.224   4.771 -0.5011 -0.5625 -0.0050
  133MOL   O19326857   0.236   4.202   4.876 -0.4297  0.0192 -0.5001
  133MOL   C19426858   0.210   4.245   4.643 -1.0143 -0.0599 -0.2708
  133MOL   C19526859   0.106   4.353   4.662 -0.2035 -0.0803 -0.0273
  133MOL   N19626860   0.018   4.374   4.549 -0.3294 -0.2065 -0.1762
  133MOL   H19726861   0.273   4.269   4.557  0.4691 -1.5662  0.3770
  133MOL   H19826862   0.163   4.148   4.634  1.4161 -1.3859  0.8293
  133MOL   H19926863   0.055   4.319   4.752  0.7413 -0.5415  0.3415
  133MOL   H20026864   0.161   4.446   4.679  1.0103 -0.6708 -0.6484
  133MOL   H20126865   7.751   4.461   4.567 -0.4222 -0.1093 -0.8718
  133MOL   H20226866   7.728   4.302   4.562 -0.2100 -0.3869 -0.5041
  134MOL     C126867   6.442   4.043   0.995 -0.3173  0.2125 -0.3787
  134MOL     O226868   6.507   4.145   1.000 -0.3140 -0.2385 -0.7487
  134MOL     C326869   6.451   3.946   0.876  0.4440 -0.1899 -0.4353
  134MOL     C426870   6.556   3.986   0.770  0.3773  0.5388 -0.1697
  134MOL     N526871   6.500   3.987   0.633  0.1508 -0.3854  0.3909
  134MOL     H626872   6.352   3.917   0.838 -0.6696  2.6769  0.1816
  134MOL     H726873   6.484   3.846   0.904  1.9810  0.9365  1.9040
  134MOL     H826874   6.654   3.939   0.774 -0.6561 -1.6280  0.8309
  134MOL     H926875   6.575   4.093   0.778 -0.0922  0.7881 -2.0694
  134MOL    H1026876   6.486   4.081   0.598  0.2377 -1.6041 -3.1201
  134MOL    H1126877   6.370   4.021   1.074 -0.1345 -0.4306 -0.3870
  134MOL    C1226878   6.455   3.885   0.562  0.5939  0.7353 -0.6715
  134MOL    O1326879   6.476   3.769   0.596  0.6756 -0.6173 -0.0279
  134MOL    C1426880   6.370   3.919   0.435 -0.1356  0.4372 -0.0661
  134MOL    C1526881   6.428   3.887   0.298 -0.1750  0.1652  0.0579
  134MOL    N1626882   6.478   3.751   0.278 -0.2447 -0.7830  0.5566
  134MOL    H1726883   6.358   4.027   0.427  2.3714  0.8461  1.2261
  134MOL    H1826884   6.270   3.877   0.444 -0.3365  1.6801  4.8128
  134MOL    H1926885   6.361   3.914   0.216  3.0744  2.4023 -1.9669
  134MOL    H2026886   6.513   3.954   0.287  1.2692 -1.2024  2.4775
  134MOL    H2126887   6.443   3.670   0.328 -0.6830 -1.3328 -0.6275
  134MOL    C2226888   6.581   3.727   0.200  0.8251 -0.9213 -0.5243
  134MOL    O2326889   6.628   3.808   0.121  0.0690 -0.0296  0.1326
  134MOL    C2426890   6.647   3.587   0.209  0.3785  0.0684  0.2771
  134MOL    C2526891   6.684   3.542   0.071 -0.3425 -0.0384 -0.6347
  134MOL    N2626892   6.756   3.409   0.067  0.5103 -0.9362  0.0485
  134MOL    H2726893   6.588   3.514   0.264  0.4942  0.0641  0.3982
  134MOL    H2826894   6.740   3.594   0.266 -0.4215 -0.2780  1.6313
  134MOL    H2926895   6.589   3.521   0.021 -1.1691 -2.3512  1.7557
  134MOL    H3026896   6.735   3.623   0.019 -2.1298  1.4078 -0.1825
  134MOL    H3126897   6.733   3.337   0.135  1.5041 -1.9340 -0.6625
  134MOL    C3226898   6.848   3.375   7.759  0.7127 -0.0008  0.4719
  134MOL    O3326899   6.890   3.455   7.676  0.7524  0.2781 -0.4054
  134MOL    C3426900   6.903   3.237   7.774 -0.1634  0.3303  0.6768
  134MOL    C3526901   7.057   3.226   7.762  0.3416 -0.3329 -0.0869
  134MOL    N3626902   7.112   3.104   0.046 -0.2878 -0.3687 -0.5276
  134MOL    H3726903   6.858   3.181   7.692  0.7314  0.6862 -0.0651
  134MOL    H3826904   6.873   3.186   0.086  1.8932  1.2173  1.8692
  134MOL    H3926905   7.076   3.236   7.655  2.3485  3.0606  0.5064
  134MOL    H4026906   7.104   3.306   0.039 -1.6994  1.5765 -1.0113
  134MOL    H4126907   7.136   3.030   7.762  1.8902 -0.1335 -0.0262
  134MOL    C4226908   7.126   3.084   0.174 -0.0960 -0.1346 -0.5129
  134MOL    O4326909   7.094   3.161   0.260 -0.4111  0.5144  0.2251
  134MOL    C4426910   7.188   2.945   0.205  0.1776  0.0483  0.3808
  134MOL    C4526911   7.194   2.920   0.359 -0.0908  0.3268  0.1162
  134MOL    N4626912   7.331   2.901   0.417  0.5737 -0.3172  0.0492
  134MOL    H4726913   7.115   2.883   0.154  0.2247  2.4339 -2.7775
  134MOL    H4826914   7.286   2.941   0.156 -1.1335 -3.2479 -2.1240
  134MOL    H4926915   7.150   2.997   0.424  0.5998  0.1848  0.7597
  134MOL    H5026916   7.143   2.827   0.384  1.8624 -1.0342 -0.8692
  134MOL    H5126917   7.370   2.808   0.418 -0.6865 -0.8548 -0.5792
  134MOL    C5226918   7.399   3.010   0.454  0.2893  0.0924 -0.5448
  134MOL    O5326919   7.357   3.125   0.434  0.2192  0.0753  0.0764
  134MOL    C5426920   7.529   2.985   0.525 -0.3039  0.6446  0.8707
  134MOL    C5526921   7.602   3.115   0.583  0.5595 -0.4330  0.5440
  134MOL    N5626922   7.681   3.071   0.693  0.1118  0.7091  1.0049
  134MOL    H5726923   7.498   2.934   0.616 -1.1267  0.1979  0.3459
  134MOL    H5826924   7.604   2.932   0.466 -0.6002  1.7680 -0.5191
  134MOL    H5926925   7.537   3.194   0.621 -1.0669  1.1712 -5.1405
  134MOL    H6026926   7.665   3.172   0.515  0.1860  0.8149  1.2145
  134MOL    H6126927   7.634   3.061   0.782 -0.8293  2.3089  0.7149
  134MOL    C6226928   0.027   3.040   0.689  0.6910  0.3374 -0.8162
  134MOL    O6326929   0.102   3.076   0.597 -0.3912 -0.1746 -0.1827
  134MOL    C6426930   0.076   2.942   0.799 -0.0332  0.2387  0.1473
  134MOL    C6526931   0.189   2.856   0.740 -0.7191 -0.0684  0.4724
  134MOL    N6626932   0.145   2.767   0.630  0.3273 -0.0298 -0.2635
  134MOL    H6726933   0.121   3.008   0.873 -1.4747  1.5446 -0.1317
  134MOL    H6826934   7.780   2.875   0.838 -1.3792  0.9247 -1.2728
  134MOL    H6926935   0.277   2.918   0.728  0.5412 -1.9833 -0.4286
  134MOL    H7026936   0.225   2.793   0.821 -1.8868  0.1807  1.1893
  134MOL    H7126937   0.062   2.710   0.637  1.0601 -1.2508 -1.2435
  134MOL    C7226938   0.212   2.747   0.521 -0.3018 -0.3090  0.0784
  134MOL    O7326939   0.322   2.793   0.500 -0.0191 -0.4102 -1.0548
  134MOL    C7426940   0.160   2.662   0.407  0.0159 -0.7746  1.0395
  134MOL    C7526941   0.203   2.513   0.400  0.2968  0.0495 -0.0375
  134MOL    N7626942   0.154   2.458   0.275  0.1262 -0.2848 -0.2638
  134MOL    H7726943   0.052   2.668   0.416 -0.1489 -1.2184 -0.5360
  134MOL    H7826944   0.192   2.719   0.319 -0.3938 -0.4734  1.0823
  134MOL    H7926945   0.310   2.497   0.406 -0.1908 -2.3104  3.6835
  134MOL    H8026946   0.164   2.456   0.484 -1.0592  0.2134 -0.5320
  134MOL    H8126947   0.218   2.429   0.202  0.0457 -2.3064  0.4332
  134MOL    C8226948   0.035   2.404   0.263 -0.1970  0.0598  0.2557
  134MOL    O8326949   7.736   2.412   0.357  0.9399  0.1265  0.3150
  134MOL    C8426950   0.012   2.342   0.123 -0.7551  0.1860 -0.1511
  134MOL    C8526951   7.657   2.390   0.059  0.8019  0.0730 -0.7433
  134MOL    N8626952   7.652   2.528   0.018  0.1345 -0.2654 -0.0425
  134MOL    H8726953   0.104   2.354   0.066  0.4292 -1.9646  1.2553
  134MOL    H8826954   0.017   2.235   0.143  1.4294  0.3268  0.0806
  134MOL    H8926955   7.649   2.334   7.746 -0.7192  0.6663 -0.9901
  134MOL    H9026956   7.570   2.365   0.119  1.0485 -1.0899 -0.8602
  134MOL    H9126957   7.740   2.577   0.008 -0.2788  0.2976 -1.0506
  134MOL    C9226958   7.540   2.586   7.755  0.1865 -0.1107  0.1239
  134MOL    O9326959   7.442   2.518   7.734 -0.2175  0.0251  0.5931
  134MOL    C9426960   7.542   2.735   7.734  0.5580 -0.4121  0.9302
  134MOL    C9526961   7.402   2.802   7.718 -0.1017  0.3591 -0.1661
  134MOL    N9626962   7.353   2.818   7.585  0.5649  0.4433  0.3014
  134MOL    H9726963   7.566   2.770   0.054 -2.5648 -0.2139  1.6576
  134MOL    H9826964   7.603   2.766   7.649  0.6465  0.9758  1.4823
  134MOL    H9926965   7.330   2.760   0.008  1.9380 -1.3495  0.9378
  134MOL   H10026966   7.415   2.906   7.746  2.4029 -0.1724  0.7574
  134MOL   H10126967   7.409   2.775   7.513  0.8865 -1.3628  1.6145
  134MOL   C10226968   7.240   2.886   7.545 -0.5576  0.0361 -0.2364
  134MOL   O10326969   7.160   2.931   7.624 -0.6479  0.0058 -0.1498
  134MOL   C10426970   7.216   2.895   7.398 -0.2657  0.1396 -0.1473
  134MOL   C10526971   7.129   3.013   7.363 -0.2951 -0.6710 -0.4452
  134MOL   N10626972   7.061   3.006   7.233 -0.0618 -0.0850 -0.0954
  134MOL   H10726973   7.173   2.798   7.376  1.3939 -1.3382  2.7761
  134MOL   H10826974   7.308   2.904   7.340 -1.1550  2.1958 -1.2783
  134MOL   H10926975   7.057   3.026   7.444  1.4641 -1.8422  1.3521
  134MOL   H11026976   7.192   3.102   7.374 -1.0964 -0.4225  2.7284
  134MOL   H11126977   7.120   3.012   7.152  0.8744  1.4052  0.6607
  134MOL   C11226978   6.932   2.974   7.209 -0.4657 -0.8788 -0.4657
  134MOL   O11326979   6.851   2.954   7.297 -0.6125 -0.2714  0.0664
  134MOL   C11426980   6.901   2.960   7.059 -0.3341 -0.4525 -0.3856
  134MOL   C11526981   6.894   2.811   7.018 -0.0333  0.2976  0.1548
  134MOL   N11626982   7.028   2.758   6.979  0.4086  0.2278  0.5766
  134MOL   H11726983   6.973   3.014   6.998  2.0878 -0.2359  2.5457
  134MOL   H11826984   6.799   3.000   7.053  0.3754  1.7064  1.5180
  134MOL   H11926985   6.850   2.755   7.100 -1.6578  0.0520 -0.8644
  134MOL   H12026986   6.821   2.793   6.939 -0.3504 -0.3082  0.5879
  134MOL   H12126987   7.075   2.703   7.049 -0.6040  0.2330  1.2601
  134MOL   C12226988   7.067   2.774   6.852 -0.2077 -0.7199 -0.2752
  134MOL   O12326989   7.005   2.819   6.756  0.0729 -0.4550 -0.2378
  134MOL   C12426990   7.216   2.741   6.828 -0.2662  0.2764 -0.8997
  134MOL   C12526991   7.234   2.613   6.752 -0.0682  0.0852  0.1241
  134MOL   N12626992   7.188   2.500   6.830  0.2803  0.4891 -0.8770
  134MOL   H12726993   7.270   2.736   6.922 -2.6290 -0.4678  0.4497
  134MOL   H12826994   7.259   2.823   6.771  0.2825  0.0831 -0.7659
  134MOL   H12926995   7.173   2.592   6.664  1.0957  0.0531 -0.6945
  134MOL   H13026996   7.337   2.603   6.715  0.7303 -0.3769  2.3762
  134MOL   H13126997   7.106   2.449   6.800  0.2595 -2.1681  3.2934
  134MOL   C13226998   7.254   2.436   6.926 -0.5231 -0.4449  0.0029
  134MOL   O13326999   7.359   2.479   6.972 -0.2949 -0.2954  0.2217
  134MOL   C13427000   7.190   2.310   6.989 -0.0065 -0.1952  0.0081
  134MOL   C13527001   7.070   2.342   7.081  0.5971  0.3307  1.1856
  134MOL   N13627002   7.113   2.383   7.219  0.7168  1.5202 -0.3864
  134MOL   H13727003   7.264   2.247   7.037 -0.5725  0.3546  1.6170
  134MOL   H13827004   7.147   2.244   6.913 -2.5304 -0.3521  1.4896
  134MOL   H13927005   6.997   2.404   7.031 -1.5505 -3.2452 -0.3232
  134MOL   H14027006   7.032   2.242   7.104  1.6309 -0.4733 -0.5328
  134MOL   H14127007   7.166   2.316   7.273 -0.8973  1.1295  0.7537
  134MOL   C14227008   7.054   2.481   7.280 -0.0723  0.6274  0.4678
  134MOL   O14327009   7.000   2.572   7.216 -0.3989 -0.0229 -0.2288
  134MOL   C14427010   7.064   2.493   7.433 -0.2043 -0.1878 -0.0954
  134MOL   C14527011   6.935   2.448   7.505 -0.0052  0.0567 -0.1344
  134MOL   N14627012   6.887   2.317   7.476 -0.0042  0.1148 -0.0706
  134MOL   H14727013   7.101   2.595   7.449 -0.0431 -0.3100  0.3287
  134MOL   H14827014   7.143   2.431   7.474 -0.6023 -0.9810 -0.5204
  134MOL   H14927015   6.962   2.441   7.611 -1.7404 -0.5158  0.2845
  134MOL   H15027016   6.853   2.518   7.491 -0.0479 -0.3236 -1.8469
  134MOL   H15127017   6.790   2.304   7.450  0.6941  0.3835 -2.9575
  134MOL   C15227018   6.954   2.202   7.492 -0.0390  0.5590  0.3517
  134MOL   O15327019   7.067   2.208   7.542  0.1993 -0.1521  0.4492
  134MOL   C15427020   6.905   2.069   7.455 -0.1725 -0.0735 -0.7119
  134MOL   C15527021   6.851   1.981   7.566  0.1932 -0.0580  0.7273
  134MOL   N15627022   6.960   1.917   7.636  0.5091 -0.2960 -0.2579
  134MOL   H15727023   6.987   2.020   7.403  1.4507 -0.2975  1.9627
  134MOL   H15827024   6.828   2.090   7.380 -0.9305 -0.4765 -0.0537
  134MOL   H15927025   6.772   2.020   7.630 -1.0779 -2.5452  0.7094
  134MOL   H16027026   6.809   1.898   7.510 -1.2012  1.4553 -0.5512
  134MOL   H16127027   7.004   1.838   7.592 -0.5481 -1.1116  0.1099
  134MOL   C16227028   6.987   1.939   7.767  0.1427 -0.0213  0.0496
  134MOL   O16327029   6.938   2.024   0.060 -0.3890 -0.5720  0.1282
  134MOL   C16427030   7.111   1.857   0.037  0.0396  0.6461  0.2250
  134MOL   C16527031   7.068   1.724   0.109 -0.3465 -0.5929  0.5190
  134MOL   N16627032   6.997   1.631   0.021 -0.0533 -0.3308  0.0414
  134MOL   H16727033   7.177   1.923   0.093 -0.5524  0.6521  0.9170
  134MOL   H16827034   7.173   1.841   7.729 -1.4799 -1.2668 -0.5204
  134MOL   H16927035   7.159   1.678   0.146  0.9286  0.8907 -0.6572
  134MOL   H17027036   6.994   1.741   0.187 -1.7795 -1.2623 -0.6810
  134MOL   H17127037   6.897   1.625   0.034 -0.4195  0.5472 -2.1449
  134MOL   C17227038   7.043   1.550   7.704 -0.1233 -0.2170  0.1259
  134MOL   O17327039   7.160   1.560   7.667  0.3208  0.0726  0.2802
  134MOL   C17427040   6.954   1.452   7.635 -0.1861  0.3557  0.6597
  134MOL   C17527041   6.924   1.318   7.709 -0.7578 -0.5503 -0.3854
  134MOL   N17627042   6.832   1.337   0.040  0.1949 -0.1759  0.3670
  134MOL   H17727043   6.993   1.440   7.534 -0.0607  2.1006  0.4890
  134MOL   H17827044   6.853   1.491   7.621  0.3794  2.3208  1.9608
  134MOL   H17927045   6.878   1.246   7.640 -0.8391 -0.0515 -0.8581
  134MOL   H18027046   7.016   1.270   7.740 -0.4449  0.1623 -0.2187
  134MOL   H18127047   6.867   1.378   0.125  3.3887 -1.0432 -0.4613
  134MOL   C18227048   6.697   1.315   0.032  0.2958 -0.1284 -0.1622
  134MOL   O18327049   6.636   1.267   7.711 -0.5194  0.0452 -0.6955
  134MOL   C18427050   6.615   1.345   0.164 -0.5898  0.3394  0.2048
  134MOL   C18527051   6.462   1.356   0.139 -0.2263 -0.1591 -0.1651
  134MOL   N18627052   6.391   1.365   0.270 -0.0310  0.3164  0.4742
  134MOL   H18727053   6.665   1.424   0.220 -2.2117  1.0981  0.5997
  134MOL   H18827054   6.639   1.253   0.218 -1.4236 -0.2360 -0.3978
  134MOL   H18927055   6.433   1.453   0.098  1.5563  0.8345  0.8759
  134MOL   H19027056   6.419   1.270   0.088  1.2764  0.0303 -1.7834
  134MOL   H19127057   6.346   1.453   0.290  0.5336  0.5300  0.8084
  134MOL   C19227058   6.389   1.261   0.355  0.0757 -0.0306 -0.1255
  134MOL   O19327059   6.454   1.161   0.351 -0.6079  0.8649 -0.3581
  134MOL   C19427060   6.283   1.274   0.465  0.0488  0.2753  0.5032
  134MOL   C19527061   6.157   1.192   0.444  0.2422  0.0885  0.6295
  134MOL   N19627062   6.092   1.230   0.319  0.0098 -0.1691  0.4118
  134MOL   H19727063   6.333   1.252   0.559  1.0466  2.2861  0.4712
  134MOL   H19827064   6.249   1.376   0.487 -0.8152  0.7469 -2.7772
  134MOL   H19927065   6.179   1.085   0.446  1.7355  0.3647  0.0871
  134MOL   H20027066   6.098   1.216   0.532  1.0085 -0.6252  1.3438
  134MOL   H20127067   5.996   1.244   0.348  0.5895  0.5369  2.0010
  134MOL   H20227068   6.132   1.318   0.291 -0.6696 -0.1633 -0.5959
  135MOL     C127069   4.431   2.204   2.864  0.5310 -0.0160  0.7344
  135MOL     O227070   4.525   2.162   2.936  0.3526  0.0719 -0.5668
  135MOL     C327071   4.413   2.147   2.725 -0.3587 -0.4327  0.5504
  135MOL     C427072   4.331   2.237   2.628 -0.1398 -0.3093 -0.0720
  135MOL     N527073   4.398   2.368   2.604 -0.1514 -0.1483 -0.6253
  135MOL     H627074   4.363   2.051   2.744 -0.5283 -0.4536  0.0096
  135MOL     H727075   4.509   2.120   2.681 -1.2724  0.1936 -1.9044
  135MOL     H827076   4.234   2.248   2.678  0.0740  0.5465  0.1667
  135MOL     H927077   4.302   2.190   2.534  1.0632 -0.3163 -0.4399
  135MOL    H1027078   4.440   2.414   2.683 -0.9484  0.3712 -0.4994
  135MOL    H1127079   4.360   2.279   2.898  0.2266  0.1273 -0.1949
  135MOL    C1227080   4.390   2.436   2.486  0.1696  0.3023  0.3066
  135MOL    O1327081   4.346   2.382   2.385 -0.9627 -0.5916 -0.0055
  135MOL    C1427082   4.430   2.587   2.485  0.1730 -0.8196  0.6071
  135MOL    C1527083   4.332   2.694   2.415  0.6620  0.1165 -0.1726
  135MOL    N1627084   4.257   2.767   2.520 -0.0025  0.1161  0.0134
  135MOL    H1727085   4.523   2.592   2.428  0.8097 -3.6121  1.3354
  135MOL    H1827086   4.455   2.618   2.587  0.4859  0.0888  0.2559
  135MOL    H1927087   4.394   2.756   2.351  2.9172 -1.7363  0.1641
  135MOL    H2027088   4.261   2.637   2.355  0.5614 -0.5088  0.5242
  135MOL    H2127089   4.245   2.726   2.611 -1.0709 -0.1940 -0.2637
  135MOL    C2227090   4.195   2.880   2.487 -0.3247 -0.0997  0.1763
  135MOL    O2327091   4.202   2.933   2.378  0.4620  0.0131 -0.2415
  135MOL    C2427092   4.114   2.941   2.598  0.1874  1.2270 -0.3397
  135MOL    C2527093   4.017   3.042   2.542  0.3510  0.9086 -0.1867
  135MOL    N2627094   3.968   3.128   2.650  0.5511 -0.3194  0.3775
  135MOL    H2727095   4.190   2.982   2.665 -0.4740  3.0411 -0.6734
  135MOL    H2827096   4.068   2.861   2.657 -0.0739  1.5027 -0.1731
  135MOL    H2927097   4.065   3.113   2.474  0.8934 -0.1749 -0.9503
  135MOL    H3027098   3.932   2.989   2.498 -0.1655 -2.1653  4.1584
  135MOL    H3127099   4.036   3.133   2.725  0.9518 -2.2784  0.1678
  135MOL    C3227100   3.858   3.199   2.645  0.1377  0.4643  0.5798
  135MOL    O3327101   3.773   3.196   2.557 -0.1645 -0.4502 -0.6078
  135MOL    C3427102   3.832   3.284   2.770  0.2062  0.4763  0.2505
  135MOL    C3527103   3.795   3.434   2.740 -0.0878  0.5465  0.0651
  135MOL    N3627104   3.893   3.500   2.651 -0.4447  0.0967  0.0679
  135MOL    H3727105   3.916   3.267   2.836  1.0119  0.1384 -0.8434
  135MOL    H3827106   3.757   3.234   2.831  0.0616  0.4394  0.0446
  135MOL    H3927107   3.698   3.440   2.689  0.4496  0.9195 -0.9314
  135MOL    H4027108   3.785   3.483   2.836 -0.8980 -3.0361  1.9068
  135MOL    H4127109   3.885   3.475   2.554 -0.1298 -0.4969  0.1974
  135MOL    C4227110   3.991   3.583   2.694  0.2535  0.2384  0.0445
  135MOL    O4327111   4.002   3.617   2.808 -0.3715 -0.1589 -0.7494
  135MOL    C4427112   4.081   3.632   2.585 -0.3620  0.0432  0.8839
  135MOL    C4527113   4.224   3.653   2.624 -0.2027 -0.2493  0.0772
  135MOL    N4627114   4.279   3.532   2.680 -0.1519 -0.6188  0.4771
  135MOL    H4727115   4.083   3.578   2.490  0.0300 -0.7591  1.3474
  135MOL    H4827116   4.052   3.735   2.564 -1.2238 -0.5904 -1.1570
  135MOL    H4927117   4.280   3.684   2.536  0.8397 -0.4147  0.6764
  135MOL    H5027118   4.248   3.743   2.680  0.7239 -0.6230  0.2956
  135MOL    H5127119   4.282   3.535   2.781  1.6257  2.4257  0.4011
  135MOL    C5227120   4.321   3.419   2.611 -0.0136  0.2353 -0.0054
  135MOL    O5327121   4.330   3.424   2.490  0.2763  0.1661  0.1444
  135MOL    C5427122   4.344   3.289   2.683 -0.0139 -0.0152  0.0693
  135MOL    C5527123   4.282   3.300   2.826 -0.1773 -0.2938  0.1135
  135MOL    N5627124   4.311   3.173   2.893  0.0333  0.0908 -0.7321
  135MOL    H5727125   4.313   3.203   2.625  0.6773  1.1551 -2.0892
  135MOL    H5827126   4.452   3.291   2.690 -0.0572  0.5882  0.6450
  135MOL    H5927127   4.175   3.324   2.819 -0.0899  1.0473  2.8003
  135MOL    H6027128   4.325   3.383   2.883 -2.3596  0.6395  0.4569
  135MOL    H6127129   4.408   3.157   2.914  0.3070  2.1069 -0.3851
  135MOL    C6227130   4.215   3.093   2.936 -0.2674 -0.1169 -0.3022
  135MOL    O6327131   4.097   3.102   2.897 -0.3368  0.4498  0.2670
  135MOL    C6427132   4.257   2.980   3.032  0.3586 -0.5594  0.7256
  135MOL    C6527133   4.139   2.898   3.092  0.4764 -0.5115 -0.5570
  135MOL    N6627134   4.088   2.959   3.215  0.4783 -0.0038  0.1912
  135MOL    H6727135   4.325   2.918   2.974  0.5492  1.0026 -0.7657
  135MOL    H6827136   4.312   3.019   3.119  0.0344  0.6530  0.4034
  135MOL    H6927137   4.057   2.881   3.023 -1.7417 -0.3467  1.9441
  135MOL    H7027138   4.176   2.801   3.124 -1.5253 -1.4047 -0.8905
  135MOL    H7127139   4.127   3.044   3.253  1.9880 -0.6199  0.0806
  135MOL    C7227140   3.978   2.909   3.280 -0.4853  0.4828 -0.0869
  135MOL    O7327141   3.908   2.823   3.223  0.1825 -0.3916  0.0242
  135MOL    C7427142   3.940   2.958   3.423 -0.4914 -0.4891  0.6538
  135MOL    C7527143   3.940   2.831   3.520  0.4691 -0.2097 -0.4281
  135MOL    N7627144   3.813   2.763   3.513 -0.4696  0.1751 -0.7360
  135MOL    H7727145   4.018   3.027   3.455 -1.3315  0.5142  0.5817
  135MOL    H7827146   3.842   3.005   3.423 -0.4231 -0.3357  1.4692
  135MOL    H7927147   4.021   2.759   3.507  2.2533  2.0238 -1.8872
  135MOL    H8027148   3.949   2.871   3.621 -0.8201  0.6818 -0.6522
  135MOL    H8127149   3.740   2.828   3.540 -0.9327  0.3503 -2.3659
  135MOL    C8227150   3.781   2.646   3.467  0.2948  0.2702  0.8464
  135MOL    O8327151   3.867   2.565   3.445  0.1629  0.2541  0.0594
  135MOL    C8427152   3.638   2.618   3.425 -0.1088 -1.1011  0.6692
  135MOL    C8527153   3.621   2.582   3.275 -0.1554  0.1528  0.5307
  135MOL    N8627154   3.664   2.685   3.175  0.3911  0.8936 -0.5092
  135MOL    H8727155   3.603   2.533   3.484 -0.8745 -0.7823  0.6778
  135MOL    H8827156   3.584   2.708   3.452  1.8482  0.1042  0.6419
  135MOL    H8927157   3.692   2.502   3.255  1.8601  1.6773  1.4483
  135MOL    H9027158   3.523   2.549   3.240 -0.5734  0.5264  1.3149
  135MOL    H9127159   3.762   2.711   3.175  1.1957 -1.9922 -0.7135
  135MOL    C9227160   3.569   2.769   3.123 -0.0518  0.1957  0.0820
  135MOL    O9327161   3.448   2.758   3.150  0.1675  0.1244 -0.6927
  135MOL    C9427162   3.626   2.882   3.035  0.1535  0.0218  0.0034
  135MOL    C9527163   3.526   2.945   2.934 -0.1701 -0.0981 -0.1525
  135MOL    N9627164   3.411   3.007   2.992  0.2383  0.8559 -0.7754
  135MOL    H9727165   3.662   2.960   3.102  1.7321  0.7956 -1.6978
  135MOL    H9827166   3.711   2.845   2.976 -0.0001 -2.2359  1.1603
  135MOL    H9927167   3.562   3.027   2.872 -0.5117 -0.4986 -0.8877
  135MOL   H10027168   3.488   2.864   2.872 -1.2165 -2.9022  3.9006
  135MOL   H10127169   3.445   3.063   3.068 -2.6986 -0.1039  1.3180
  135MOL   C10227170   3.285   2.975   2.960 -0.4223 -0.4929  0.5270
  135MOL   O10327171   3.248   2.886   2.892  0.2692  0.1110  0.5445
  135MOL   C10427172   3.174   3.047   3.033 -0.3575 -0.0276 -0.3631
  135MOL   C10527173   3.201   3.077   3.176  0.6423 -0.6738  0.3445
  135MOL   N10627174   3.224   3.223   3.193  0.4758  0.4771  0.2535
  135MOL   H10727175   3.089   2.979   3.031  0.1823 -0.7723  1.0347
  135MOL   H10827176   3.147   3.132   2.970  0.3866 -1.7509 -3.1038
  135MOL   H10927177   3.119   3.046   3.240  0.1927  1.6532  0.9420
  135MOL   H11027178   3.281   3.011   3.210 -0.5329 -2.0548  0.4435
  135MOL   H11127179   3.231   3.289   3.116 -1.0799  1.3220  0.8211
  135MOL   C11227180   3.236   3.284   3.314 -0.1552 -0.0957  0.2034
  135MOL   O11327181   3.212   3.231   3.425  0.1493 -0.4472  0.1782
  135MOL   C11427182   3.275   3.430   3.306 -0.0516 -0.3914  0.3314
  135MOL   C11527183   3.309   3.503   3.432 -0.2560 -1.2670 -0.3481
  135MOL   N11627184   3.193   3.573   3.488 -0.1643  0.5225 -0.1949
  135MOL   H11727185   3.195   3.480   3.251 -0.8667  0.9004  2.6014
  135MOL   H11827186   3.360   3.424   3.239 -0.2869 -2.1366  0.1709
  135MOL   H11927187   3.339   3.434   3.511  0.8378 -0.5429 -0.1162
  135MOL   H12027188   3.389   3.575   3.413  1.0822 -2.0420  2.1560
  135MOL   H12127189   3.109   3.517   3.488  1.1278 -1.4995 -1.4476
  135MOL   C12227190   3.188   3.703   3.522 -0.1150 -0.0262 -0.0666
  135MOL   O12327191   3.280   3.780   3.500 -0.3629  0.2399 -0.3302
  135MOL   C12427192   3.055   3.762   3.566  0.0296  0.5659 -0.8554
  135MOL   C12527193   3.062   3.849   3.695  0.5277  0.2199 -0.4070
  135MOL   N12627194   3.084   3.987   3.663 -0.4431 -0.0113  0.6238
  135MOL   H12727195   2.977   3.687   3.573  1.1113 -0.4561  0.8325
  135MOL   H12827196   3.018   3.828   3.489 -1.8547 -2.0524 -2.2666
  135MOL   H12927197   2.967   3.843   3.748 -0.9781 -1.5706 -3.2091
  135MOL   H13027198   3.135   3.813   3.769 -0.1034 -2.5659 -1.0793
  135MOL   H13127199   3.032   4.015   3.581  0.3084  0.5178  0.3246
  135MOL   C13227200   3.166   4.072   3.735  0.0488 -0.1016  0.0690
  135MOL   O13327201   3.235   4.036   3.829 -0.2568  0.4964 -0.6479
  135MOL   C13427202   3.166   4.222   3.682  0.2989 -0.9784 -0.2867
  135MOL   C13527203   3.228   4.318   3.787 -0.1646 -0.0402  0.6653
  135MOL   N13627204   3.291   4.435   3.728  0.0915  0.1655  0.0437
  135MOL   H13727205   3.061   4.241   3.663  0.5859  1.3367  0.3229
  135MOL   H13827206   3.221   4.218   3.588  0.0571 -3.1351 -0.3721
  135MOL   H13927207   3.158   4.347   3.865  0.2373  1.2763  0.5463
  135MOL   H14027208   3.305   4.267   3.845 -0.9989 -0.8049  1.1174
  135MOL   H14127209   3.247   4.478   3.648  3.8488  0.4436 -1.9653
  135MOL   C14227210   3.400   4.496   3.778 -0.1615 -0.9406 -0.5726
  135MOL   O14327211   3.463   4.453   3.874 -0.2546 -0.2897 -0.1751
  135MOL   C14427212   3.438   4.628   3.722 -0.5295 -0.0494  0.1476
  135MOL   C14527213   3.494   4.727   3.829 -0.4526 -0.0409 -0.0097
  135MOL   N14627214   3.515   4.850   3.765  0.0661 -0.1004 -0.7293
  135MOL   H14727215   3.364   4.681   3.661 -1.0747 -1.1426 -0.1703
  135MOL   H14827216   3.530   4.610   3.666 -1.0900 -0.1720 -0.7531
  135MOL   H14927217   3.428   4.736   3.915  0.5179 -0.8984  0.8464
  135MOL   H15027218   3.590   4.680   3.852 -1.3002 -2.7944 -1.8661
  135MOL   H15127219   3.449   4.922   3.789 -0.4613 -1.1064  0.9471
  135MOL   C15227220   3.622   4.897   3.702 -0.1946  0.0198 -0.9308
  135MOL   O15327221   3.628   5.015   3.665  0.1081  0.5785 -0.2001
  135MOL   C15427222   3.745   4.809   3.670 -0.5563  0.2128  0.3152
  135MOL   C15527223   3.881   4.880   3.683 -0.5063  0.0556 -0.6189
  135MOL   N15627224   3.901   4.946   3.810 -0.5063  0.6121  0.4356
  135MOL   H15727225   3.732   4.762   3.573 -0.8237 -0.8864  0.8758
  135MOL   H15827226   3.758   4.738   3.752  1.0896 -0.1841 -0.2757
  135MOL   H15927227   3.962   4.809   3.669 -0.0106  0.3222  0.8917
  135MOL   H16027228   3.881   4.944   3.594  0.6214  0.9468  0.0086
  135MOL   H16127229   3.848   4.916   3.890 -1.2308 -1.6585 -0.8436
  135MOL   C16227230   3.960   5.069   3.816  0.8672  0.3380  0.3160
  135MOL   O16327231   4.028   5.110   3.723 -0.3999  0.1078 -0.2825
  135MOL   C16427232   3.948   5.145   3.940  0.2540  0.0913  0.6812
  135MOL   C16527233   4.071   5.227   3.980  0.7412 -0.0604  0.1756
  135MOL   N16627234   4.083   5.228   4.128  0.2246  0.1650  0.0708
  135MOL   H16727235   3.928   5.083   4.027 -1.0152 -0.0120  0.3393
  135MOL   H16827236   3.859   5.207   3.928  0.0186 -0.1684  1.0925
  135MOL   H16927237   4.164   5.184   3.944 -0.3553 -1.1730 -1.4218
  135MOL   H17027238   4.061   5.327   3.938  1.6895  0.1817  0.5114
  135MOL   H17127239   4.093   5.142   4.181 -1.7575 -0.1607 -0.0646
  135MOL   C17227240   4.069   5.337   4.193  0.3005 -0.3654 -0.0652
  135MOL   O17327241   4.063   5.450   4.147 -0.0782 -0.2947 -0.5693
  135MOL   C17427242   4.081   5.317   4.346  0.0679  0.2650  0.5876
  135MOL   C17527243   4.097   5.449   4.420 -0.4135  0.4728 -0.1373
  135MOL   N17627244   4.129   5.444   4.561 -0.1089  0.6973 -0.1332
  135MOL   H17727245   4.170   5.258   4.370 -0.1358  0.0428  0.8054
  135MOL   H17827246   3.991   5.271   4.388 -1.1866  1.8330 -0.3629
  135MOL   H17927247   4.183   5.504   4.383  1.2052 -2.3234 -0.6472
  135MOL   H18027248   4.007   5.510   4.410  0.5450  1.8932 -0.2928
  135MOL   H18127249   4.211   5.498   4.587  0.4941  0.1815 -0.9632
  135MOL   C18227250   4.049   5.391   4.652 -0.1446 -0.2993  0.6402
  135MOL   O18327251   3.949   5.328   4.627 -0.2777  0.2596  0.4718
  135MOL   C18427252   4.079   5.422   4.800 -0.7043 -0.1024  0.0348
  135MOL   C18527253   4.113   5.305   4.891 -0.0261 -0.1681  0.6641
  135MOL   N18627254   4.261   5.282   4.901  0.1357 -0.0672 -0.1647
  135MOL   H18727255   3.990   5.456   4.851 -0.9201  0.3723 -0.6594
  135MOL   H18827256   4.153   5.502   4.794  0.5755 -1.2050  0.5970
  135MOL   H18927257   4.064   5.320   4.987  1.6161  1.4062  1.2937
  135MOL   H19027258   4.066   5.218   4.846  2.1317  0.0304 -2.1063
  135MOL   H19127259   4.306   5.256   4.814  0.0354  1.0871 -0.5656
  135MOL   C19227260   4.326   5.314   5.011  1.5975 -0.9240  0.1203
  135MOL   O19327261   4.278   5.386   5.099 -0.7949  0.3371 -0.4665
  135MOL   C19427262   4.465   5.261   5.021  1.1499 -0.0539  0.2815
  135MOL   C19527263   4.580   5.366   5.020 -0.5125  0.6352  0.4739
  135MOL   N19627264   4.714   5.310   5.040  0.2727  0.0215 -0.1174
  135MOL   H19727265   4.475   5.215   5.119  1.4943 -0.3294  0.1153
  135MOL   H19827266   4.481   5.180   4.951  0.6644  0.7286 -0.7651
  135MOL   H19927267   4.571   5.434   4.935  0.1217  0.7487  0.4945
  135MOL   H20027268   4.565   5.430   5.107  1.4949 -0.3460  1.5629
  135MOL   H20127269   4.750   5.258   4.962  0.2641 -1.3975  0.8147
  135MOL   H20227270   4.719   5.245   5.117 -4.5436 -0.2114  0.1732
  136MOL     C127271   1.172   0.507   2.213 -0.7308  0.3976 -0.5366
  136MOL     O227272   1.194   0.627   2.202  0.0997  0.1663 -0.0669
  136MOL     C327273   1.206   0.415   2.097  0.3144 -0.5901 -0.8878
  136MOL     C427274   1.100   0.427   1.989 -0.2762  0.1345 -0.0537
  136MOL     N527275   0.987   0.341   2.016 -0.4333  0.2038  0.6413
  136MOL     H627276   1.224   0.313   2.130  1.5645 -1.3396 -3.7336
  136MOL     H727277   1.302   0.454   2.063 -0.8252  0.3148 -3.2012
  136MOL     H827278   1.147   0.406   1.893  0.7861 -1.4877  0.8009
  136MOL     H927279   1.064   0.529   1.985  0.5110  0.5022  1.6206
  136MOL    H1027280   0.972   0.313   2.112  0.2079  1.0290  0.9902
  136MOL    H1127281   1.136   0.454   2.301  0.9740 -0.8796 -0.5987
  136MOL    C1227282   0.916   0.290   1.919  0.7912  0.1088  0.3968
  136MOL    O1327283   0.934   0.324   1.799 -0.7348 -0.0671  0.0901
  136MOL    C1427284   0.794   0.202   1.952 -0.0553  0.3578 -0.2607
  136MOL    C1527285   0.749   0.097   1.844  0.0670  0.5768 -0.7296
  136MOL    N1627286   0.742   7.735   1.894 -0.2551  0.2283  0.2148
  136MOL    H1727287   0.707   0.259   1.983 -0.0518 -0.0214  0.4662
  136MOL    H1827288   0.821   0.140   2.038  0.4920 -0.8980 -1.3174
  136MOL    H1927289   0.646   0.119   1.819 -0.2379 -2.2802 -2.2597
  136MOL    H2027290   0.809   0.107   1.754  0.4296 -3.0956 -0.9994
  136MOL    H2127291   0.645   7.707   1.885 -0.4390  0.7726  0.4168
  136MOL    C2227292   0.842   7.663   1.939 -0.9087 -0.2047  0.1815
  136MOL    O2327293   0.959   7.705   1.931 -0.3615 -0.5898 -0.0695
  136MOL    C2427294   0.813   7.524   2.009 -0.1771 -0.3124 -0.3970
  136MOL    C2527295   0.827   7.553   2.155  0.3309  0.2963  0.7011
  136MOL    N2627296   0.817   7.431   2.227 -0.4508  0.2496 -0.2166
  136MOL    H2727297   0.897   7.459   1.984  0.5465  0.5087 -0.1231
  136MOL    H2827298   0.721   7.476   1.976 -0.6659  0.0525  0.4164
  136MOL    H2927299   0.917   7.614   2.168  0.7311 -0.2201  0.4063
  136MOL    H3027300   0.739   7.606   2.191 -0.6016 -0.1409 -0.9001
  136MOL    H3127301   0.793   7.345   2.179  0.4846  0.0463 -0.3276
  136MOL    C3227302   0.865   7.428   2.347 -0.0334 -0.4356 -1.0331
  136MOL    O3327303   0.894   7.532   2.414  0.2089  0.0148  0.0267
  136MOL    C3427304   0.893   7.287   2.405  0.0978  0.1035  0.4375
  136MOL    C3527305   0.847   7.276   2.549  0.6667  0.2854  0.1332
  136MOL    N3627306   0.948   7.309   2.646  0.0883  0.2299  0.4895
  136MOL    H3727307   1.001   7.272   2.401 -0.2647 -2.8543  0.3578
  136MOL    H3827308   0.851   7.206   2.346  0.9686 -0.9693  1.2627
  136MOL    H3927309   0.761   7.341   2.565 -0.5268 -1.3227  0.3672
  136MOL    H4027310   0.813   7.175   2.570 -1.6619  0.4832 -2.4284
  136MOL    H4127311   0.918   7.372   2.719  0.4714  0.0989  0.7543
  136MOL    C4227312   1.061   7.240   2.663  0.5603 -0.1202 -0.3146
  136MOL    O4327313   1.095   7.152   2.582 -0.3748 -0.0102 -0.5001
  136MOL    C4427314   1.149   7.270   2.790 -0.2355  0.2867 -0.1045
  136MOL    C4527315   1.247   7.154   2.820 -0.2441 -0.1839  0.1829
  136MOL    N4627316   1.349   7.152   2.712 -0.1006  0.6711 -0.0560
  136MOL    H4727317   1.204   7.361   2.768  0.6686 -0.4456 -0.9741
  136MOL    H4827318   1.093   7.287   2.882  1.8758 -1.7762  1.6272
  136MOL    H4927319   1.297   7.169   2.915  0.5836  0.6000 -0.3620
  136MOL    H5027320   1.193   7.060   2.833  1.4964 -0.7791  3.5610
  136MOL    H5127321   1.396   7.229   2.665 -1.8006  0.2509 -2.5565
  136MOL    C5227322   1.396   7.042   2.654  0.3600 -0.3531 -0.9494
  136MOL    O5327323   1.375   6.932   2.701  0.2456 -0.0851 -0.2934
  136MOL    C5427324   1.482   7.052   2.531 -0.4989 -0.3019  0.6082
  136MOL    C5527325   1.429   6.967   2.404 -0.1109  0.3655 -0.3073
  136MOL    N5627326   1.508   6.978   2.279 -0.0611 -0.2775  0.0387
  136MOL    H5727327   1.510   7.151   2.496  1.3004 -1.6767 -2.0792
  136MOL    H5827328   1.583   7.016   2.552  0.2698  0.9302 -0.8607
  136MOL    H5927329   1.323   6.989   2.388 -0.3102  0.5123  1.1352
  136MOL    H6027330   1.418   6.861   2.427 -0.3765  0.4584 -0.0076
  136MOL    H6127331   1.607   6.963   2.269  0.4380  1.0566  2.5292
  136MOL    C6227332   1.451   6.998   2.159 -0.3999 -0.1725  0.3324
  136MOL    O6327333   1.332   7.000   2.150 -0.0028 -0.3229 -0.3907
  136MOL    C6427334   1.548   7.003   2.038 -0.5988  0.9699 -0.4103
  136MOL    C6527335   1.580   7.148   1.991  0.3070  0.1200 -0.4696
  136MOL    N6627336   1.659   7.156   1.872  0.0565  0.5414  0.6846
  136MOL    H6727337   1.642   6.949   2.049 -0.1404  1.7675 -0.3794
  136MOL    H6827338   1.500   6.951   1.955 -1.9280 -0.0518  0.9723
  136MOL    H6927339   1.486   7.200   1.969  0.6895  0.5389 -1.1458
  136MOL    H7027340   1.622   7.198   2.079  1.0148 -2.7540  0.8751
  136MOL    H7127341   1.605   7.169   1.788  2.2304  1.0277 -0.6934
  136MOL    C7227342   1.798   7.154   1.866  0.7402  0.6638 -0.2456
  136MOL    O7327343   1.866   7.139   1.966 -0.0159 -0.2374 -0.3983
  136MOL    C7427344   1.863   7.167   1.734  0.0052 -0.1384  0.0725
  136MOL    C7527345   1.992   7.086   1.701  0.0540  0.0651 -0.6363
  136MOL    N7627346   1.960   6.946   1.691 -0.0196 -0.4451 -0.3663
  136MOL    H7727347   1.794   7.152   1.651  0.6278 -1.4985 -0.2037
  136MOL    H7827348   1.883   7.274   1.727 -0.8237  0.0639  0.6678
  136MOL    H7927349   2.049   7.121   1.615  0.6859 -0.1120 -0.2950
  136MOL    H8027350   2.068   7.099   1.778  1.3535 -1.8155 -1.5474
  136MOL    H8127351   1.865   6.920   1.713 -0.3594  1.5620  0.6945
  136MOL    C8227352   2.041   6.859   1.627 -0.8305 -0.1639 -0.0955
  136MOL    O8327353   2.147   6.899   1.588  0.0301 -0.2555  0.0359
  136MOL    C8427354   2.008   6.709   1.620 -0.7346  0.1583 -0.3180
  136MOL    C8527355   1.985   6.665   1.483 -0.2992  0.4762  0.1658
  136MOL    N8627356   1.939   6.527   1.494 -0.4599 -0.3048  0.1991
  136MOL    H8727357   2.092   6.651   1.658 -0.3705  1.0793  0.3128
  136MOL    H8827358   1.928   6.675   1.686 -0.9953 -0.3661 -0.9044
  136MOL    H8927359   1.908   6.714   1.424  0.0503 -1.5822 -2.0860
  136MOL    H9027360   2.079   6.671   1.428 -0.0364  1.0271  0.6802
  136MOL    H9127361   1.839   6.516   1.510 -0.4048 -3.1309 -1.0604
  136MOL    C9227362   2.021   6.420   1.502 -0.1915  0.3421  0.1854
  136MOL    O9327363   2.146   6.438   1.509 -0.7823 -0.4621 -0.6806
  136MOL    C9427364   1.956   6.280   1.519  0.3252  0.6094  1.0145
  136MOL    C9527365   2.014   6.210   1.644 -0.3717  0.3468  0.1975
  136MOL    N9627366   2.123   6.123   1.602 -0.2466 -0.3626  0.8207
  136MOL    H9727367   1.850   6.287   1.545 -0.3969 -0.7560 -1.4314
  136MOL    H9827368   1.967   6.219   1.430 -0.2402  0.8881  0.7462
  136MOL    H9927369   2.042   6.269   1.731  2.8965  1.5408 -1.5861
  136MOL   H10027370   1.943   6.141   1.690  1.1467 -0.7597  0.9324
  136MOL   H10127371   2.214   6.165   1.600  0.5807 -2.1016  0.6748
  136MOL   C10227372   2.112   5.989   1.578 -0.2420 -0.3817  0.0481
  136MOL   O10327373   2.006   5.927   1.588 -0.8454 -0.3309 -0.1523
  136MOL   C10427374   2.244   5.908   1.543  0.2483 -0.7657  0.4915
  136MOL   C10527375   2.239   5.852   1.399 -0.7341 -0.7096 -0.8362
  136MOL   N10627376   2.244   5.948   1.295  0.3113 -0.2078  0.3338
  136MOL   H10727377   2.254   5.822   1.609 -1.0259 -1.9593 -0.8454
  136MOL   H10827378   2.335   5.964   1.565 -0.2727 -0.5154  2.1143
  136MOL   H10927379   2.327   5.788   1.393  0.9254  1.0399  2.9225
  136MOL   H11027380   2.149   5.791   1.384 -2.9167  1.5978  2.2368
  136MOL   H11127381   2.262   6.042   1.328 -1.5132 -0.0251  0.8657
  136MOL   C11227382   2.208   5.941   1.163 -0.3429 -0.9620 -0.0627
  136MOL   O11327383   2.175   5.836   1.114 -0.4538  0.1636 -0.4335
  136MOL   C11427384   2.202   6.076   1.095  0.0900  0.1129 -0.0905
  136MOL   C11527385   2.336   6.133   1.053  0.1808  0.3260 -0.1263
  136MOL   N11627386   2.408   6.189   1.169 -0.2283 -0.1576  0.0701
  136MOL   H11727387   2.132   6.145   1.141  2.5275  2.3472  0.4187
  136MOL   H11827388   2.149   6.050   1.004 -2.9831 -2.5255  2.3600
  136MOL   H11927389   2.392   6.060   0.996  0.2140  0.2761 -0.0301
  136MOL   H12027390   2.315   6.207   0.975 -2.3398 -1.3284 -1.0910
  136MOL   H12127391   2.389   6.285   1.194  1.9506  0.3281 -0.0338
  136MOL   C12227392   2.518   6.136   1.231  0.4603  0.9156 -0.7167
  136MOL   O12327393   2.569   6.030   1.199  0.1312  0.8767  0.0250
  136MOL   C12427394   2.579   6.224   1.339  0.3106  0.3410 -0.5492
  136MOL   C12527395   2.635   6.144   1.464 -0.1779  0.5234 -0.0707
  136MOL   N12627396   2.625   6.235   1.570  0.0657  0.4524  0.0297
  136MOL   H12727397   2.505   6.297   1.372  1.3167  1.9512 -1.8583
  136MOL   H12827398   2.654   6.282   1.286  0.8783 -1.3574 -1.6355
  136MOL   H12927399   2.576   6.054   1.483 -1.2323  1.3921  0.8923
  136MOL   H13027400   2.740   6.123   1.442  0.5100  0.8474  2.6674
  136MOL   H13127401   2.716   6.273   1.595  0.2492 -0.6843  1.1758
  136MOL   C13227402   2.516   6.272   1.647 -0.4338 -0.6137  0.1652
  136MOL   O13327403   2.404   6.221   1.618 -1.1529 -0.2321 -0.3288
  136MOL   C13427404   2.521   6.383   1.751  0.3174  0.5433 -0.0276
  136MOL   C13527405   2.423   6.496   1.742  0.1380 -0.6492 -0.4356
  136MOL   N13627406   2.479   6.616   1.806 -0.6163  0.2621  0.1343
  136MOL   H13727407   2.618   6.433   1.747 -0.0723  1.2530 -0.6807
  136MOL   H13827408   2.517   6.350   1.854  0.0234  0.7111  0.0159
  136MOL   H13927409   2.386   6.514   1.641 -1.6160 -1.0035  0.1230
  136MOL   H14027410   2.331   6.459   1.788  0.8953 -0.4285  1.2715
  136MOL   H14127411   2.580   6.616   1.813 -0.6118 -2.3310  0.3898
  136MOL   C14227412   2.410   6.718   1.854 -0.6261 -0.4068  0.1010
  136MOL   O14327413   2.289   6.707   1.861  0.0345 -0.0913  0.1368
  136MOL   C14427414   2.477   6.844   1.908  0.5112  0.3175  0.0512
  136MOL   C14527415   2.402   6.973   1.896  0.2644  0.3182  0.1088
  136MOL   N14627416   2.382   7.010   1.757 -0.4604  0.2128  0.2549
  136MOL   H14727417   2.570   6.851   1.852  0.7878  1.3624  0.6269
  136MOL   H14827418   2.507   6.829   2.011 -1.1762  0.5080  0.5822
  136MOL   H14927419   2.308   6.972   1.952  0.4726 -1.7157  0.4551
  136MOL   H15027420   2.452   7.059   1.941  1.4628  0.5478 -1.6213
  136MOL   H15127421   2.337   6.939   1.702 -1.7047  1.6146 -0.5848
  136MOL   C15227422   2.403   7.130   1.696  0.1194 -0.0074 -1.2545
  136MOL   O15327423   2.447   7.226   1.751  0.0578 -0.6053 -0.3161
  136MOL   C15427424   2.357   7.129   1.549 -0.1370 -0.1101 -0.5263
  136MOL   C15527425   2.410   7.238   1.456 -0.9389 -0.4620 -0.9189
  136MOL   N15627426   2.559   7.224   1.435 -0.5441 -0.5522 -0.3886
  136MOL   H15727427   2.249   7.138   1.549 -0.2388 -1.3023  0.2514
  136MOL   H15827428   2.380   7.030   1.510  0.2085 -0.2761  0.0935
  136MOL   H15927429   2.374   7.230   1.354 -0.9554  0.2074 -0.9669
  136MOL   H16027430   2.389   7.338   1.496 -2.2100 -1.3359  0.6544
  136MOL   H16127431   2.618   7.289   1.484 -0.7314 -1.0506  0.5024
  136MOL   C16227432   2.617   7.140   1.353  0.7244 -0.0844  0.0595
  136MOL   O16327433   2.564   7.068   1.268 -0.1445  0.2038  0.3727
  136MOL   C16427434   2.767   7.125   1.379 -0.3157 -0.2086 -0.1684
  136MOL   C16527435   2.850   7.029   1.285 -0.1691 -0.2511  0.5323
  136MOL   N16627436   2.991   7.071   1.269  0.4737  0.4757 -0.4218
  136MOL   H16727437   2.782   7.086   1.480  2.3364  1.2094  0.0493
  136MOL   H16827438   2.806   7.227   1.391 -0.8331  0.1709 -1.6055
  136MOL   H16927439   2.842   6.928   1.324 -0.6518  0.3065  1.8818
  136MOL   H17027440   2.827   7.025   1.178 -0.3128  0.1435  0.5475
  136MOL   H17127441   3.018   7.107   1.178 -0.7637 -0.4371 -1.1709
  136MOL   C17227442   3.086   7.061   1.359  0.4110  0.2075 -0.8005
  136MOL   O17327443   3.071   6.998   1.465  0.0443  0.2416 -0.3315
  136MOL   C17427444   3.208   7.143   1.326 -0.1014  0.2251 -0.2123
  136MOL   C17527445   3.320   7.148   1.429  0.1448 -0.1770 -0.2958
  136MOL   N17627446   3.391   7.276   1.432  0.2259 -0.3178 -0.2742
  136MOL   H17727447   3.183   7.242   1.287  1.9509  0.9936  0.3259
  136MOL   H17827448   3.239   7.103   1.229 -0.5916  0.4537 -0.4659
  136MOL   H17927449   3.288   7.121   1.529  0.2928  2.5171  0.5109
  136MOL   H18027450   3.397   7.076   1.403 -1.5419 -1.9097 -0.6471
  136MOL   H18127451   3.468   7.277   1.367  0.6370 -0.1589  0.2151
  136MOL   C18227452   3.370   7.387   1.506 -0.4015  0.5838 -0.1073
  136MOL   O18327453   3.282   7.389   1.587 -0.2498  0.3108 -0.3974
  136MOL   C18427454   3.465   7.512   1.486  0.3452  0.8738 -0.3655
  136MOL   C18527455   3.441   7.631   1.588 -1.0665 -0.3173  0.3083
  136MOL   N18627456   3.443   7.597   1.735 -0.2660  0.2083  0.4898
  136MOL   H18727457   3.436   7.549   1.388  0.6777  2.5159  0.1400
  136MOL   H18827458   3.565   7.471   1.478  0.0486 -0.3319  1.4854
  136MOL   H18927459   3.526   7.698   1.570 -0.2780 -0.8526  1.9097
  136MOL   H19027460   3.348   7.683   1.565 -0.7615 -1.2292 -3.2318
  136MOL   H19127461   3.517   7.536   1.768  0.3002  0.9202  0.5272
  136MOL   C19227462   3.370   7.647   1.830 -0.0720  0.1361  0.1023
  136MOL   O19327463   3.303   7.738   1.798  0.5488  0.4389 -0.0956
  136MOL   C19427464   3.387   7.605   1.975 -0.1554  0.0421 -0.5048
  136MOL   C19527465   3.256   7.581   2.054  0.3453 -0.2748  0.0383
  136MOL   N19627466   3.184   7.469   1.991 -0.6000  0.0925 -0.6241
  136MOL   H19727467   3.443   7.512   1.971  1.2186  0.8888 -1.6991
  136MOL   H19827468   3.446   7.685   2.021  0.5593 -0.6517 -0.2084
  136MOL   H19927469   3.288   7.554   2.155  2.1281 -1.4816 -0.8197
  136MOL   H20027470   3.185   7.663   2.058 -2.0810 -2.3048  0.1409
  136MOL   H20127471   3.132   7.494   1.907 -1.1495 -1.7692 -0.8659
  136MOL   H20227472   3.104   7.450   2.050  1.9817 -0.6938  2.7269
  137MOL     C127473   4.577   6.129   2.139  0.0936 -0.2089 -0.5501
  137MOL     O227474   4.481   6.053   2.168 -0.0159  0.1203 -0.0086
  137MOL     C327475   4.655   6.128   1.999 -0.5666  0.2215 -0.2213
  137MOL     C427476   4.581   6.159   1.874  0.2100  0.1484  0.6341
  137MOL     N527477   4.450   6.092   1.862  0.4859  0.0108  0.5356
  137MOL     H627478   4.711   6.035   1.987  2.5946  1.9150  0.7271
  137MOL     H727479   4.738   6.196   2.016 -0.7684  0.2342  0.6838
  137MOL     H827480   4.637   6.130   1.785 -0.4061 -1.8279  0.8523
  137MOL     H927481   4.565   6.265   1.859 -0.0887  0.3479  2.2605
  137MOL    H1027482   4.439   6.006   1.914  3.4854 -0.2078  0.9073
  137MOL    H1127483   4.629   6.195   2.208  1.9758 -0.6313 -1.5465
  137MOL    C1227484   4.348   6.138   1.789  0.0457  0.4056  0.0681
  137MOL    O1327485   4.357   6.237   1.722  0.2932 -0.3527  0.5726
  137MOL    C1427486   4.226   6.049   1.785 -0.1605 -0.3372  0.1714
  137MOL    C1527487   4.098   6.102   1.859  0.3746  0.5040  0.6634
  137MOL    N1627488   4.062   6.235   1.810  0.3115  0.7650  0.0993
  137MOL    H1727489   4.255   5.952   1.826 -0.9683 -0.6390  0.0458
  137MOL    H1827490   4.203   6.014   1.684  1.1227 -1.6170  0.3101
  137MOL    H1927491   4.025   6.025   1.834  0.7389  0.2379  0.4134
  137MOL    H2027492   4.109   6.101   1.968  1.0208 -0.3550  0.6014
  137MOL    H2127493   4.135   6.292   1.769  0.1369  1.4928  0.7917
  137MOL    C2227494   3.942   6.291   1.803 -0.9410 -0.7684 -0.3653
  137MOL    O2327495   3.846   6.235   1.859  1.0957 -0.0389 -0.0372
  137MOL    C2427496   3.921   6.425   1.725 -0.1634  0.6972 -0.0831
  137MOL    C2527497   3.782   6.493   1.742 -0.1819 -0.3676 -0.1419
  137MOL    N2627498   3.769   6.617   1.666 -0.2974  0.3515  0.0318
  137MOL    H2727499   3.936   6.401   1.620 -1.0638  0.5879 -0.1967
  137MOL    H2827500   4.006   6.493   1.730 -0.5353  1.1518  0.0922
  137MOL    H2927501   3.711   6.412   1.725 -0.2059 -0.5654  0.8806
  137MOL    H3027502   3.775   6.518   1.848  3.2019  1.4888 -0.2706
  137MOL    H3127503   3.856   6.662   1.641  0.7410 -1.2453  0.6972
  137MOL    C3227504   3.653   6.653   1.604 -0.5453 -0.2466  1.0937
  137MOL    O3327505   3.550   6.587   1.618 -0.1580 -0.5434  0.2892
  137MOL    C3427506   3.667   6.774   1.508 -0.5414 -0.9925 -0.2428
  137MOL    C3527507   3.550   6.866   1.469 -0.4860 -0.2155  0.4992
  137MOL    N3627508   3.427   6.866   1.559 -0.6066 -0.3003  0.0467
  137MOL    H3727509   3.721   6.738   1.420  2.0651  0.1091  0.8493
  137MOL    H3827510   3.738   6.839   1.559 -0.5755 -0.9915 -0.1973
  137MOL    H3927511   3.583   6.970   1.457  1.2302 -0.8912 -0.7243
  137MOL    H4027512   3.517   6.829   1.372  0.4992  0.9591 -0.3062
  137MOL    H4127513   3.355   6.800   1.532  0.8023 -1.9408  0.1715
  137MOL    C4227514   3.423   6.888   1.689  0.0355  0.9122  0.2573
  137MOL    O4327515   3.517   6.944   1.748  0.2737  0.0117 -0.7422
  137MOL    C4427516   3.304   6.827   1.765  0.4013  0.0361 -0.5646
  137MOL    C4527517   3.342   6.735   1.886 -0.7589  0.0423  0.1757
  137MOL    N4627518   3.397   6.606   1.849 -0.0326 -0.2828  0.3998
  137MOL    H4727519   3.263   6.919   1.807  1.6441  0.1225  0.5266
  137MOL    H4827520   3.227   6.779   1.705 -0.3873 -1.1138  1.2995
  137MOL    H4927521   3.408   6.783   1.959 -1.0642  1.4102 -0.4302
  137MOL    H5027522   3.251   6.730   1.946 -1.0360 -0.0654 -0.2561
  137MOL    H5127523   3.473   6.619   1.784  1.2449  3.2582  2.4522
  137MOL    C5227524   3.341   6.490   1.872 -0.2497  0.3855  0.5490
  137MOL    O5327525   3.229   6.483   1.929 -0.0611 -0.0614 -0.7097
  137MOL    C5427526   3.416   6.360   1.825  0.0814  0.0610  0.5116
  137MOL    C5527527   3.353   6.294   1.703  0.7205  0.4502 -0.5302
  137MOL    N5627528   3.398   6.360   1.584 -0.1220 -0.3589 -0.5935
  137MOL    H5727529   3.517   6.393   1.805  0.6005 -1.2763  0.8802
  137MOL    H5827530   3.422   6.288   1.906  1.1566 -0.5219 -0.0709
  137MOL    H5927531   3.244   6.296   1.703  0.7274  3.1225 -0.4240
  137MOL    H6027532   3.391   6.192   1.695  0.3873  0.4005 -1.4707
  137MOL    H6127533   3.432   6.455   1.590  2.3380 -1.2818  0.5498
  137MOL    C6227534   3.431   6.300   1.476  0.3174  0.8450  0.1160
  137MOL    O6327535   3.406   6.181   1.452  0.7076  0.4110 -0.2133
  137MOL    C6427536   3.485   6.390   1.365  0.6632 -0.2944  0.7741
  137MOL    C6527537   3.425   6.362   1.225 -0.3111  0.0506  0.2030
  137MOL    N6627538   3.321   6.458   1.191 -0.0520 -0.0986 -0.1813
  137MOL    H6727539   3.487   6.496   1.389  1.5520 -0.1081 -0.1138
  137MOL    H6827540   3.593   6.370   1.366  0.5872 -0.6982  2.6904
  137MOL    H6927541   3.507   6.368   1.153 -1.4440  1.0830 -1.0213
  137MOL    H7027542   3.381   6.263   1.211 -1.5523  0.6966 -0.6200
  137MOL    H7127543   3.228   6.424   1.212 -0.1341 -0.5495 -1.2518
  137MOL    C7227544   3.339   6.587   1.151 -1.2458 -0.6395 -0.7694
  137MOL    O7327545   3.453   6.634   1.133  0.7800  0.0068  0.2263
  137MOL    C7427546   3.216   6.664   1.113 -0.0814  0.5868  0.0530
  137MOL    C7527547   3.158   6.750   1.223 -0.1172 -0.2222  0.1472
  137MOL    N7627548   3.092   6.659   1.324 -0.0666  1.0499  0.1370
  137MOL    H7727549   3.252   6.734   1.038 -2.0512  1.0613 -0.4637
  137MOL    H7827550   3.134   6.600   1.080  0.2313 -0.7456  1.7481
  137MOL    H7927551   3.241   6.800   1.273  1.2453 -2.0729 -0.2200
  137MOL    H8027552   3.090   6.824   1.180  0.9756 -0.1984 -1.5662
  137MOL    H8127553   2.995   6.639   1.306 -0.3456  1.5093  1.0771
  137MOL    C8227554   3.153   6.616   1.438  0.6011 -0.5227  0.4667
  137MOL    O8327555   3.251   6.679   1.486 -0.2323  0.7866 -0.0281
  137MOL    C8427556   3.076   6.504   1.514 -0.2967 -0.0129 -0.0032
  137MOL    C8527557   3.010   6.561   1.641 -0.5062  0.6899  0.6592
  137MOL    N8627558   3.012   6.460   1.744 -0.0937  0.8120  0.4340
  137MOL    H8727559   2.997   6.462   1.452 -1.8658  3.1868 -0.2634
  137MOL    H8827560   3.155   6.433   1.540 -0.6105 -0.7330 -0.9959
  137MOL    H8927561   3.053   6.655   1.673  1.1026 -0.0599  0.7571
  137MOL    H9027562   2.906   6.588   1.626 -0.8022  0.4199  2.1673
  137MOL    H9127563   3.083   6.461   1.815 -0.4017  0.8786  0.7388
  137MOL    C9227564   2.937   6.352   1.743  0.4079  0.1196  0.6137
  137MOL    O9327565   2.851   6.336   1.654 -0.4489 -0.5682 -0.0437
  137MOL    C9427566   2.968   6.234   1.830  0.4558 -0.0806 -0.1041
  137MOL    C9527567   2.923   6.096   1.775 -0.1051 -0.2665  0.2585
  137MOL    N9627568   2.859   6.012   1.871 -0.4343 -0.4909  0.3715
  137MOL    H9727569   3.076   6.246   1.839  0.5709  0.2759 -1.7457
  137MOL    H9827570   2.930   6.246   1.931  0.9469 -1.1534  0.2158
  137MOL    H9927571   2.862   6.108   1.685  0.6552  2.2316  0.0456
  137MOL   H10027572   3.019   6.056   1.743 -0.6073 -2.4722  1.4350
  137MOL   H10127573   2.876   5.913   1.864 -2.8852 -0.8890 -0.2381
  137MOL   C10227574   2.747   6.052   1.940  0.2863 -0.8884  1.0354
  137MOL   O10327575   2.709   6.172   1.934 -0.2002 -0.3492  0.4475
  137MOL   C10427576   2.663   5.940   1.993 -0.8901  0.0601 -0.7208
  137MOL   C10527577   2.532   5.977   2.067 -0.5009 -0.5395 -0.2477
  137MOL   N10627578   2.412   5.977   1.984 -0.2880  0.1240 -0.3810
  137MOL   H10727579   2.723   5.881   2.062 -3.2244 -3.1328 -1.3364
  137MOL   H10827580   2.640   5.875   1.909  1.7557 -0.4671 -1.0842
  137MOL   H10927581   2.526   5.907   2.150  1.9453 -0.8729 -0.3247
  137MOL   H11027582   2.537   6.080   2.104 -0.9220  0.2482 -2.3002
  137MOL   H11127583   2.433   5.981   1.886 -0.1178  1.1847 -0.3064
  137MOL   C11227584   2.288   5.963   2.030 -0.7569  0.0192 -0.1084
  137MOL   O11327585   2.263   5.949   2.152  0.5691  0.4313 -0.0181
  137MOL   C11427586   2.176   5.945   1.931  0.3707 -0.4001 -0.5286
  137MOL   C11527587   2.150   5.801   1.881 -0.6905  0.1366 -0.3204
  137MOL   N11627588   2.070   5.728   1.990 -0.4927 -0.2860  0.0863
  137MOL   H11727589   2.191   6.003   1.840 -1.5712 -0.5251 -0.9611
  137MOL   H11827590   2.085   5.991   1.970  1.0598  0.2028  0.3592
  137MOL   H11927591   2.089   5.797   1.790 -1.1253  2.7048 -0.1835
  137MOL   H12027592   2.245   5.754   1.855 -0.0696  1.2757 -0.1450
  137MOL   H12127593   2.014   5.777   2.059 -1.6710 -0.9709 -0.3625
  137MOL   C12227594   2.069   5.595   1.984  0.1079 -0.0805 -0.1176
  137MOL   O12327595   2.129   5.526   1.895 -0.0157 -0.3079  0.1104
  137MOL   C12427596   1.987   5.529   2.091  0.1506 -0.3861 -0.1280
  137MOL   C12527597   1.902   5.407   2.048 -0.4399 -0.8663  0.8441
  137MOL   N12627598   1.774   5.439   1.995  0.2774 -0.0301  0.1563
  137MOL   H12727599   1.909   5.594   2.131  0.7366 -0.8887  1.8503
  137MOL   H12827600   2.049   5.497   2.174  1.8392  1.2894 -0.7221
  137MOL   H12927601   1.946   5.342   1.972  0.3736 -1.6269  1.9456
  137MOL   H13027602   1.882   5.339   2.130 -0.3633 -1.5684  0.2781
  137MOL   H13127603   1.766   5.490   1.908  0.3946 -0.7798 -0.3016
  137MOL   C13227604   1.658   5.424   2.063 -0.1113 -1.0346 -0.1837
  137MOL   O13327605   1.648   5.374   2.174 -0.6818 -0.8131  0.3664
  137MOL   C13427606   1.532   5.472   1.995  0.2215  0.2272  0.4170
  137MOL   C13527607   1.403   5.479   2.086 -0.0864  0.2793 -0.1935
  137MOL   N13627608   1.328   5.353   2.093 -0.4270 -0.4021  0.4067
  137MOL   H13727609   1.520   5.407   1.909  1.6495  0.9190 -0.3293
  137MOL   H13827610   1.548   5.572   1.955  0.6833 -0.3226 -0.7822
  137MOL   H13927611   1.435   5.495   2.189 -0.5876  3.7374 -0.5226
  137MOL   H14027612   1.336   5.561   2.059 -2.6746 -2.3016 -1.8187
  137MOL   H14127613   1.339   5.301   2.178 -1.2570 -0.0815  0.7165
  137MOL   C14227614   1.254   5.301   1.998  0.3330 -0.0747  0.0156
  137MOL   O14327615   1.255   5.343   1.881 -0.3204  0.2544 -0.0527
  137MOL   C14427616   1.167   5.179   2.031 -0.0505  0.3075 -0.3995
  137MOL   C14527617   1.015   5.197   1.982 -0.3536 -0.7553 -0.4011
  137MOL   N14627618   0.931   5.272   2.073  0.6213  0.2230 -0.4550
  137MOL   H14727619   1.171   5.162   2.139 -0.1624  1.3240 -0.2265
  137MOL   H14827620   1.209   5.086   1.994 -0.5002 -1.0633  2.3547
  137MOL   H14927621   1.012   5.239   1.882 -0.8273 -1.4780 -0.6897
  137MOL   H15027622   0.974   5.097   1.972  0.5076 -1.1025 -0.5560
  137MOL   H15127623   0.961   5.366   2.095 -2.2165  1.0891 -0.0968
  137MOL   C15227624   0.801   5.249   2.101  0.5489 -0.0833 -0.3202
  137MOL   O15327625   0.746   5.145   2.063 -0.1773 -0.2202 -0.7215
  137MOL   C15427626   0.727   5.357   2.184 -0.4171  0.8478 -0.1432
  137MOL   C15527627   0.579   5.388   2.172 -0.0788  0.0791 -0.5376
  137MOL   N15627628   0.546   5.429   2.036 -0.2768 -0.1324  0.3690
  137MOL   H15727629   0.777   5.454   2.176  1.6305 -0.1194  0.6118
  137MOL   H15827630   0.739   5.337   2.290 -1.8847  0.4274 -0.0533
  137MOL   H15927631   0.528   5.296   2.203  2.7874 -1.0115  1.1157
  137MOL   H16027632   0.547   5.452   2.254  0.8134 -0.4504  0.2341
  137MOL   H16127633   0.587   5.515   2.001  2.1341 -1.5599 -0.4334
  137MOL   C16227634   0.495   5.340   1.950 -0.5381  0.1690  0.1310
  137MOL   O16327635   0.467   5.227   1.983 -0.2730  0.1118  0.1017
  137MOL   C16427636   0.477   5.378   1.805 -0.2801 -1.0561 -0.2117
  137MOL   C16527637   0.604   5.324   1.729  0.2531  0.0401  0.3375
  137MOL   N16627638   0.630   5.179   1.742 -0.1578  0.0962 -0.0227
  137MOL   H16727639   0.476   5.486   1.794 -1.1179 -1.2341 -2.0765
  137MOL   H16827640   0.389   5.336   1.755  0.4396 -0.6811 -1.8314
  137MOL   H16927641   0.599   5.338   1.622  0.3472  1.1477  0.4747
  137MOL   H17027642   0.688   5.389   1.755  0.5436 -0.7770  1.4923
  137MOL   H17127643   0.566   5.134   1.806  1.6267 -0.5853  1.3332
  137MOL   C17227644   0.729   5.106   1.689 -0.1522  0.0236  0.3491
  137MOL   O17327645   0.822   5.152   1.628 -0.3303  0.7506 -0.0950
  137MOL   C17427646   0.704   4.955   1.707  1.6076  0.4308 -0.9360
  137MOL   C17527647   0.815   4.891   1.801  0.0997 -1.3578 -0.1201
  137MOL   N17627648   0.787   4.893   1.943 -0.3448  0.0204 -0.0466
  137MOL   H17727649   0.708   4.910   1.608 -0.6496  2.0969 -1.8387
  137MOL   H17827650   0.600   4.938   1.733  2.0748 -2.1700 -0.6469
  137MOL   H17927651   0.838   4.788   1.773  2.2108 -0.9294 -0.0756
  137MOL   H18027652   0.911   4.940   1.783  1.6265 -3.8280  0.9730
  137MOL   H18127653   0.768   4.986   1.978  0.1118  0.2279 -0.3552
  137MOL   C18227654   0.810   4.794   2.032 -1.3989 -0.5336 -0.5269
  137MOL   O18327655   0.836   4.674   1.999 -0.0893 -0.9272 -0.0855
  137MOL   C18427656   0.789   4.834   2.173 -0.2656  0.5958 -0.2388
  137MOL   C18527657   0.893   4.793   2.285  0.4680  0.4678  0.3913
  137MOL   N18627658   0.861   4.861   2.418 -0.0558  0.9164  0.5258
  137MOL   H18727659   0.695   4.785   2.201  1.1411 -2.7185 -1.2074
  137MOL   H18827660   0.764   4.941   2.175 -1.6207  0.3177 -1.7210
  137MOL   H18927661   0.884   4.686   2.305 -0.0583  0.4520  0.0704
  137MOL   H19027662   0.991   4.829   2.251 -0.3463  0.6542 -1.8416
  137MOL   H19127663   0.912   4.945   2.437  0.5857  0.8269 -0.7236
  137MOL   C19227664   0.775   4.819   2.515  0.0703  0.0543  0.3023
  137MOL   O19327665   0.704   4.718   2.504 -0.2980 -0.4685  0.6225
  137MOL   C19427666   0.771   4.900   2.648 -0.0517  0.5984  0.6932
  137MOL   C19527667   0.658   5.003   2.647  0.1456  0.4370 -0.8958
  137MOL   N19627668   0.681   5.111   2.558 -0.1974 -0.4052 -0.2399
  137MOL   H19727669   0.758   4.824   2.725  1.6611  0.5810  0.9866
  137MOL   H19827670   0.868   4.950   2.654  0.5107 -0.2562 -1.1931
  137MOL   H19927671   0.558   4.961   2.630 -0.2527  1.8009 -2.0402
  137MOL   H20027672   0.656   5.046   2.747  0.9829 -2.2792  0.3317
  137MOL   H20127673   0.609   5.181   2.569 -0.6191 -1.3711  4.3990
  137MOL   H20227674   0.673   5.083   2.461 -0.3420  1.1771 -0.6952
  138MOL     C127675   0.511   7.425   4.331 -0.3486  0.0983  0.6306
  138MOL     O227676   0.444   7.513   4.387  0.1252 -0.2815  0.2821
  138MOL     C327677   0.520   7.418   4.175 -0.1343  0.2633  0.2811
  138MOL     C427678   0.590   7.287   4.127 -0.0844 -0.5926  0.1950
  138MOL     N527679   0.729   7.277   4.169  0.0971  0.0643 -0.1272
  138MOL     H627680   0.562   7.511   4.137  0.7558 -0.9847 -1.8588
  138MOL     H727681   0.415   7.418   4.146  0.1100  0.6948 -0.6042
  138MOL     H827682   0.580   7.270   4.020  1.2404  2.3315 -0.4587
  138MOL     H927683   0.540   7.201   4.171  0.4104 -0.2478  1.4736
  138MOL    H1027684   0.804   7.330   4.128  1.1084 -0.0820  1.5004
  138MOL    H1127685   0.544   7.331   4.377 -0.9763 -1.3049 -1.7272
  138MOL    C1227686   0.775   7.202   4.271  0.4924  0.6632 -0.4025
  138MOL    O1327687   0.698   7.135   4.338 -0.2404  0.1544  0.1532
  138MOL    C1427688   0.928   7.210   4.299  0.3115  0.0669  0.0891
  138MOL    C1527689   0.991   7.079   4.314 -0.8863  0.1386  0.3814
  138MOL    N1627690   1.020   7.008   4.190 -0.6873 -0.3486  0.2999
  138MOL    H1727691   0.936   7.250   4.400  1.1531  0.5470 -0.1536
  138MOL    H1827692   0.970   7.290   4.236 -3.7044  0.8622 -1.7231
  138MOL    H1927693   1.077   7.103   4.376  0.1358  0.8920 -1.3067
  138MOL    H2027694   0.936   7.011   4.380  2.4608 -1.9903  1.0656
  138MOL    H2127695   0.950   6.953   4.142  0.0058 -0.5218 -0.5212
  138MOL    C2227696   1.138   7.010   4.130  0.1993  0.2615 -0.6482
  138MOL    O2327697   1.235   7.063   4.178 -0.2659 -0.1682  0.1433
  138MOL    C2427698   1.134   6.949   3.993  0.4766  0.1898  0.0895
  138MOL    C2527699   1.274   6.955   3.929 -0.0757  0.0146  0.2844
  138MOL    N2627700   1.284   6.874   3.807  0.0433 -0.2681  0.0015
  138MOL    H2727701   1.061   7.000   3.930  0.5540 -0.3401 -0.4351
  138MOL    H2827702   1.095   6.847   3.994 -0.2884  0.4577 -1.3652
  138MOL    H2927703   1.298   7.059   3.905  1.1291 -0.1617  0.7032
  138MOL    H3027704   1.358   6.925   3.991 -0.1466  1.0128  0.8658
  138MOL    H3127705   1.198   6.825   3.788  0.1096  0.2212 -1.6354
  138MOL    C3227706   1.395   6.827   3.746  0.7819  0.1718  0.7124
  138MOL    O3327707   1.392   6.726   3.678  0.1444 -0.5541  0.1481
  138MOL    C3427708   1.522   6.920   3.750 -0.5623  0.0747  0.4955
  138MOL    C3527709   1.656   6.853   3.724 -0.4129  0.2354  0.3498
  138MOL    N3627710   1.683   6.851   3.580  0.5279 -0.3586 -0.1499
  138MOL    H3727711   1.527   6.955   3.853 -1.3332  0.6747  0.3336
  138MOL    H3827712   1.513   7.011   3.691 -0.0461 -1.3335 -1.8192
  138MOL    H3927713   1.733   6.919   3.764 -0.1108  1.8994 -2.8607
  138MOL    H4027714   1.663   6.756   3.774  1.4686  0.8488  1.3307
  138MOL    H4127715   1.694   6.757   3.544  1.9921  0.2969 -1.4665
  138MOL    C4227716   1.726   6.956   3.500  0.5515  0.5404  0.2996
  138MOL    O4327717   1.749   7.072   3.534 -0.0837  0.3126  0.1344
  138MOL    C4427718   1.738   6.925   3.343 -0.0944 -0.8513  0.2256
  138MOL    C4527719   1.616   6.961   3.261  0.4648 -0.3485 -0.5335
  138MOL    N4627720   1.602   7.100   3.245  0.4980 -0.5985  0.0398
  138MOL    H4727721   1.833   6.942   3.293 -1.2800  0.9838 -1.4892
  138MOL    H4827722   1.738   6.816   3.342 -3.4359 -0.9076  1.1872
  138MOL    H4927723   1.629   6.911   3.165 -2.7867  0.0851 -1.2829
  138MOL    H5027724   1.529   6.919   3.312  0.8115  0.6378  0.9021
  138MOL    H5127725   1.686   7.156   3.247 -0.6710  1.2297 -0.7421
  138MOL    C5227726   1.498   7.161   3.191 -0.4186 -0.3593 -0.8450
  138MOL    O5327727   1.406   7.093   3.145 -0.5277 -0.0906  0.3681
  138MOL    C5427728   1.505   7.310   3.166 -0.6359  0.0316 -0.4280
  138MOL    C5527729   1.505   7.332   3.012  0.2612 -0.2846 -0.2583
  138MOL    N5627730   1.569   7.460   2.980  0.5221  0.0514 -0.4054
  138MOL    H5727731   1.423   7.369   3.206  0.2897  0.1720  1.2873
  138MOL    H5827732   1.599   7.337   3.214 -1.5156 -1.4641  2.2055
  138MOL    H5927733   1.405   7.340   2.969 -0.0203 -1.3366  0.1875
  138MOL    H6027734   1.554   7.248   2.962  0.8348  0.8975 -1.7098
  138MOL    H6127735   1.518   7.542   2.948  2.5792  0.9464 -1.4972
  138MOL    C6227736   1.700   7.474   2.982  0.0566  0.4075  0.6329
  138MOL    O6327737   1.778   7.379   2.991 -0.1043 -0.3216 -0.0652
  138MOL    C6427738   1.754   7.615   2.967  0.5655 -0.3042 -0.2236
  138MOL    C6527739   1.839   7.669   3.087 -0.1169 -0.1764 -0.0204
  138MOL    N6627740   1.935   7.778   3.055 -0.0465  0.1618 -0.3621
  138MOL    H6727741   1.810   7.614   2.874 -1.5439 -0.5083 -1.5258
  138MOL    H6827742   1.677   7.691   2.953  1.1134  0.5883  1.4418
  138MOL    H6927743   1.763   7.700   3.159 -1.3575  0.9251 -1.7713
  138MOL    H7027744   1.898   7.583   3.120 -1.3864 -1.0562  0.0233
  138MOL    H7127745   1.908   0.095   3.057 -0.6232 -0.0031  0.2869
  138MOL    C7227746   2.058   7.753   3.031  0.2412  0.1824  0.7369
  138MOL    O7327747   2.102   7.644   3.045 -0.3764  0.2390 -0.1231
  138MOL    C7427748   2.146   0.081   2.980 -0.6730  0.0176 -0.2216
  138MOL    C7527749   2.281   0.087   3.062 -0.0140  0.5334  0.1975
  138MOL    N7627750   2.361   0.204   3.023 -0.5850 -0.1774 -0.8051
  138MOL    H7727751   2.176   0.061   2.877  2.8070 -0.9567  0.9066
  138MOL    H7827752   2.095   0.177   2.987  0.6195  0.6336  1.0569
  138MOL    H7927753   2.249   0.095   3.166  2.0458 -0.6840  0.9527
  138MOL    H8027754   2.336   7.774   3.055 -1.3738 -0.3130  0.5628
  138MOL    H8127755   2.309   0.283   2.988 -0.4920  0.6254  0.7959
  138MOL    C8227756   2.496   0.197   3.009 -0.0134  0.3181  0.8443
  138MOL    O8327757   2.559   0.101   3.049  0.2789 -1.0172  0.2803
  138MOL    C8427758   2.564   0.330   2.957 -0.0931 -0.0150 -0.8792
  138MOL    C8527759   2.648   0.308   2.832  0.1955  0.2606  0.2905
  138MOL    N8627760   2.767   0.216   2.839  0.1730 -0.3869  0.1004
  138MOL    H8727761   2.482   0.395   2.928  2.2658  2.4723 -2.1603
  138MOL    H8827762   2.620   0.382   3.034 -0.4181 -0.9506  0.0119
  138MOL    H8927763   2.587   0.260   2.756 -0.7520 -0.6749  1.6193
  138MOL    H9027764   2.678   0.399   2.779 -2.4406  1.1121  0.1807
  138MOL    H9127765   2.751   0.125   2.798  1.8549 -1.0435  0.8656
  138MOL    C9227766   2.894   0.255   2.854 -0.4517  0.3428 -0.3530
  138MOL    O9327767   2.921   0.368   2.861  0.2617  0.6635  0.4750
  138MOL    C9427768   2.996   0.151   2.862 -0.2393 -0.0105 -0.9614
  138MOL    C9527769   3.068   0.151   3.001  0.4194 -0.5706 -0.4734
  138MOL    N9627770   3.147   0.273   3.017 -0.6481 -0.3369  0.2970
  138MOL    H9727771   2.952   0.056   2.835 -0.6637  0.1760 -0.9276
  138MOL    H9827772   3.060   0.179   2.778 -0.7683  3.1925 -0.3681
  138MOL    H9927773   2.996   0.148   3.083  0.2493  2.1911 -0.4604
  138MOL   H10027774   3.129   0.061   2.996  1.0535  0.0033 -4.5127
  138MOL   H10127775   3.133   0.352   2.955 -1.0513 -0.6103  0.0344
  138MOL   C10227776   3.260   0.285   3.088 -0.4214 -0.6195  0.0802
  138MOL   O10327777   3.298   0.195   3.161 -0.3269  0.1015 -0.3868
  138MOL   C10427778   3.344   0.418   3.074 -0.1903  0.2151 -0.2088
  138MOL   C10527779   3.475   0.443   3.154 -0.6033 -0.2696  0.1066
  138MOL   N10627780   3.447   0.488   3.293 -0.0021  0.3919  0.6169
  138MOL   H10727781   3.272   0.495   3.103  0.2275  0.5277 -0.0068
  138MOL   H10827782   3.370   0.421   2.969  1.4177 -1.2130  0.1222
  138MOL   H10927783   3.524   0.346   3.162 -1.1411 -0.5463  0.0997
  138MOL   H11027784   3.531   0.520   3.101 -0.5989 -0.9630 -0.9025
  138MOL   H11127785   3.350   0.505   3.316 -0.4314 -0.1988 -0.7142
  138MOL   C11227786   3.542   0.517   3.384  0.2589  0.5650  0.0191
  138MOL   O11327787   3.660   0.484   3.360  0.8574 -0.0531  1.4734
  138MOL   C11427788   3.506   0.594   3.508 -0.2856  0.1800  0.1230
  138MOL   C11527789   3.626   0.661   3.582  1.0870  0.4142  0.0103
  138MOL   N11627790   3.579   0.727   3.705  0.6291  0.4322 -0.4410
  138MOL   H11727791   3.460   0.532   3.586 -0.3143 -0.2027 -0.1991
  138MOL   H11827792   3.434   0.672   3.483 -1.7951 -1.0815  0.4392
  138MOL   H11927793   3.704   0.587   3.597  0.2287 -0.7068 -0.9292
  138MOL   H12027794   3.664   0.736   3.513  0.4658  1.9547  1.3233
  138MOL   H12127795   3.557   0.825   3.693  0.6449  0.3236 -1.4387
  138MOL   C12227796   3.580   0.669   3.828  0.8920 -0.1107 -0.3880
  138MOL   O12327797   3.630   0.559   3.857  0.7455 -0.6148 -0.1710
  138MOL   C12427798   3.519   0.749   3.940  0.0020 -0.4088  0.3812
  138MOL   C12527799   3.479   0.669   4.068  0.4023 -0.2525 -0.1378
  138MOL   N12627800   3.347   0.599   4.052 -0.0396  0.8342 -0.1564
  138MOL   H12727801   3.436   0.801   3.893  1.0929 -0.3828 -1.6038
  138MOL   H12827802   3.585   0.834   3.958 -1.9035  1.6966 -2.2048
  138MOL   H12927803   3.552   0.608   4.121  0.7888  0.8256  0.5938
  138MOL   H13027804   3.456   0.740   4.148 -2.1434 -2.3980  1.1251
  138MOL   H13127805   3.321   0.581   3.956 -0.9998  1.9047 -0.1059
  138MOL   C13227806   3.275   0.535   4.145  0.0094  0.5975 -1.1963
  138MOL   O13327807   3.303   0.536   4.267 -0.1070  0.3617  0.2071
  138MOL   C13427808   3.148   0.468   4.091  0.4558  0.0329  1.1449
  138MOL   C13527809   3.151   0.316   4.078 -0.1382 -0.1154 -0.8583
  138MOL   N13627810   3.197   0.252   4.206 -0.0249 -0.2517  0.1693
  138MOL   H13727811   3.122   0.512   3.995 -0.8292 -0.7109  1.1427
  138MOL   H13827812   3.061   0.486   4.154  0.6449 -1.9275  2.0081
  138MOL   H13927813   3.051   0.276   4.064  0.4676 -1.8905 -0.2720
  138MOL   H14027814   3.199   0.276   3.988 -0.4571  0.1359 -1.1419
  138MOL   H14127815   3.145   0.290   4.284  0.8291  2.2002 -0.4099
  138MOL   C14227816   3.286   0.153   4.226  0.4454 -0.1393  0.0587
  138MOL   O14327817   3.308   0.107   4.337  0.3837  0.3576 -0.3569
  138MOL   C14427818   3.361   0.098   4.109  0.1583 -0.3411 -0.1700
  138MOL   C14527819   3.284   7.766   4.030 -0.7084 -0.5759  0.2508
  138MOL   N14627820   3.358   7.735   3.904  0.2809 -0.5132  0.5886
  138MOL   H14727821   3.456   0.054   4.141  0.7895  1.1738  0.0681
  138MOL   H14827822   3.391   0.176   4.040  1.8337 -1.9407 -1.2981
  138MOL   H14927823   3.270   7.683   4.098 -1.4737  0.3632  1.2706
  138MOL   H15027824   3.190   0.024   3.989 -0.4709  0.5629  0.7252
  138MOL   H15127825   3.320   7.765   3.815  2.2417  2.4525  0.6783
  138MOL   C15227826   3.457   7.644   3.894  0.2225 -0.6087  0.2340
  138MOL   O15327827   3.504   7.589   3.990 -0.3639  0.5691  0.9155
  138MOL   C15427828   3.510   7.602   3.756 -0.4780 -0.2961  0.0081
  138MOL   C15527829   3.656   7.550   3.755 -0.0395 -0.1805 -0.3905
  138MOL   N15627830   3.706   7.532   3.625  0.1355 -0.4681  0.3886
  138MOL   H15727831   3.489   7.684   3.687 -2.8233 -0.7733  0.1343
  138MOL   H15827832   3.446   7.521   3.720 -0.9071 -0.1067  0.3478
  138MOL   H15927833   3.713   7.633   3.797  1.9965 -1.7939  0.0837
  138MOL   H16027834   3.669   7.460   3.815 -1.2181  0.5700  1.0268
  138MOL   H16127835   3.661   7.581   3.549  0.8628 -2.8032 -1.6178
  138MOL   C16227836   3.831   7.492   3.601  0.6119  0.6330  0.6697
  138MOL   O16327837   3.900   7.446   3.694  0.6434  0.3570  0.2276
  138MOL   C16427838   3.889   7.505   3.461  0.0043 -0.2287  0.7652
  138MOL   C16527839   3.979   7.389   3.413 -0.1548  0.2900  0.0515
  138MOL   N16627840   4.081   7.438   3.319  0.0326 -0.2018  0.2143
  138MOL   H16727841   3.949   7.596   3.465  1.7125 -1.2644 -0.2456
  138MOL   H16827842   3.814   7.521   3.383  0.6531  1.1390  0.3992
  138MOL   H16927843   4.025   7.341   3.499 -0.3992  0.3888  0.2372
  138MOL   H17027844   3.924   7.311   3.361  1.4583 -0.3880 -0.6863
  138MOL   H17127845   4.072   7.526   3.269 -0.6198 -0.8109 -0.7683
  138MOL   C17227846   4.189   7.367   3.291  1.0116  0.7182  0.4316
  138MOL   O17327847   4.216   7.258   3.340  0.2010 -0.1512  1.0687
  138MOL   C17427848   4.291   7.424   3.194 -0.1674 -0.3735  0.5792
  138MOL   C17527849   4.285   7.373   3.044  0.5595  0.5694 -0.6896
  138MOL   N17627850   4.301   7.230   3.033  0.3474  0.3023 -1.1344
  138MOL   H17727851   4.385   7.412   3.248  0.5654 -0.1491 -0.6225
  138MOL   H17827852   4.266   7.529   3.178 -0.0076 -0.3377  0.5639
  138MOL   H17927853   4.191   7.400   2.997  0.6900  2.0883 -0.1142
  138MOL   H18027854   4.365   7.414   2.982 -0.8585  1.1055 -2.1642
  138MOL   H18127855   4.389   7.194   3.067  0.6065  0.1125 -1.9919
  138MOL   C18227856   4.208   7.143   2.976 -0.2315  0.6475 -0.2891
  138MOL   O18327857   4.096   7.181   2.942 -0.6999  0.5994 -0.1152
  138MOL   C18427858   4.245   6.996   2.962  0.0652  0.5545  0.1728
  138MOL   C18527859   4.186   6.909   3.072  0.9796  0.5875 -0.0913
  138MOL   N18627860   4.268   6.935   3.184 -1.1554 -0.1938 -0.7429
  138MOL   H18727861   4.354   6.996   2.957  0.0238 -1.2999 -1.2879
  138MOL   H18827862   4.213   6.983   2.858 -0.4474 -1.4468  0.5531
  138MOL   H18927863   4.084   6.940   3.094  1.7316  2.9085  0.2532
  138MOL   H19027864   4.191   6.803   3.047 -2.0594 -0.0551  1.8146
  138MOL   H19127865   4.353   6.988   3.170 -1.4108  0.5916  0.5345
  138MOL   C19227866   4.230   6.906   3.316  0.5397 -0.7285 -0.0794
  138MOL   O19327867   4.130   6.839   3.339 -0.1383  0.3147 -0.1658
  138MOL   C19427868   4.314   6.952   3.437  0.0996 -0.0208 -0.7894
  138MOL   C19527869   4.239   7.006   3.564 -0.3546  0.3244  0.4703
  138MOL   N19627870   4.227   6.896   3.659 -0.2547  0.1681 -0.3761
  138MOL   H19727871   4.378   6.866   3.458  1.2606  0.6116 -1.7192
  138MOL   H19827872   4.385   7.029   3.409  0.7406 -0.7134 -1.1052
  138MOL   H19927873   4.294   7.092   3.603  0.1960 -0.0400  0.5114
  138MOL   H20027874   4.137   7.040   3.547 -0.2641 -0.6679 -2.3064
  138MOL   H20127875   4.220   6.916   3.758 -0.0742 -2.6360  0.2380
  138MOL   H20227876   4.139   6.853   3.636 -0.3468  0.7751 -1.1833
  139MOL     C127877   6.678   6.273   0.441 -0.6714 -0.3104 -0.6842
  139MOL     O227878   6.562   6.308   0.447  0.3876  0.0689  0.3135
  139MOL     C327879   6.791   6.342   0.523  0.1675  0.0087  0.1706
  139MOL     C427880   6.820   6.485   0.479  0.0201 -0.6054  0.1206
  139MOL     N527881   6.735   6.577   0.546 -0.1877  0.1525 -0.8675
  139MOL     H627882   6.876   6.278   0.497  0.8769 -0.3215  3.1725
  139MOL     H727883   6.763   6.340   0.628  0.2499 -0.5403  0.1856
  139MOL     H827884   6.792   6.503   0.376  1.6942 -1.4147 -0.4870
  139MOL     H927885   6.926   6.506   0.490  0.2690 -1.2971 -0.9407
  139MOL    H1027886   6.644   6.544   0.573  0.7515  0.4611  2.9439
  139MOL    H1127887   6.714   6.183   0.393  1.0927 -1.9130  3.3815
  139MOL    C1227888   6.779   6.702   0.584  0.2369 -0.0321  0.0315
  139MOL    O1327889   6.883   6.757   0.546  0.4178 -0.8175 -0.1937
  139MOL    C1427890   6.679   6.779   0.673  0.2548 -0.4033  0.1910
  139MOL    C1527891   6.673   6.929   0.628  0.9233  0.3827 -0.4350
  139MOL    N1627892   6.595   6.953   0.505  0.7424  0.0640  0.4547
  139MOL    H1727893   6.728   6.774   0.770 -0.7151 -2.8046  0.5870
  139MOL    H1827894   6.578   6.745   0.697  0.4372 -0.5158  0.8122
  139MOL    H1927895   6.615   6.987   0.701 -1.1346 -1.6807 -0.3614
  139MOL    H2027896   6.772   6.973   0.631  1.6249 -1.2917  2.1729
  139MOL    H2127897   6.528   6.890   0.465  1.9173 -0.3621 -0.8705
  139MOL    C2227898   6.579   7.071   0.452 -0.5759  0.0068 -0.5616
  139MOL    O2327899   6.648   7.167   0.489  0.4654  0.3839 -1.0377
  139MOL    C2427900   6.459   7.078   0.358 -0.1387  0.0754  0.0359
  139MOL    C2527901   6.407   7.224   0.333 -1.0490  0.4976 -0.0922
  139MOL    N2627902   6.297   7.240   0.241 -0.7293 -0.3118 -0.3093
  139MOL    H2727903   6.382   7.010   0.394 -2.0684  1.4307 -1.4719
  139MOL    H2827904   6.489   7.037   0.262  0.9279  2.4424 -0.6934
  139MOL    H2927905   6.389   7.254   0.436  1.5912  0.0813  0.5276
  139MOL    H3027906   6.494   7.281   0.302  0.7662 -2.7661 -1.2298
  139MOL    H3127907   6.270   7.336   0.228 -1.8704 -0.4147  1.1787
  139MOL    C3227908   6.204   7.159   0.193 -0.3553  0.9063 -0.4125
  139MOL    O3327909   6.210   7.039   0.216  0.2050  0.1097  0.1611
  139MOL    C3427910   6.091   7.223   0.113  0.1402 -0.2229  0.3437
  139MOL    C3527911   5.983   7.124   0.070  0.3401  0.7452  0.5844
  139MOL    N3627912   5.870   7.190   0.006 -0.5266  0.2169  0.5360
  139MOL    H3727913   6.139   7.273   0.029  0.1026  4.0590  2.7178
  139MOL    H3827914   6.051   7.301   0.178 -0.5576 -1.5301  1.5194
  139MOL    H3927915   6.028   7.057   7.777 -0.4884 -1.6346  2.1940
  139MOL    H4027916   5.956   7.061   0.154  2.0267  0.0265  0.6030
  139MOL    H4127917   5.893   7.278   7.743  0.8401  0.0817  0.9557
  139MOL    C4227918   5.757   7.132   7.749  0.0323 -0.1465 -0.1868
  139MOL    O4327919   5.730   7.021   0.003  0.0044  0.0285 -0.5496
  139MOL    C4427920   5.649   7.221   7.681 -0.6039  0.5707  0.1929
  139MOL    C4527921   5.547   7.288   0.002 -0.7975  1.0008 -0.0726
  139MOL    N4627922   5.422   7.305   7.709  0.0978 -0.0211 -0.0869
  139MOL    H4727923   5.690   7.302   7.622 -0.3281  1.6950  1.8905
  139MOL    H4827924   5.598   7.152   7.613  0.7614  1.4362 -1.7526
  139MOL    H4927925   5.520   7.211   0.074 -0.7057  1.6433  0.6560
  139MOL    H5027926   5.580   7.380   0.051  2.2552 -1.5434  2.7887
  139MOL    H5127927   5.359   7.227   7.722 -0.8129  1.1134  2.4910
  139MOL    C5227928   5.372   7.406   7.633  0.3739 -0.5695  0.2339
  139MOL    O5327929   5.434   7.511   7.619 -0.3192  0.0610  0.5987
  139MOL    C5427930   5.232   7.386   7.574 -0.5605  0.2302  0.4370
  139MOL    C5527931   5.170   7.529   7.555 -0.3072 -0.3041 -0.2678
  139MOL    N5627932   5.039   7.513   7.498 -0.9338  0.1631 -0.4795
  139MOL    H5727933   5.238   7.334   7.478  0.0316  0.9683  0.0761
  139MOL    H5827934   5.169   7.326   7.641 -0.5840  0.9521  1.0661
  139MOL    H5927935   5.237   7.591   7.495  1.4858 -1.8287  0.0995
  139MOL    H6027936   5.162   7.581   7.650  0.5543  0.9096 -0.8425
  139MOL    H6127937   4.965   7.500   7.566 -2.5096 -0.5185 -2.2661
  139MOL    C6227938   5.000   7.530   7.372 -0.1462  0.0655  0.2255
  139MOL    O6327939   5.074   7.562   7.280 -0.5156  0.0958  0.0660
  139MOL    C6427940   4.853   7.505   7.345  0.2933  0.2121 -0.6531
  139MOL    C6527941   4.825   7.444   7.202 -0.0581  0.0803  0.4657
  139MOL    N6627942   4.680   7.427   7.187  0.1874  0.5974  0.0871
  139MOL    H6727943   4.830   7.421   7.411 -0.8129 -1.4480 -3.1237
  139MOL    H6827944   4.803   7.596   7.379 -1.3731 -1.1838  0.7371
  139MOL    H6927945   4.868   7.504   7.122 -0.3626 -0.2523  0.0475
  139MOL    H7027946   4.857   7.340   7.196  0.1303  0.1375  0.4781
  139MOL    H7127947   4.619   7.391   7.259 -0.3493 -0.4487 -0.8635
  139MOL    C7227948   4.617   7.476   7.077 -0.0126 -0.2084 -0.3567
  139MOL    O7327949   4.672   7.537   6.985  0.8203 -0.0092  0.0796
  139MOL    C7427950   4.458   7.487   7.078  0.2765  0.0417 -0.5329
  139MOL    C7527951   4.389   7.414   6.953 -0.2339 -0.0670  0.1112
  139MOL    N7627952   4.409   7.264   6.955 -0.0535  0.1728 -0.8974
  139MOL    H7727953   4.410   7.440   7.164  2.1220  2.0573  1.6867
  139MOL    H7827954   4.435   7.594   7.077 -0.9424 -0.2231 -2.8774
  139MOL    H7927955   4.285   7.445   6.949  0.8023  3.7625  0.8365
  139MOL    H8027956   4.430   7.454   6.861  1.7205  1.2069  1.4875
  139MOL    H8127957   4.482   7.228   6.896  0.7604  1.6824 -0.8219
  139MOL    C8227958   4.341   7.181   7.036 -0.2548 -0.1392  0.8071
  139MOL    O8327959   4.250   7.226   7.109  0.3661 -0.3361  0.2673
  139MOL    C8427960   4.384   7.038   7.041 -0.3150  1.2210 -1.0873
  139MOL    C8527961   4.304   6.951   7.144 -0.3620  0.6309 -0.2426
  139MOL    N8627962   4.372   6.825   7.155 -0.1677  0.0942  0.0051
  139MOL    H8727963   4.370   6.999   6.940 -1.6536 -2.2586  0.3559
  139MOL    H8827964   4.490   7.045   7.061  0.1224 -2.2228 -1.8291
  139MOL    H8927965   4.272   7.002   7.234 -1.9697  0.2329 -0.5679
  139MOL    H9027966   4.212   6.936   7.088 -2.1756  0.1508  2.7550
  139MOL    H9127967   4.399   6.785   7.066 -0.7367 -0.1380 -0.0649
  139MOL    C9227968   4.395   6.756   7.263 -1.0470  0.2085 -0.1504
  139MOL    O9327969   4.347   6.785   7.370 -0.1758 -0.2935 -0.8314
  139MOL    C9427970   4.505   6.653   7.260 -0.2467  0.0940  0.0894
  139MOL    C9527971   4.468   6.530   7.178 -1.1417  0.0338  0.2608
  139MOL    N9627972   4.583   6.461   7.116 -0.1224  0.5924 -0.0654
  139MOL    H9727973   4.594   6.704   7.223 -1.1645  0.4418 -1.6612
  139MOL    H9827974   4.524   6.625   7.364  4.7077 -2.4137 -1.3052
  139MOL    H9927975   4.404   6.472   7.244  1.7432 -2.3678  1.0698
  139MOL   H10027976   4.413   6.562   7.089 -1.2475 -0.7193  0.0523
  139MOL   H10127977   4.606   6.371   7.156  2.1166  2.1247  2.2515
  139MOL   C10227978   4.656   6.520   7.019  0.4885 -0.1994  0.0049
  139MOL   O10327979   4.628   6.631   6.979  0.1844  0.0654  0.0233
  139MOL   C10427980   4.778   6.446   6.965  0.2566 -0.0260 -0.2577
  139MOL   C10527981   4.818   6.460   6.812 -0.2902  0.1884 -0.1674
  139MOL   N10627982   4.714   6.411   6.727 -0.1647 -0.2803 -0.1628
  139MOL   H10727983   4.748   6.342   6.976 -0.4887  0.2591  0.4375
  139MOL   H10827984   4.857   6.470   7.037 -1.9750 -1.2765  2.7301
  139MOL   H10927985   4.843   6.564   6.789 -1.8832  0.3081 -1.4370
  139MOL   H11027986   4.908   6.399   6.815  0.6807  1.6166  0.6202
  139MOL   H11127987   4.622   6.451   6.737 -0.2175 -0.4754  0.1161
  139MOL   C11227988   4.732   6.353   6.606 -0.2829  0.2571  0.3532
  139MOL   O11327989   4.838   6.323   6.555 -0.1673  0.6221  0.3961
  139MOL   C11427990   4.614   6.326   6.518  0.2838 -0.0607  0.5211
  139MOL   C11527991   4.568   6.425   6.410 -0.4429  0.5279 -0.5727
  139MOL   N11627992   4.526   6.556   6.465  0.0923  0.0731 -0.0420
  139MOL   H11727993   4.528   6.303   6.582 -1.0853 -0.4366 -1.4009
  139MOL   H11827994   4.628   6.232   6.464 -0.9734  0.0429 -0.0089
  139MOL   H11927995   4.657   6.444   6.350 -0.5480 -0.1621 -0.9537
  139MOL   H12027996   4.486   6.387   6.349 -0.1637 -0.6908 -0.1961
  139MOL   H12127997   4.549   6.635   6.406 -1.6783  0.1258 -0.7044
  139MOL   C12227998   4.446   6.588   6.571  0.3082 -0.0824 -0.3698
  139MOL   O12327999   4.396   6.498   6.642 -0.0165  0.6670  0.1724
  139MOL   C12428000   4.412   6.734   6.594  0.5631 -0.4283 -0.2038
  139MOL   C12528001   4.264   6.753   6.562 -0.0768  0.4282  0.0883
  139MOL   N12628002   4.213   6.883   6.605 -0.2972 -0.5348 -0.8773
  139MOL   H12728003   4.468   6.799   6.528 -0.3259  1.6967  1.1035
  139MOL   H12828004   4.445   6.769   6.692  0.0580 -3.8593  1.2815
  139MOL   H12928005   4.247   6.751   6.455  2.1172 -1.9026 -0.2722
  139MOL   H13028006   4.196   6.676   6.599 -0.9208  1.1925  0.1456
  139MOL   H13128007   4.208   6.945   6.526  1.0697  1.4576  0.5645
  139MOL   C13228008   4.174   6.914   6.728  0.7153  0.1318 -0.7222
  139MOL   O13328009   4.157   6.831   6.814  0.5092  0.2317 -0.2328
  139MOL   C13428010   4.123   7.052   6.763  0.1546  0.0315  0.4405
  139MOL   C13528011   4.010   7.053   6.861  0.1171 -0.3543 -1.1424
  139MOL   N13628012   3.889   6.996   6.793 -1.1507  0.3362 -0.1754
  139MOL   H13728013   4.102   7.101   6.668  0.7893 -0.2816  0.1357
  139MOL   H13828014   4.217   7.095   6.798  0.2817 -0.2070  0.3901
  139MOL   H13928015   4.040   7.009   6.956 -2.0761  1.5792  0.4739
  139MOL   H14028016   3.993   7.153   6.899 -2.0872 -1.1295  0.0087
  139MOL   H14128017   3.866   6.900   6.814  0.0345  0.1481  0.3144
  139MOL   C14228018   3.811   7.060   6.702  0.4784 -0.4964  0.4900
  139MOL   O14328019   3.835   7.174   6.670  0.4208  0.1169 -0.3638
  139MOL   C14428020   3.687   6.991   6.649 -0.2148  0.0004 -0.1788
  139MOL   C14528021   3.630   7.050   6.518 -0.0879 -0.0296 -0.6371
  139MOL   N14628022   3.603   7.196   6.535  0.1144 -0.2579  0.1148
  139MOL   H14728023   3.598   7.002   6.711 -1.5288 -0.0595 -1.9881
  139MOL   H14828024   3.712   6.889   6.618 -0.8853 -0.6360  1.3633
  139MOL   H14928025   3.689   7.015   6.434 -2.0781 -2.1167 -1.1928
  139MOL   H15028026   3.536   6.998   6.502 -0.6468  0.8951 -0.4037
  139MOL   H15128027   3.669   7.250   6.589 -0.3158  0.8587 -0.4730
  139MOL   C15228028   3.502   7.269   6.478 -0.0907 -0.5400 -0.3695
  139MOL   O15328029   3.404   7.218   6.424  0.4365 -0.1338  0.0125
  139MOL   C15428030   3.507   7.425   6.485  0.0912  0.0810  0.1113
  139MOL   C15528031   3.372   7.494   6.508 -0.4611  0.3472  0.8517
  139MOL   N15628032   3.359   7.621   6.440 -0.4047 -0.5604 -0.3081
  139MOL   H15728033   3.555   7.452   6.391  1.6209  1.3945  1.2474
  139MOL   H15828034   3.583   7.453   6.558  0.1759 -0.0417  0.0718
  139MOL   H15928035   3.292   7.425   6.485  0.9737 -1.6610  1.6608
  139MOL   H16028036   3.349   7.511   6.613  0.0453  0.2625  0.9797
  139MOL   H16128037   3.442   7.678   6.434 -0.5726 -0.1024  1.3754
  139MOL   C16228038   3.246   7.684   6.397  0.1798  0.6753  0.4531
  139MOL   O16328039   3.132   7.650   6.433  0.2723 -0.0905 -0.8601
  139MOL   C16428040   3.266   0.022   6.305 -0.1339  0.0868 -0.2863
  139MOL   C16528041   3.137   0.085   6.241  0.1577 -0.1486 -0.6975
  139MOL   N16628042   3.149   0.226   6.201  0.1593  0.5944  0.0357
  139MOL   H16728043   3.351   0.027   6.237  0.0872  1.4127  0.0516
  139MOL   H16828044   3.284   0.083   6.394  0.9833 -2.1930  1.0912
  139MOL   H16928045   3.094   0.026   6.160  0.2525 -1.6560  0.3249
  139MOL   H17028046   3.059   0.075   6.316  3.2584 -2.0178  2.4577
  139MOL   H17128047   3.242   0.263   6.186  0.8439 -1.4312 -0.9242
  139MOL   C17228048   3.044   0.305   6.178 -0.8140 -0.1110 -0.1330
  139MOL   O17328049   2.930   0.263   6.178 -0.6799 -0.2781 -0.1174
  139MOL   C17428050   3.068   0.455   6.152 -0.6072  0.1275 -0.2456
  139MOL   C17528051   3.011   0.509   6.019  0.1335 -0.0663  0.2525
  139MOL   N17628052   2.875   0.566   6.017 -0.6760  0.1467 -0.1502
  139MOL   H17728053   3.177   0.453   6.163 -0.7382  0.0597  1.1268
  139MOL   H17828054   3.027   0.513   6.235  1.4141  0.5940  0.4642
  139MOL   H17928055   3.066   0.590   5.972 -0.6798  0.9973  1.1000
  139MOL   H18028056   2.996   0.425   5.951 -0.4022  0.7100 -0.6035
  139MOL   H18128057   2.851   0.640   6.081  0.5001  0.2711  0.1691
  139MOL   C18228058   2.771   0.519   5.950 -0.3490 -0.1457  0.5109
  139MOL   O18328059   2.783   0.444   5.853 -0.8192 -0.2493 -0.4844
  139MOL   C18428060   2.631   0.555   6.002 -0.3074 -0.2417  0.4799
  139MOL   C18528061   2.535   0.427   6.015 -0.5144  0.1915 -0.4883
  139MOL   N18628062   2.485   0.372   5.890 -0.3147 -0.1064  0.0091
  139MOL   H18728063   2.580   0.633   5.945 -2.0530 -0.7074  1.3698
  139MOL   H18828064   2.647   0.590   6.105 -3.6172 -0.0926  0.9796
  139MOL   H18928065   2.580   0.344   6.069 -1.9086  0.0911  0.5290
  139MOL   H19028066   2.450   0.472   6.068  0.1942  0.2286  0.6485
  139MOL   H19128067   2.549   0.357   5.813 -1.9799 -1.8198 -1.0811
  139MOL   C19228068   2.365   0.373   5.846 -0.4015 -0.0360  0.2559
  139MOL   O19328069   2.268   0.416   5.906  0.1123 -0.0373  0.1495
  139MOL   C19428070   2.342   0.305   5.707 -0.7213 -0.6404  0.3730
  139MOL   C19528071   2.201   0.300   5.636 -0.7361  0.0805  0.8196
  139MOL   N19628072   2.101   0.221   5.701  1.1161  0.2758  0.0710
  139MOL   H19728073   2.405   0.353   5.632  0.3811 -1.7614  0.5724
  139MOL   H19828074   2.379   0.203   5.711 -1.0875 -0.7271  1.6324
  139MOL   H19928075   2.168   0.400   5.608  3.7334  0.8036 -2.4410
  139MOL   H20028076   2.221   0.254   5.540  1.3406 -1.2802  1.8617
  139MOL   H20128077   2.130   0.127   5.724 -0.0109 -0.6903 -2.3109
  139MOL   H20228078   2.087   0.263   5.792  0.4181 -0.6977  0.4277
  140MOL     C128079   2.852   2.278   6.667 -0.7727 -0.2310  0.7993
  140MOL     O228080   2.837   2.375   6.592 -0.0481  0.1801  0.3310
  140MOL     C328081   2.969   2.181   6.659  0.4202 -0.2269  0.6917
  140MOL     C428082   3.080   2.226   6.565 -0.2291  0.1752  0.1809
  140MOL     N528083   3.188   2.131   6.565 -0.2344 -0.3854  0.6250
  140MOL     H628084   2.926   2.089   6.622  0.1189 -0.0287  0.5484
  140MOL     H728085   3.003   2.164   6.761 -0.2902 -0.9989  0.7965
  140MOL     H828086   3.115   2.321   6.603  0.1913  0.3114 -0.5375
  140MOL     H928087   3.040   2.250   6.467  0.0916  0.4526  0.1196
  140MOL    H1028088   3.272   2.147   6.619 -1.1526  1.8033  1.4830
  140MOL    H1128089   2.788   2.253   6.751  0.8228  0.7467  2.3398
  140MOL    C1228090   3.203   2.038   6.471  0.3116  0.0882  0.0017
  140MOL    O1328091   3.120   2.010   6.381 -0.0970 -0.2884 -0.8132
  140MOL    C1428092   3.325   1.949   6.484  0.1843 -0.5235  0.7893
  140MOL    C1528093   3.404   1.919   6.355  0.4535 -0.1331  0.0601
  140MOL    N1628094   3.472   2.036   6.305 -0.0584  0.0062  0.4208
  140MOL    H1728095   3.279   1.854   6.513 -3.1191  0.3876 -1.2562
  140MOL    H1828096   3.384   1.980   6.571  1.2767  0.7218 -0.3793
  140MOL    H1928097   3.481   1.844   6.372  2.5843  1.7272 -0.9981
  140MOL    H2028098   3.331   1.904   6.276 -0.0530  1.6610  0.1707
  140MOL    H2128099   3.416   2.110   6.267 -1.5687 -1.0438  0.5770
  140MOL    C2228100   3.602   2.048   6.282  0.1934 -0.1976 -0.2369
  140MOL    O2328101   3.688   1.962   6.315  0.0542 -0.2092 -0.2747
  140MOL    C2428102   3.647   2.177   6.214 -0.1642 -0.1495  0.3271
  140MOL    C2528103   3.634   2.163   6.063  0.4610  0.4019  1.1032
  140MOL    N2628104   3.677   2.283   5.992 -0.2556 -0.0217  0.6851
  140MOL    H2728105   3.747   2.213   6.235 -0.9922  3.3266 -1.3293
  140MOL    H2828106   3.583   2.249   6.265  0.8683  0.7271  0.3969
  140MOL    H2928107   3.702   2.085   6.029 -0.5332  0.9908 -2.4775
  140MOL    H3028108   3.532   2.154   6.027  0.9736  0.4001 -0.3982
  140MOL    H3128109   3.737   2.264   5.913  0.9448  2.6184  0.9144
  140MOL    C3228110   3.635   2.409   6.019 -0.9469 -0.3545 -0.8383
  140MOL    O3328111   3.579   2.437   6.121 -0.6868  0.0247  0.8952
  140MOL    C3428112   3.681   2.525   5.928 -0.1625 -0.6157 -0.3476
  140MOL    C3528113   3.560   2.616   5.886  0.6679 -0.7591 -0.0094
  140MOL    N3628114   3.600   2.741   5.822 -0.1703 -0.1256  0.7293
  140MOL    H3728115   3.714   2.469   5.840 -1.0743 -1.6694 -0.0301
  140MOL    H3828116   3.765   2.589   5.955 -1.7012  1.4810 -0.3623
  140MOL    H3928117   3.485   2.559   5.831  1.2759 -0.7860 -0.8240
  140MOL    H4028118   3.509   2.645   5.978 -1.4695  0.5288 -1.5516
  140MOL    H4128119   3.607   2.747   5.721  1.4260  3.4039  0.9621
  140MOL    C4228120   3.647   2.851   5.885  0.2258 -0.2308  0.2457
  140MOL    O4328121   3.671   2.846   6.008  0.0617 -0.5987 -0.1481
  140MOL    C4428122   3.694   2.971   5.799  0.1353  0.1823 -0.2357
  140MOL    C4528123   3.698   3.106   5.871  0.5170  0.3984 -0.2767
  140MOL    N4628124   3.566   3.158   5.905 -0.1170 -0.4001 -0.4008
  140MOL    H4728125   3.795   2.944   5.768  0.8419 -0.9436  2.8216
  140MOL    H4828126   3.632   2.972   5.709 -0.9442  2.4573  0.5010
  140MOL    H4928127   3.756   3.101   5.963  1.2820  1.2492 -0.7047
  140MOL    H5028128   3.753   3.185   5.819  0.4664  0.0373 -0.8845
  140MOL    H5128129   3.535   3.150   6.001  0.7413  1.1146  0.0303
  140MOL    C5228130   3.479   3.207   5.809 -0.5287  0.5931 -0.4031
  140MOL    O5328131   3.507   3.205   5.687  0.4838 -0.5002  0.1609
  140MOL    C5428132   3.342   3.255   5.852  0.3972 -0.1341  0.4279
  140MOL    C5528133   3.295   3.380   5.777  0.4689  0.0059 -0.1904
  140MOL    N5628134   3.164   3.441   5.820  0.8067  0.0439 -0.7806
  140MOL    H5728135   3.269   3.179   5.826 -1.0622  1.3457  0.1000
  140MOL    H5828136   3.329   3.254   5.961  0.1952 -0.6156  0.3987
  140MOL    H5928137   3.308   3.363   5.671  1.6084  0.2637 -0.1037
  140MOL    H6028138   3.369   3.457   5.799  0.4944  0.1995 -0.9616
  140MOL    H6128139   3.098   3.378   5.864  2.5765 -1.1368  0.2120
  140MOL    C6228140   3.135   3.567   5.849  0.4171 -0.4389 -0.3177
  140MOL    O6328141   3.214   3.654   5.821 -0.3570 -0.5533 -0.0095
  140MOL    C6428142   3.013   3.595   5.942  0.3112  0.4499  0.2417
  140MOL    C6528143   3.009   3.732   6.014 -0.0103 -0.3492  0.3001
  140MOL    N6628144   3.004   3.722   6.157  0.0024 -0.1656 -0.4898
  140MOL    H6728145   2.918   3.584   5.889  0.8119  0.9488 -0.7652
  140MOL    H6828146   3.028   3.515   6.014 -0.8036  0.0438  0.0294
  140MOL    H6928147   3.091   3.800   5.990 -0.1071  0.0422  1.0650
  140MOL    H7028148   2.918   3.780   5.978 -1.5518 -1.9796  1.9093
  140MOL    H7128149   3.097   3.717   6.196 -1.0709 -1.9157  1.9531
  140MOL    C7228150   2.897   3.742   6.230 -0.4665  0.7414 -0.0234
  140MOL    O7328151   2.799   3.783   6.167  0.2769  0.5479  0.1183
  140MOL    C7428152   2.903   3.742   6.387 -0.9539  0.0576  0.1225
  140MOL    C7528153   2.790   3.826   6.455 -0.6390  0.0791 -0.0437
  140MOL    N7628154   2.665   3.750   6.465  0.1481 -0.8302 -0.0568
  140MOL    H7728155   2.900   3.637   6.415 -2.6010  0.7334  2.6426
  140MOL    H7828156   3.001   3.786   6.407 -1.7230  0.5269  3.0906
  140MOL    H7928157   2.822   3.856   6.555  1.1296 -0.5501 -0.3927
  140MOL    H8028158   2.787   3.921   6.403  0.9865  0.4195  0.4389
  140MOL    H8128159   2.668   3.652   6.442  1.8209 -0.3447 -2.0100
  140MOL    C8228160   2.554   3.786   6.533 -0.3341 -0.6487  0.4624
  140MOL    O8328161   2.542   3.895   6.577  0.6643 -0.0556 -0.7094
  140MOL    C8428162   2.441   3.687   6.538  0.6689 -0.3167 -0.5498
  140MOL    C8528163   2.387   3.659   6.678  0.1235 -0.2901 -0.2596
  140MOL    N8628164   2.303   3.547   6.691  0.1957  0.9567  0.1193
  140MOL    H8728165   2.352   3.716   6.483 -0.0796 -0.9666  0.3082
  140MOL    H8828166   2.480   3.594   6.497  1.0433  0.2776 -1.5437
  140MOL    H8928167   2.478   3.626   6.729 -0.2450 -0.7422  0.1089
  140MOL    H9028168   2.340   3.744   6.726  1.1384 -0.7191  1.5540
  140MOL    H9128169   2.296   3.478   6.617  0.7474  0.0470  0.9046
  140MOL    C9228170   2.227   3.516   6.798 -0.0615 -0.2133  0.2972
  140MOL    O9328171   2.237   3.581   6.900 -0.0026  0.5408 -0.4029
  140MOL    C9428172   2.127   3.409   6.781  0.0914 -0.6416 -0.2211
  140MOL    C9528173   1.989   3.463   6.843 -0.8844 -0.1912  0.0651
  140MOL    N9628174   1.879   3.368   6.833 -0.0350  0.2217 -0.1887
  140MOL    H9728175   2.111   3.381   6.677 -0.4419  0.1272 -0.3474
  140MOL    H9828176   2.171   3.317   6.820  0.7123  0.6074  2.1168
  140MOL    H9928177   2.009   3.495   6.945  0.1432  1.3488 -0.6025
  140MOL   H10028178   1.966   3.556   6.790  4.1226  0.3531 -1.4465
  140MOL   H10128179   1.909   3.272   6.838 -0.1492  0.1110 -1.4737
  140MOL   C10228180   1.750   3.393   6.813 -0.4885 -0.6426 -0.5193
  140MOL   O10328181   1.707   3.510   6.829 -0.3266  0.0629  0.0395
  140MOL   C10428182   1.652   3.277   6.772 -0.5787  0.7089 -0.4872
  140MOL   C10528183   1.600   3.294   6.630  0.8322  0.2476 -0.1082
  140MOL   N10628184   1.548   3.173   6.566  0.4256  0.5791 -0.7004
  140MOL   H10728185   1.574   3.269   6.848 -0.3402  2.0239 -0.0996
  140MOL   H10828186   1.703   3.180   6.779  1.8444  1.8338 -1.9638
  140MOL   H10928187   1.516   3.363   6.638 -1.0962 -1.6438 -2.7747
  140MOL   H11028188   1.670   3.344   6.563  0.3431  0.9610 -0.0948
  140MOL   H11128189   1.603   3.153   6.484  0.9136  2.0604 -0.7590
  140MOL   C11228190   1.449   3.105   6.625 -0.0301  0.5507 -0.2137
  140MOL   O11328191   1.385   3.150   6.722 -1.4053  0.0994 -0.2352
  140MOL   C11428192   1.409   2.964   6.571  0.5060  0.5163 -0.1159
  140MOL   C11528193   1.482   2.844   6.636  0.1952 -0.2123 -0.2993
  140MOL   N11628194   1.623   2.829   6.591 -0.4587  0.0947 -0.6626
  140MOL   H11728195   1.425   2.963   6.463  1.6504  1.8440  0.0238
  140MOL   H11828196   1.303   2.947   6.593 -0.2219  2.7350 -1.7148
  140MOL   H11928197   1.468   2.847   6.744  1.0004  0.4588 -0.2108
  140MOL   H12028198   1.431   2.754   6.601  1.2586 -0.9529  0.0202
  140MOL   H12128199   1.649   2.890   6.515  1.2137 -1.0682 -1.0580
  140MOL   C12228200   1.708   2.746   6.651 -0.3519  0.6624 -0.2030
  140MOL   O12328201   1.661   2.673   6.736  0.2223 -0.6304  0.5346
  140MOL   C12428202   1.852   2.748   6.605  0.0625 -0.2141 -0.3487
  140MOL   C12528203   1.939   2.647   6.671  0.0833  0.0526 -0.0557
  140MOL   N12628204   2.061   2.617   6.598 -0.1018  0.5017  0.4262
  140MOL   H12728205   1.887   2.847   6.634 -0.9843  0.5739 -1.7045
  140MOL   H12828206   1.853   2.750   6.496  0.9380 -2.0228 -0.3947
  140MOL   H12928207   1.962   2.673   6.775 -0.4244  1.8931 -0.3777
  140MOL   H13028208   1.878   2.558   6.681  0.1908  0.1197  1.3462
  140MOL   H13128209   2.139   2.680   6.607 -0.4845  0.7861  1.7755
  140MOL   C13228210   2.059   2.529   6.495 -0.2010  0.5206  0.1174
  140MOL   O13328211   1.963   2.465   6.458 -0.0067  0.1327 -0.0634
  140MOL   C13428212   2.193   2.521   6.417 -0.4447  0.1280 -0.2140
  140MOL   C13528213   2.194   2.606   6.289 -0.9615 -0.3468  0.0453
  140MOL   N13628214   2.294   2.720   6.294 -0.6874  0.1075  0.0452
  140MOL   H13728215   2.207   2.414   6.402 -1.0599 -0.2415  1.7601
  140MOL   H13828216   2.276   2.549   6.482  1.0479 -0.3261 -1.8610
  140MOL   H13928217   2.239   2.544   6.212  0.2741  0.5758  0.0015
  140MOL   H14028218   2.097   2.632   6.247  0.1059  1.8423 -1.2379
  140MOL   H14128219   2.354   2.729   6.375 -0.6773 -0.3927  0.0965
  140MOL   C14228220   2.318   2.797   6.192  0.3296 -0.5578 -0.0899
  140MOL   O14328221   2.259   2.791   6.087  0.2057 -0.2183  0.0186
  140MOL   C14428222   2.425   2.907   6.207  0.0102  0.1420  0.4977
  140MOL   C14528223   2.555   2.881   6.125 -0.5881 -0.0201 -0.1958
  140MOL   N14628224   2.628   2.774   6.170 -0.2569 -0.1429 -0.0977
  140MOL   H14728225   2.461   2.910   6.310 -1.2099 -1.4626  0.9976
  140MOL   H14828226   2.393   3.007   6.176  1.0327 -0.0531 -1.2269
  140MOL   H14928227   2.539   2.843   6.024 -3.4140 -0.1788  0.2756
  140MOL   H15028228   2.614   2.970   6.105  1.5841 -1.8816 -2.2848
  140MOL   H15128229   2.609   2.680   6.137 -0.6277 -0.5900  1.3317
  140MOL   C15228230   2.738   2.789   6.240 -0.4647  0.6805  0.1564
  140MOL   O15328231   2.772   2.906   6.272 -0.1369  0.2946 -0.6750
  140MOL   C15428232   2.820   2.660   6.271 -0.5787 -0.1325 -0.6635
  140MOL   C15528233   2.972   2.681   6.280 -0.3874 -0.1552 -0.3941
  140MOL   N15628234   3.010   2.763   6.393 -0.0266  0.3483 -0.4566
  140MOL   H15728235   2.810   2.581   6.197 -0.1938  0.7696 -1.6974
  140MOL   H15828236   2.776   2.624   6.364 -0.2261  1.4440  0.1292
  140MOL   H15928237   3.023   2.585   6.286  1.4822  0.8757  0.7152
  140MOL   H16028238   3.013   2.731   6.191  1.0859 -1.9920 -0.7747
  140MOL   H16128239   3.032   2.859   6.374 -1.0353  0.8269  0.8059
  140MOL   C16228240   3.062   2.710   6.506 -0.5728 -0.3871 -0.7284
  140MOL   O16328241   3.083   2.592   6.513 -0.1256  0.2194 -0.6232
  140MOL   C16428242   3.094   2.810   6.621  0.3535  0.4486 -0.5385
  140MOL   C16528243   3.196   2.773   6.725 -0.2615  0.4357  0.1111
  140MOL   N16628244   3.156   2.645   6.785 -0.2922  0.5224  0.3455
  140MOL   H16728245   3.008   2.845   6.679 -0.1410 -0.3306 -0.8012
  140MOL   H16828246   3.117   2.902   6.567 -0.8492  1.1283  0.0895
  140MOL   H16928247   3.292   2.767   6.675 -0.0744 -0.6057  0.5713
  140MOL   H17028248   3.200   2.837   6.814  1.3900 -0.3676  0.6337
  140MOL   H17128249   3.088   2.597   6.728  0.1003  2.0484 -1.4491
  140MOL   C17228250   3.223   2.574   6.876  0.2997  0.0476  0.0594
  140MOL   O17328251   3.327   2.616   6.923  0.3282 -0.4298  0.2063
  140MOL   C17428252   3.163   2.439   6.914  0.0970  0.3123  0.2241
  140MOL   C17528253   3.258   2.340   6.995  0.3339 -0.5930 -0.2584
  140MOL   N17628254   3.304   2.382   7.131  0.2881  0.7040  0.0880
  140MOL   H17728255   3.119   2.381   6.832  1.7419  0.0723 -0.5140
  140MOL   H17828256   3.080   2.471   6.977 -1.6092 -1.2362 -1.1701
  140MOL   H17928257   3.201   2.250   7.016 -3.1056  1.2630 -1.3601
  140MOL   H18028258   3.347   2.313   6.938 -0.9684 -1.8344 -1.7315
  140MOL   H18128259   3.389   2.437   7.128  0.5251  0.3807  0.7008
  140MOL   C18228260   3.245   2.356   7.248 -0.8505  0.1882  0.5198
  140MOL   O18328261   3.145   2.292   7.249 -0.2713  0.1616  0.5255
  140MOL   C18428262   3.314   2.403   7.373  0.3205  0.2078 -0.1458
  140MOL   C18528263   3.263   2.326   7.500 -0.0431 -0.3334 -0.8586
  140MOL   N18628264   3.370   2.337   7.597  0.1402  0.0809 -0.3842
  140MOL   H18728265   3.310   2.511   7.390 -2.8811  0.2880 -1.0011
  140MOL   H18828266   3.419   2.379   7.359  0.1478 -1.4833  1.3483
  140MOL   H18928267   3.176   2.374   7.543 -0.5961 -0.8565 -1.3858
  140MOL   H19028268   3.232   2.226   7.469 -0.7518 -0.6003  0.6687
  140MOL   H19128269   3.392   2.430   7.628  0.0632 -0.1208  0.2762
  140MOL   C19228270   3.390   2.234   7.684  0.2893 -0.0790 -0.0375
  140MOL   O19328271   3.346   2.120   7.662  0.4254 -0.9889  0.2780
  140MOL   C19428272   3.480   2.261   0.031  0.5401  0.0431  0.1425
  140MOL   C19528273   3.576   2.148   0.079 -0.1697 -0.0978  0.3979
  140MOL   N19628274   3.508   2.025   0.121  0.5078 -0.1400  0.2676
  140MOL   H19728275   3.529   2.357   0.012 -0.8387  0.5856 -0.7580
  140MOL   H19828276   3.404   2.289   0.104  0.0958  2.0676 -1.0562
  140MOL   H19928277   3.664   2.132   0.016  0.7245 -1.6917  1.9984
  140MOL   H20028278   3.628   2.172   0.173 -0.4350 -1.6970  0.9656
  140MOL   H20128279   3.588   1.973   0.152  0.5563  0.9304  1.9925
  140MOL   H20228280   3.476   1.985   0.034 -0.1598  0.5091  0.2055
  141MOL     C128281   7.586   5.597   5.042 -0.2960  0.9057 -0.1852
  141MOL     O228282   7.495   5.520   5.033  0.6138 -0.2744  0.3668
  141MOL     C328283   7.699   5.589   5.147 -0.3385 -0.9750 -0.1491
  141MOL     C428284   7.715   5.462   5.233  0.2549  0.0328  0.1449
  141MOL     N528285   7.604   5.442   5.324  0.8478 -0.1105 -0.3114
  141MOL     H628286   7.695   5.670   5.221  1.1042  0.9459 -2.1039
  141MOL     H728287   0.010   5.591   5.088  0.7384 -0.8285  1.4733
  141MOL     H828288   0.026   5.472   5.291  0.4300 -1.7902  0.2161
  141MOL     H928289   7.739   5.385   5.159  1.7715  0.0274  0.6308
  141MOL    H1028290   7.557   5.354   5.313 -0.4517  0.5006  0.2784
  141MOL    H1128291   7.603   5.689   4.986 -0.7834 -0.4712 -2.6850
  141MOL    C1228292   7.585   5.510   5.437  0.0927 -0.6506  0.2526
  141MOL    O1328293   7.630   5.622   5.454 -0.0717  0.4948  0.0688
  141MOL    C1428294   7.495   5.454   5.548 -0.4963  0.2120 -0.2027
  141MOL    C1528295   7.417   5.563   5.618  1.0630  0.0084  0.3940
  141MOL    N1628296   7.330   5.497   5.716 -0.2129 -0.2960 -0.3897
  141MOL    H1728297   7.571   5.411   5.613 -1.3450 -0.5989  0.2596
  141MOL    H1828298   7.438   5.373   5.501 -0.4611 -0.0454  0.1962
  141MOL    H1928299   7.492   5.628   5.665 -0.0816  0.2433  1.9584
  141MOL    H2028300   7.359   5.631   5.556 -0.3020 -0.3902  1.2078
  141MOL    H2128301   7.332   5.397   5.724 -0.5787 -0.1657  1.5647
  141MOL    C2228302   7.255   5.569   5.802  0.4534  0.0480 -0.1929
  141MOL    O2328303   7.255   5.691   5.809 -0.1332 -0.3388 -0.2176
  141MOL    C2428304   7.160   5.486   5.891 -0.0104 -0.5732 -0.3309
  141MOL    C2528305   7.082   5.563   6.008 -0.2516  0.3027  0.4589
  141MOL    N2628306   6.977   5.653   5.960 -0.3519  0.0707 -0.3149
  141MOL    H2728307   7.228   5.410   5.930  1.8028  1.2430  0.1495
  141MOL    H2828308   7.081   5.441   5.831 -0.2200 -1.4397  0.5786
  141MOL    H2928309   7.045   5.488   6.078  1.0551 -2.5169 -1.7673
  141MOL    H3028310   7.143   5.622   6.077  2.3503 -1.2550 -0.4076
  141MOL    H3128311   6.985   5.700   5.871 -1.2718  1.0330  0.0933
  141MOL    C3228312   6.859   5.684   6.022  0.1991 -0.0209 -0.0925
  141MOL    O3328313   6.819   5.632   6.123 -0.2215  0.3179  0.0886
  141MOL    C3428314   6.773   5.793   5.961 -0.3432  0.7621  0.4215
  141MOL    C3528315   6.701   5.884   6.062  0.5663  0.7104  0.2460
  141MOL    N3628316   6.614   5.970   5.984  0.2298  0.7882 -0.1520
  141MOL    H3728317   6.711   5.739   5.889 -0.3127  0.3535  0.7075
  141MOL    H3828318   6.839   5.859   5.903 -1.1114  0.5152 -0.7621
  141MOL    H3928319   6.655   5.824   6.140  1.4553 -1.9810 -1.2289
  141MOL    H4028320   6.773   5.956   6.099  0.9860  0.6129 -0.3725
  141MOL    H4128321   6.517   5.961   6.010  0.3416 -0.3187 -0.1027
  141MOL    C4228322   6.641   6.075   5.908  0.5869 -1.1578  0.6113
  141MOL    O4328323   6.761   6.112   5.887  0.1449 -0.3756  0.2806
  141MOL    C4428324   6.522   6.144   5.837 -0.1163 -0.0519  0.3772
  141MOL    C4528325   6.543   6.174   5.687  0.1916  0.2332  0.0192
  141MOL    N4628326   6.563   6.048   5.621  0.3371 -0.3537 -0.5053
  141MOL    H4728327   6.430   6.094   5.867  0.7779  0.5976  4.5079
  141MOL    H4828328   6.507   6.239   5.890 -2.7719 -0.1848 -0.0640
  141MOL    H4928329   6.457   6.229   5.648  0.0942  0.1636  0.1336
  141MOL    H5028330   6.623   6.248   5.689  0.2539  0.1580  2.3456
  141MOL    H5128331   6.550   5.962   5.672 -1.8787 -0.4031 -1.1053
  141MOL    C5228332   6.602   6.038   5.491  0.0590 -0.5126  0.2669
  141MOL    O5328333   6.609   6.140   5.421  0.0470 -0.6248 -0.1157
  141MOL    C5428334   6.629   5.898   5.426  0.3450 -0.4618 -0.2098
  141MOL    C5528335   6.762   5.896   5.342  0.0398  0.5126  0.2317
  141MOL    N5628336   6.890   5.921   5.401 -0.8019 -0.0407  0.0511
  141MOL    H5728337   6.634   5.825   5.507  2.2562 -1.0450 -0.8254
  141MOL    H5828338   6.542   5.876   5.364 -1.5135 -1.4225  2.5800
  141MOL    H5928339   6.733   5.958   5.258 -1.1803  0.5988  0.7094
  141MOL    H6028340   6.769   5.796   5.300 -0.0101  0.8806 -0.6575
  141MOL    H6128341   6.952   5.974   5.341  0.3612  0.4360  1.6122
  141MOL    C6228342   6.941   5.867   5.513 -0.1164  0.0460 -1.0803
  141MOL    O6328343   6.875   5.795   5.583  0.0112  0.7709 -0.2337
  141MOL    C6428344   7.080   5.906   5.556 -0.0830 -0.9929 -0.6407
  141MOL    C6528345   7.084   5.975   5.691  0.3275  0.1237 -0.1035
  141MOL    N6628346   7.221   5.997   5.742  0.1376 -0.5948  0.4262
  141MOL    H6728347   7.147   5.820   5.554  0.8296 -0.2963 -0.3089
  141MOL    H6828348   7.118   5.982   5.489  1.0308  0.0602  1.1397
  141MOL    H6928349   7.033   6.071   5.688  2.5217  1.2447 -3.0526
  141MOL    H7028350   7.029   5.908   5.758  0.6064  0.6989  0.7091
  141MOL    H7128351   7.268   5.910   5.765 -0.9176 -2.0621 -2.7234
  141MOL    C7228352   7.272   6.120   5.775  0.1102 -0.1385 -0.4027
  141MOL    O7328353   7.207   6.217   5.746 -1.0268 -0.0962  0.0434
  141MOL    C7428354   7.410   6.138   5.841 -0.5839  0.6097 -0.5915
  141MOL    C7528355   7.481   6.282   5.833  0.1284 -0.2026 -0.2453
  141MOL    N7628356   7.408   6.385   5.897 -0.4369  1.3893 -0.1288
  141MOL    H7728357   7.409   6.103   5.944  1.0606  3.4100  0.4249
  141MOL    H7828358   7.482   6.071   5.795 -0.9477  0.7208 -1.3509
  141MOL    H7928359   7.580   6.272   5.876 -0.0581  0.4807  0.3407
  141MOL    H8028360   7.506   6.315   5.732 -2.0957 -0.9772 -1.0969
  141MOL    H8128361   7.311   6.357   5.901  0.5754 -2.4278  0.0723
  141MOL    C8228362   7.463   6.496   5.949 -0.1393 -0.6076  0.2842
  141MOL    O8328363   7.581   6.511   5.969  0.1482 -0.3040  0.1604
  141MOL    C8428364   7.361   6.603   6.000 -0.4911 -0.3093  0.1321
  141MOL    C8528365   7.428   6.720   6.071  0.0357  0.9288 -0.0644
  141MOL    N8628366   7.423   6.709   6.214 -0.5179  0.2465  0.3107
  141MOL    H8728367   7.317   6.646   5.910  4.3392  0.5138 -1.9839
  141MOL    H8828368   7.286   6.562   6.069 -0.1914 -1.2498 -0.0982
  141MOL    H8928369   7.533   6.734   6.047  0.2619 -0.5970 -0.0178
  141MOL    H9028370   7.363   6.803   6.044 -1.7062 -0.5753 -0.6109
  141MOL    H9128371   7.478   6.640   6.263  0.9417 -0.3664 -2.1308
  141MOL    C9228372   7.352   6.796   6.295 -0.2583 -0.5552  0.5995
  141MOL    O9328373   7.277   6.889   6.256  0.2309  0.0162  0.3553
  141MOL    C9428374   7.357   6.760   6.445  0.2048  0.0310  0.3730
  141MOL    C9528375   7.319   6.884   6.531  0.6116  0.3144  0.4422
  141MOL    N9628376   7.275   6.852   6.663 -0.0823  0.2386 -0.3922
  141MOL    H9728377   7.292   6.677   6.469  1.6668 -1.9899 -2.3023
  141MOL    H9828378   7.453   6.713   6.468 -0.2176 -0.0849  1.9474
  141MOL    H9928379   7.407   6.948   6.536  1.6055 -1.0454  0.8481
  141MOL   H10028380   7.232   6.936   6.492  0.9540  0.7819  0.3052
  141MOL   H10128381   7.296   6.760   6.701 -0.4624  0.8003  1.2280
  141MOL   C10228382   7.218   6.934   6.751 -0.2393  0.3913 -0.1059
  141MOL   O10328383   7.195   7.051   6.733  0.0746 -0.2404 -0.7553
  141MOL   C10428384   7.160   6.863   6.864  0.0648 -0.5612 -0.9506
  141MOL   C10528385   7.102   6.953   6.971  0.2148 -0.6462 -0.3917
  141MOL   N10628386   7.202   7.018   7.053 -0.3505 -0.1620  0.2784
  141MOL   H10728387   7.239   6.800   6.906  0.9164  2.3928  2.0982
  141MOL   H10828388   7.074   6.808   6.824 -1.2765 -0.7376  2.1027
  141MOL   H10928389   7.036   7.031   6.933  2.8790  2.5107  1.1374
  141MOL   H11028390   7.052   6.886   7.041 -0.2899  0.7914  0.6394
  141MOL   H11128391   7.286   6.962   7.058 -1.0364 -1.1602  1.0355
  141MOL   C11228392   7.208   7.146   7.080  0.0483 -0.3922 -0.5378
  141MOL   O11328393   7.112   7.215   7.068  0.1284  0.5201  0.3165
  141MOL   C11428394   7.333   7.180   7.158  0.1159 -0.0812 -0.5650
  141MOL   C11528395   7.461   7.201   7.079 -0.2638  0.5363  0.5014
  141MOL   N11628396   7.523   7.073   7.040  0.0832  0.3724  0.0216
  141MOL   H11728397   7.344   7.115   7.245  0.7058  1.1055  0.2589
  141MOL   H11828398   7.309   7.283   7.185 -0.1928 -0.2313 -0.2614
  141MOL   H11928399   7.437   7.265   6.994  1.1189  0.4213  0.0135
  141MOL   H12028400   7.531   7.250   7.147  0.5337  0.8744 -0.5563
  141MOL   H12128401   7.539   7.001   7.109 -0.5254  0.6975  0.5020
  141MOL   C12228402   7.572   7.038   6.922  0.1221 -0.1298  0.0068
  141MOL   O12328403   7.585   7.118   6.834  0.7108  0.5037 -0.1585
  141MOL   C12428404   7.607   6.891   6.909 -0.0773 -0.8200  0.4643
  141MOL   C12528405   7.645   6.843   6.768 -0.3658 -0.2222 -0.3408
  141MOL   N12628406   7.674   6.701   6.760 -0.1357 -0.1667 -0.3484
  141MOL   H12728407   7.521   6.833   6.944  0.3402 -1.3845  0.5635
  141MOL   H12828408   7.690   6.863   6.974 -0.1118 -1.5894  0.1849
  141MOL   H12928409   7.562   6.870   6.703 -0.9871  0.1009  0.5717
  141MOL   H13028410   7.732   6.896   6.730 -1.4402  0.5183 -1.8383
  141MOL   H13128411   7.765   6.677   6.797  0.2207 -0.6128 -1.4996
  141MOL   C13228412   7.585   6.603   6.743  0.5798  0.4674  0.5142
  141MOL   O13328413   7.472   6.625   6.707 -0.6558  0.0165 -0.0271
  141MOL   C13428414   7.637   6.460   6.752 -0.4500  0.0123 -0.0473
  141MOL   C13528415   7.587   6.357   6.658  0.3164  0.6592 -1.0304
  141MOL   N13628416   7.666   6.344   6.538  0.2549 -0.1701  0.0393
  141MOL   H13728417   7.611   6.435   6.855  0.2560  2.1680  0.6747
  141MOL   H13828418   7.746   6.456   6.757 -0.5947 -3.2895  1.9081
  141MOL   H13928419   7.583   6.263   6.712 -1.8689  1.8219  0.9296
  141MOL   H14028420   7.485   6.386   6.632 -0.5856 -1.7606 -0.3594
  141MOL   H14128421   7.737   6.272   6.535  2.0911  1.6233 -0.4005
  141MOL   C14228422   7.635   6.396   6.420  0.1897 -0.5431  0.8073
  141MOL   O14328423   7.541   6.476   6.404 -0.4838  0.3499 -0.6648
  141MOL   C14428424   7.727   6.352   6.301 -0.0597 -0.1355  0.0884
  141MOL   C14528425   7.648   6.305   6.181 -0.1844 -0.4178  0.0045
  141MOL   N14628426   7.612   6.166   6.189 -0.2432 -0.0923 -0.4511
  141MOL   H14728427   0.017   6.272   6.326 -0.3495  0.1460  1.8774
  141MOL   H14828428   0.007   6.439   6.274 -0.7012 -0.0742 -1.1712
  141MOL   H14928429   7.553   6.359   6.177  1.0189  1.9191  1.3306
  141MOL   H15028430   7.704   6.332   6.092 -0.0821  0.7307  0.3992
  141MOL   H15128431   7.520   6.145   6.224 -1.0541  0.2336 -2.3797
  141MOL   C15228432   7.683   6.054   6.157  0.0359 -0.4216  0.8192
  141MOL   O15328433   0.014   6.055   6.112  0.2870  0.5382  0.3295
  141MOL   C15428434   7.610   5.923   6.174 -0.1017  0.4786  0.1538
  141MOL   C15528435   7.582   5.846   6.042 -0.4633 -0.4439  0.0614
  141MOL   N15628436   7.699   5.759   6.009  0.4602 -0.0317  0.8518
  141MOL   H15728437   7.515   5.934   6.227 -0.0943  0.1279  0.2427
  141MOL   H15828438   7.668   5.861   6.242  0.5771  0.7352 -0.1873
  141MOL   H15928439   7.490   5.789   6.052 -1.0727  0.3293 -1.0093
  141MOL   H16028440   7.576   5.920   5.962 -1.2325  2.7536  2.9666
  141MOL   H16128441   7.740   5.712   6.089  1.7302 -1.5179 -0.6142
  141MOL   C16228442   7.741   5.731   5.889 -0.0597  0.0367  0.7012
  141MOL   O16328443   7.693   5.789   5.786 -0.5672  0.3338  0.0655
  141MOL   C16428444   0.052   5.610   5.871 -0.1347 -0.2630  0.0727
  141MOL   C16528445   0.121   5.613   5.733  0.4515  0.3758 -0.3682
  141MOL   N16628446   0.220   5.721   5.711 -0.0284  0.3003  0.4623
  141MOL   H16728447   7.778   5.515   5.871  1.7007 -1.3282 -0.2242
  141MOL   H16828448   0.112   5.614   5.962 -0.8160 -0.6670  0.5454
  141MOL   H16928449   0.189   5.530   5.721 -1.0398 -0.7056 -1.5558
  141MOL   H17028450   0.041   5.614   5.658 -0.4496  1.6054  0.5792
  141MOL   H17128451   0.188   5.790   5.644  0.5729 -0.3150 -0.4619
  141MOL   C17228452   0.343   5.733   5.758  0.1908  0.2457 -0.2543
  141MOL   O17328453   0.379   5.651   5.841  0.3684  0.0867 -0.5956
  141MOL   C17428454   0.434   5.843   5.709 -0.0360  0.5174  1.0684
  141MOL   C17528455   0.476   5.942   5.822 -0.1728 -0.4261  0.0462
  141MOL   N17628456   0.573   5.892   5.925  0.4430  0.4281 -0.3526
  141MOL   H17728457   0.381   5.899   5.632 -1.3484 -1.7743  0.2515
  141MOL   H17828458   0.530   5.803   5.676  0.4134  0.9709  1.8218
  141MOL   H17928459   0.517   6.028   5.768 -0.4645 -0.6197 -0.4816
  141MOL   H18028460   0.397   5.985   5.883  1.1419  0.4511  1.1794
  141MOL   H18128461   0.591   5.795   5.947 -1.6429  0.8168  3.6103
  141MOL   C18228462   0.623   5.971   6.019  0.5350  0.1719  0.5369
  141MOL   O18328463   0.599   6.091   6.020 -0.1360  0.6553 -0.0087
  141MOL   C18428464   0.699   5.898   6.123  0.9082 -0.3097 -0.9060
  141MOL   C18528465   0.846   5.905   6.097 -0.1608  0.1770  0.7009
  141MOL   N18628466   0.926   5.792   6.146  0.0083  0.0298 -0.0380
  141MOL   H18728467   0.681   5.791   6.134 -2.4387  0.2981 -0.0531
  141MOL   H18828468   0.669   5.945   6.216 -0.7250 -0.8529 -1.1400
  141MOL   H18928469   0.856   5.891   5.989 -1.3732 -0.0278  0.6030
  141MOL   H19028470   0.876   6.001   6.138  0.4409 -0.0395  0.7617
  141MOL   H19128471   0.983   5.801   6.229 -0.4249  1.7749  0.0937
  141MOL   C19228472   0.929   5.672   6.084  0.1719  0.2125 -0.0824
  141MOL   O19328473   0.857   5.636   5.995  0.6307 -0.2054 -0.1326
  141MOL   C19428474   1.028   5.574   6.151 -0.5268  0.3711  0.6585
  141MOL   C19528475   1.084   5.473   6.045 -0.3509 -0.6383 -0.8576
  141MOL   N19628476   1.179   5.542   5.959 -0.0168 -0.0019  0.0611
  141MOL   H19728477   1.103   5.634   6.202 -0.5569  0.0325  1.1083
  141MOL   H19828478   0.971   5.521   6.228 -0.1732  0.3154  0.8835
  141MOL   H19928479   1.136   5.396   6.103 -1.3054 -1.1737 -0.7109
  141MOL   H20028480   1.004   5.420   5.994  1.0322 -1.1100 -2.5808
  141MOL   H20128481   1.139   5.615   5.902  0.3942 -0.7079 -1.1467
  141MOL   H20228482   1.215   5.473   5.895 -3.3211 -1.2587 -0.5481
  142MOL     C128483   2.858   6.413   5.787 -0.8732  0.7068  0.6165
  142MOL     O228484   2.857   6.291   5.791  0.4266 -0.2866  0.1835
  142MOL     C328485   2.831   6.489   5.658  0.3945 -0.1906  0.4354
  142MOL     C428486   2.854   6.411   5.532 -0.7672 -0.8250  0.0268
  142MOL     N528487   2.999   6.386   5.513  0.0904 -0.1423  0.1789
  142MOL     H628488   2.884   6.584   5.654 -0.4351  0.2213 -1.2329
  142MOL     H728489   2.729   6.527   5.661  0.2156 -0.4132 -1.5909
  142MOL     H828490   2.831   6.482   5.453  2.3000  1.4702  1.0801
  142MOL     H928491   2.800   6.316   5.542 -0.2205 -1.3088 -1.4641
  142MOL    H1028492   3.059   6.448   5.565 -1.2557 -0.4809  2.1943
  142MOL    H1128493   2.885   6.475   5.873 -1.5544  0.7938  0.7686
  142MOL    C1228494   3.050   6.295   5.436  0.3267 -0.7139  0.0222
  142MOL    O1328495   2.989   6.218   5.356  0.7506 -0.4868 -0.0597
  142MOL    C1428496   3.202   6.304   5.421  0.5970 -0.2557 -0.2558
  142MOL    C1528497   3.271   6.174   5.389 -0.4273 -0.1534 -0.2799
  142MOL    N1628498   3.408   6.189   5.334 -0.0840  0.3741 -0.0763
  142MOL    H1728499   3.250   6.355   5.504 -1.5101  1.3599  0.0031
  142MOL    H1828500   3.234   6.375   5.345  0.6188 -0.0916 -0.0901
  142MOL    H1928501   3.283   6.101   5.469  1.7542  0.5311  0.0631
  142MOL    H2028502   3.216   6.121   5.311  0.0175 -0.0639 -0.6621
  142MOL    H2128503   3.412   6.185   5.233 -1.2668  1.8063 -0.2102
  142MOL    C2228504   3.518   6.228   5.402  0.6204 -0.1904 -0.5522
  142MOL    O2328505   3.515   6.243   5.528  0.1536 -0.7727  0.6309
  142MOL    C2428506   3.629   6.265   5.306 -0.5718 -0.0469 -0.2552
  142MOL    C2528507   3.752   6.334   5.371 -0.1370  0.3495 -0.1171
  142MOL    N2628508   3.762   6.477   5.344  0.6634 -0.1093 -0.0197
  142MOL    H2728509   3.573   6.320   5.230  1.9019  2.4196 -0.3832
  142MOL    H2828510   3.665   6.171   5.264  2.1090  0.1119  1.5923
  142MOL    H2928511   3.755   6.309   5.477  0.6128 -0.4790 -0.3305
  142MOL    H3028512   3.846   6.302   5.327  0.9822  0.9772  1.7352
  142MOL    H3128513   3.704   6.520   5.273 -0.7562  0.0980  1.2299
  142MOL    C3228514   3.857   6.557   5.408 -0.3196  0.4839 -0.8074
  142MOL    O3328515   3.929   6.514   5.495  0.1665 -0.3774 -0.3675
  142MOL    C3428516   3.873   6.703   5.366  1.0082 -0.4367 -0.4135
  142MOL    C3528517   3.785   6.794   5.453 -0.7851 -0.1770 -0.0028
  142MOL    N3628518   3.649   6.806   5.404  0.4077  0.3362 -0.2604
  142MOL    H3728519   3.850   6.717   5.260  0.6121  0.4496 -0.2143
  142MOL    H3828520   3.978   6.730   5.378  0.4145  1.2502  1.3090
  142MOL    H3928521   3.790   6.761   5.557  1.6846 -1.0275 -0.3767
  142MOL    H4028522   3.824   6.896   5.460 -0.8212 -0.0356 -1.7406
  142MOL    H4128523   3.622   6.892   5.358  1.3690 -0.4994 -2.4864
  142MOL    C4228524   3.538   6.735   5.453 -0.3526 -0.5823  0.3710
  142MOL    O4328525   3.555   6.643   5.531  0.5337 -0.3412  0.5592
  142MOL    C4428526   3.397   6.784   5.401  0.2414  0.3859 -0.8601
  142MOL    C4528527   3.309   6.666   5.362 -1.3242 -0.3603 -0.4581
  142MOL    N4628528   3.174   6.695   5.316 -0.0276 -0.1706 -0.4292
  142MOL    H4728529   3.349   6.854   5.470 -0.2419 -0.7206 -0.0690
  142MOL    H4828530   3.408   6.846   5.312  1.7819 -0.2318 -1.1218
  142MOL    H4928531   3.356   6.603   5.287 -0.1391 -0.1437  0.1067
  142MOL    H5028532   3.299   6.603   5.450 -1.0375  1.8454  1.1899
  142MOL    H5128533   3.162   6.722   5.220 -4.8172  0.8865  0.3080
  142MOL    C5228534   3.062   6.717   5.388 -1.0209  0.1603 -0.4354
  142MOL    O5328535   3.064   6.718   5.508  0.1254 -0.4272 -0.0432
  142MOL    C5428536   2.932   6.752   5.309  0.3215  0.1466  0.3552
  142MOL    C5528537   2.823   6.817   5.401  0.5298 -0.2936 -0.7405
  142MOL    N5628538   2.715   6.880   5.326  0.2375 -0.5470 -0.8808
  142MOL    H5728539   2.956   6.829   5.236  0.5182 -0.6844 -0.4603
  142MOL    H5828540   2.899   6.657   5.267 -0.2710 -0.2234  1.6096
  142MOL    H5928541   2.870   6.893   5.463 -1.5913  0.5638 -0.1486
  142MOL    H6028542   2.780   6.747   5.473 -0.9850 -1.5620 -2.8073
  142MOL    H6128543   2.712   6.980   5.318  0.9497 -0.3817  0.7079
  142MOL    C6228544   2.620   6.821   5.260  0.0604 -0.2434 -0.0203
  142MOL    O6328545   2.615   6.696   5.252  0.5077  0.7943 -0.3813
  142MOL    C6428546   2.514   6.901   5.177 -0.1729 -0.5106  0.3411
  142MOL    C6528547   2.403   6.814   5.111 -0.0789 -0.0995  0.0032
  142MOL    N6628548   2.284   6.795   5.197  0.1781  0.0632  0.2676
  142MOL    H6728549   2.470   6.979   5.238  1.4219  0.6544  0.0452
  142MOL    H6828550   2.570   6.942   5.093 -1.4345 -1.4173 -0.9775
  142MOL    H6928551   2.382   6.870   5.020 -2.0866 -2.4830 -1.0436
  142MOL    H7028552   2.446   6.727   5.061  0.0831 -1.1533  1.9011
  142MOL    H7128553   2.304   6.829   5.290 -2.2871  0.6017  0.6326
  142MOL    C7228554   2.169   6.746   5.142 -0.5815  0.2125 -0.3767
  142MOL    O7328555   2.166   6.712   5.022  0.1131 -0.4139 -0.1889
  142MOL    C7428556   2.054   6.715   5.240 -0.2620 -0.1022  0.3889
  142MOL    C7528557   1.912   6.730   5.177 -0.3117  0.4942  0.5109
  142MOL    N7628558   1.881   6.851   5.110 -0.3676  0.4207 -0.2278
  142MOL    H7728559   2.082   6.618   5.280 -0.8970  0.6974  2.8125
  142MOL    H7828560   2.062   6.792   5.316 -1.0420 -0.6475  1.0161
  142MOL    H7928561   1.910   6.657   5.097  0.0917  0.2960  0.6844
  142MOL    H8028562   1.845   6.698   5.257 -2.5353 -0.3500 -1.6356
  142MOL    H8128563   1.914   6.853   5.015  0.0842  0.9667 -0.0595
  142MOL    C8228564   1.823   6.958   5.173  0.2282 -0.0980 -0.2222
  142MOL    O8328565   1.793   6.961   5.294  0.3600  0.0205 -0.0157
  142MOL    C8428566   1.808   7.083   5.082  0.0899  0.0050 -0.1582
  142MOL    C8528567   1.938   7.170   5.068  0.2515  0.1475  0.0694
  142MOL    N8628568   1.902   7.310   5.036  0.2608  0.7792 -0.1259
  142MOL    H8728569   1.770   7.052   4.985  0.4009 -1.6341  0.2165
  142MOL    H8828570   1.728   7.147   5.120  0.7786  0.3027  0.8102
  142MOL    H8928571   1.992   7.182   5.162  1.3866  1.4157 -0.7374
  142MOL    H9028572   2.005   7.126   4.993  0.1240  0.2316 -0.0926
  142MOL    H9128573   1.927   7.369   5.114 -0.1913 -0.3623  0.8990
  142MOL    C9228574   1.841   7.358   4.926  0.4596 -0.1247  0.5080
  142MOL    O9328575   1.802   7.282   4.838 -0.3996  0.1794  0.2160
  142MOL    C9428576   1.815   7.508   4.920 -0.1960  0.4017 -0.3266
  142MOL    C9528577   1.710   7.562   4.810  1.0532  0.2842 -0.0269
  142MOL    N9628578   1.753   7.527   4.673 -0.1541  0.0486  0.4710
  142MOL    H9728579   1.790   7.553   5.016  2.2682 -0.5035  0.8006
  142MOL    H9828580   1.918   7.542   4.908 -0.4844  1.2200 -0.5333
  142MOL    H9928581   1.611   7.522   4.829  1.1969 -0.3333 -0.5487
  142MOL   H10028582   1.718   7.671   4.811 -0.7520  0.4715 -2.6153
  142MOL   H10128583   1.835   7.575   4.638  0.0993 -1.1514 -0.5983
  142MOL   C10228584   1.694   7.438   4.592 -0.0737 -0.1939  0.3715
  142MOL   O10328585   1.598   7.377   4.626 -0.6627  0.5355 -0.0003
  142MOL   C10428586   1.771   7.395   4.465 -0.3889 -0.2289  0.2477
  142MOL   C10528587   1.768   7.243   4.433 -0.6346  0.9626  0.3351
  142MOL   N10628588   1.844   7.162   4.524  0.2659  0.1500  0.0054
  142MOL   H10728589   1.877   7.410   4.485 -0.0253 -1.2650 -0.8401
  142MOL   H10828590   1.750   7.455   4.377  1.2631  0.7656  0.5084
  142MOL   H10928591   1.670   7.206   4.463 -0.3017 -0.5503 -0.3842
  142MOL   H11028592   1.778   7.224   4.326  0.2417 -1.2265  0.7658
  142MOL   H11128593   1.854   7.197   4.618  5.6100  0.6962 -0.5675
  142MOL   C11228594   1.905   7.046   4.495 -0.5167 -0.2143  1.3327
  142MOL   O11328595   1.919   6.997   4.381 -0.0087  0.1428  0.2711
  142MOL   C11428596   1.966   6.978   4.615 -0.1619  0.3007 -0.0286
  142MOL   C11528597   2.106   6.919   4.601  0.0957 -0.1582  0.0911
  142MOL   N11628598   2.206   7.021   4.592  0.6474  0.2434 -0.2000
  142MOL   H11728599   1.900   6.895   4.638  0.7703 -0.5030 -0.2313
  142MOL   H11828600   1.959   7.044   4.702 -1.5041  1.3445 -0.9100
  142MOL   H11928601   2.124   6.856   4.687  1.0734 -0.7784 -0.5628
  142MOL   H12028602   2.111   6.858   4.510 -0.7123 -0.8923  0.5319
  142MOL   H12128603   2.237   7.040   4.498 -0.0829  0.8291 -0.3281
  142MOL   C12228604   2.257   7.092   4.697 -0.5619  0.5706 -0.4572
  142MOL   O12328605   2.226   7.067   4.816  0.1573  0.3955 -0.6263
  142MOL   C12428606   2.355   7.206   4.664 -0.7212  0.2634 -0.2566
  142MOL   C12528607   2.299   7.338   4.732  0.0771 -0.0638  0.1084
  142MOL   N12628608   2.358   7.363   4.860 -0.2979 -0.2923  0.3288
  142MOL   H12728609   2.357   7.216   4.556 -0.4181  1.0176 -0.1822
  142MOL   H12828610   2.458   7.193   4.697 -0.5820  1.1993 -0.3085
  142MOL   H12928611   2.336   7.416   4.665  0.3296  0.2766  0.6340
  142MOL   H13028612   2.191   7.325   4.729  0.4231 -3.0059 -1.8120
  142MOL   H13128613   2.433   7.302   4.889  0.2183  1.4579  2.8252
  142MOL   C13228614   2.317   7.464   4.942  0.2708 -0.4941  0.3428
  142MOL   O13328615   2.224   7.540   4.910 -0.5438 -0.3256 -0.1001
  142MOL   C13428616   2.394   7.477   5.079 -0.3881  0.0411  0.1835
  142MOL   C13528617   2.315   7.385   5.174  0.4590  0.6134 -0.4444
  142MOL   N13628618   2.364   7.382   5.315  0.6558  0.4045 -0.3194
  142MOL   H13728619   2.415   7.574   5.123  1.9045 -0.4202  0.1543
  142MOL   H13828620   2.489   7.425   5.075 -0.7500 -0.7002  1.1521
  142MOL   H13928621   2.211   7.415   5.188  0.6916  0.8795  0.7237
  142MOL   H14028622   2.308   7.280   5.146  0.6658  0.6847 -0.7621
  142MOL   H14128623   2.433   7.446   5.349  2.6208 -2.6264  1.6759
  142MOL   C14228624   2.325   7.294   5.410  0.2066 -0.5309  0.0976
  142MOL   O14328625   2.374   7.301   5.519 -0.0273  0.0722  0.2975
  142MOL   C14428626   2.231   7.175   5.378  0.4348  0.3276  0.5850
  142MOL   C14528627   2.158   7.115   5.499 -0.0394  0.0010 -0.1192
  142MOL   N14628628   2.025   7.168   5.510 -0.4255 -0.6940 -0.3548
  142MOL   H14728629   2.299   7.098   5.340 -1.7731 -1.2613 -0.2868
  142MOL   H14828630   2.155   7.200   5.304  1.6726 -0.6474 -1.0605
  142MOL   H14928631   2.145   7.014   5.461 -0.7252 -0.6372  1.7753
  142MOL   H15028632   2.208   7.113   5.596  0.6353  2.0643 -0.4041
  142MOL   H15128633   1.989   7.239   5.448 -1.2241 -0.0929  0.8005
  142MOL   C15228634   1.930   7.104   5.577 -0.6877  0.8209  0.2779
  142MOL   O15328635   1.955   7.009   5.651 -0.1868 -0.4920  0.1255
  142MOL   C15428636   1.791   7.162   5.560 -0.4553  0.0927  0.1112
  142MOL   C15528637   1.704   7.148   5.690  0.2678  0.1116  0.3805
  142MOL   N15628638   1.665   7.280   5.744  0.0519 -0.2976  0.2718
  142MOL   H15728639   1.749   7.111   5.473  0.8531 -1.0296  0.1155
  142MOL   H15828640   1.801   7.266   5.529 -2.0499  0.7555  1.7088
  142MOL   H15928641   1.615   7.090   5.667  0.7806 -1.2218  1.6950
  142MOL   H16028642   1.753   7.088   5.767 -1.3761  0.1101  1.4335
  142MOL   H16128643   1.714   7.303   5.830 -2.6110  1.3366  1.4129
  142MOL   C16228644   1.585   7.373   5.698 -0.1179 -0.7775  0.0179
  142MOL   O16328645   1.522   7.352   5.597  0.5410 -0.5416  0.0145
  142MOL   C16428646   1.572   7.508   5.775 -0.2052 -0.0569  0.3414
  142MOL   C16528647   1.421   7.550   5.786 -0.1289  0.7289  0.1126
  142MOL   N16628648   1.381   7.618   5.670  0.0837 -0.4727  0.0229
  142MOL   H16728649   1.635   7.585   5.729 -1.0680  0.4564  0.0184
  142MOL   H16828650   1.610   7.501   5.877  0.2023  2.4368  0.4069
  142MOL   H16928651   1.355   7.465   5.805 -1.0516  1.1342 -1.2075
  142MOL   H17028652   1.402   7.607   5.878 -1.3303  0.7913 -0.1622
  142MOL   H17128653   1.417   7.582   5.582 -2.1353  0.0919 -1.1729
  142MOL   C17228654   1.295   7.723   5.651  0.3307  0.4934  0.1693
  142MOL   O17328655   1.246   7.777   5.746 -0.3601 -0.3291  0.0800
  142MOL   C17428656   1.274   7.767   5.509 -0.0549 -0.4781  0.6156
  142MOL   C17528657   1.361   0.111   5.468 -0.0392 -0.4168  0.2448
  142MOL   N17628658   1.333   0.176   5.337  0.2620  0.9849 -0.3951
  142MOL   H17728659   1.171   0.018   5.487 -0.1415 -1.0408  0.2219
  142MOL   H17828660   1.283   7.681   5.443 -0.8584 -0.6382  0.7088
  142MOL   H17928661   1.357   0.190   5.542 -1.7424 -0.6306  0.4007
  142MOL   H18028662   1.466   0.082   5.456  0.1117  0.1160  0.2662
  142MOL   H18128663   1.401   0.169   5.263  0.9812  1.4339  0.2108
  142MOL   C18228664   1.227   0.254   5.318  0.3214 -0.0811 -0.5909
  142MOL   O18328665   1.131   0.247   5.394  0.1171  0.2476 -1.0394
  142MOL   C18428666   1.233   0.342   5.193 -0.2755  0.8768 -0.2464
  142MOL   C18528667   1.102   0.405   5.147  0.2896 -0.5671 -0.7495
  142MOL   N18628668   0.999   0.326   5.089 -0.6441 -0.2993 -0.1718
  142MOL   H18728669   1.279   0.286   5.112  1.6931  0.8493  0.8615
  142MOL   H18828670   1.309   0.418   5.211 -0.9401  1.2584  1.0177
  142MOL   H18928671   1.053   0.443   5.237  1.5970 -0.7255  0.0377
  142MOL   H19028672   1.120   0.484   5.074 -1.6068  0.9747  0.3661
  142MOL   H19128673   0.905   0.326   5.128 -0.1153 -1.8328  1.1483
  142MOL   C19228674   1.024   0.262   4.970 -0.1267 -0.2880  0.4827
  142MOL   O19328675   1.130   0.273   4.916  0.0370 -0.6488  0.0662
  142MOL   C19428676   0.908   0.194   4.897  0.1560  0.0764 -0.0914
  142MOL   C19528677   0.923   0.117   4.757 -0.1873  0.2853 -0.1674
  142MOL   N19628678   1.029   0.016   4.747  0.3654 -0.2381  0.1562
  142MOL   H19728679   0.867   0.130   4.976 -0.0726  1.2088  0.7205
  142MOL   H19828680   0.835   0.271   4.872  1.4461  1.9925  1.8261
  142MOL   H19928681   0.831   0.062   4.736 -0.4687  0.0566  1.6111
  142MOL   H20028682   0.946   0.194   4.683  3.4776  1.5261  2.1430
  142MOL   H20128683   1.010   7.729   4.820  2.3013  0.3703  1.2656
  142MOL   H20228684   1.112   0.062   4.781 -0.6746  1.0738  0.9686
  143MOL     C128685   5.585   3.957   2.425 -0.0012  0.1906 -0.3956
  143MOL     O228686   5.652   3.878   2.367  0.0122  0.3112  0.2110
  143MOL     C328687   5.441   3.935   2.461 -0.1229  0.0671  0.5064
  143MOL     C428688   5.356   3.868   2.351  0.2966 -0.3653 -0.4076
  143MOL     N528689   5.389   3.736   2.315  0.0140  0.1626 -0.2869
  143MOL     H628690   5.399   4.035   2.466  0.4312  0.2856  0.7684
  143MOL     H728691   5.430   3.884   2.557  2.3691  0.7247  1.1793
  143MOL     H828692   5.374   3.927   2.261  0.2555  0.4940  0.1330
  143MOL     H928693   5.251   3.868   2.381  0.1355 -1.7416 -0.9590
  143MOL    H1028694   5.487   3.728   2.290 -0.4642  0.5000 -2.3794
  143MOL    H1128695   5.635   4.052   2.444 -0.5351  0.2642  0.6392
  143MOL    C1228696   5.324   3.621   2.327 -0.3530  0.5717  0.4184
  143MOL    O1328697   5.219   3.614   2.386 -0.4150  0.1154  0.4084
  143MOL    C1428698   5.405   3.492   2.293  0.5144 -0.4141  0.3875
  143MOL    C1528699   5.439   3.480   2.145 -0.7567  0.0792 -0.0003
  143MOL    N1628700   5.570   3.416   2.129 -0.5261 -0.4148 -0.2529
  143MOL    H1728701   5.349   3.405   2.327  0.3177 -1.4191 -2.3913
  143MOL    H1828702   5.494   3.482   2.355  0.8356 -2.4116 -0.3599
  143MOL    H1928703   5.362   3.419   2.097 -1.4883  0.5804  0.5208
  143MOL    H2028704   5.439   3.580   2.100 -2.4057  0.0873 -0.0442
  143MOL    H2128705   5.615   3.388   2.215 -1.1068  0.3586  0.3100
  143MOL    C2228706   5.633   3.404   2.013 -0.2897  0.5820 -0.5500
  143MOL    O2328707   5.585   3.453   1.912  0.5156  0.1546  0.6436
  143MOL    C2428708   5.770   3.339   2.009  0.0206  0.8516  0.7155
  143MOL    C2528709   5.801   3.264   1.874  0.3171  0.2166  0.4979
  143MOL    N2628710   5.732   3.133   1.874  0.3552 -0.4608 -0.1816
  143MOL    H2728711   5.782   3.266   2.089  2.3281  2.9451  2.3369
  143MOL    H2828712   5.842   3.418   2.029 -0.9521  2.6521 -2.5000
  143MOL    H2928713   5.766   3.320   1.787 -0.1978 -3.1610 -1.5427
  143MOL    H3028714   5.906   3.243   1.855  0.7455  0.9811  1.9512
  143MOL    H3128715   5.708   3.096   1.965 -4.4979 -0.6764 -1.3863
  143MOL    C3228716   5.673   3.078   1.767 -0.1282  0.2639  0.1288
  143MOL    O3328717   5.695   3.123   1.654  0.1222  0.8881  0.7210
  143MOL    C3428718   5.554   2.978   1.785  0.6668  0.6470 -0.5003
  143MOL    C3528719   5.525   2.897   1.663 -0.4355 -0.2133 -0.3861
  143MOL    N3628720   5.379   2.858   1.679  0.5784 -0.6639  0.0278
  143MOL    H3728721   5.471   3.044   1.812 -0.3418  0.1048 -2.2035
  143MOL    H3828722   5.569   2.912   1.870  0.8046 -1.6229 -2.2348
  143MOL    H3928723   5.540   2.954   1.571  2.3762 -1.3598 -0.6649
  143MOL    H4028724   5.589   2.809   1.659  1.1706  0.8616  0.9010
  143MOL    H4128725   5.356   2.764   1.709  0.1931 -0.6782 -0.3094
  143MOL    C4228726   5.274   2.927   1.633 -0.0463  0.0475  0.3180
  143MOL    O4328727   5.287   3.035   1.577  0.2503 -0.1988 -0.1587
  143MOL    C4428728   5.144   2.855   1.643 -0.0370 -0.0283 -0.1895
  143MOL    C4528729   5.022   2.941   1.619 -0.1429 -0.5709 -0.4513
  143MOL    N4628730   4.903   2.854   1.607  0.5075  0.0122 -0.2870
  143MOL    H4728731   5.144   2.767   1.578  2.3788  0.2682 -0.6477
  143MOL    H4828732   5.140   2.816   1.744  0.7498 -1.9118 -0.8639
  143MOL    H4928733   4.997   3.020   1.690  1.2593 -2.1316  1.8566
  143MOL    H5028734   5.035   2.985   1.520  1.3239  0.4711  0.1726
  143MOL    H5128735   4.893   2.827   1.510  2.2330 -0.5692 -0.3120
  143MOL    C5228736   4.809   2.811   1.692  0.8521 -0.2143 -0.0679
  143MOL    O5328737   4.700   2.768   1.647  0.3157  0.3300  0.0483
  143MOL    C5428738   4.835   2.829   1.843  0.2568 -0.1204 -0.0090
  143MOL    C5528739   4.772   2.726   1.930  0.0919 -0.5982  0.0162
  143MOL    N5628740   4.832   2.598   1.926  0.7562  0.0159 -0.2237
  143MOL    H5728741   4.941   2.850   1.856 -0.1253  0.9635  1.5682
  143MOL    H5828742   4.786   2.924   1.863  0.5785  0.3692 -1.4875
  143MOL    H5928743   4.665   2.726   1.905  0.1409 -0.5169 -0.1921
  143MOL    H6028744   4.784   2.762   2.032  0.0140  0.5745 -0.3867
  143MOL    H6128745   4.929   2.609   1.950  0.7434  1.5498 -0.8431
  143MOL    C6228746   4.778   2.483   1.880  0.1787  0.2015 -0.2509
  143MOL    O6328747   4.661   2.473   1.839 -0.7961  0.4051 -0.6896
  143MOL    C6428748   4.861   2.357   1.883  0.4973  0.2632 -0.0576
  143MOL    C6528749   4.784   2.230   1.921  0.6732 -0.2254  0.0961
  143MOL    N6628750   4.712   2.234   2.051 -0.5860 -0.2844 -0.2135
  143MOL    H6728751   4.915   2.356   1.789  0.8111 -0.4872  0.1339
  143MOL    H6828752   4.943   2.380   1.951  1.1757  1.9684 -1.4169
  143MOL    H6928753   4.709   2.202   1.848  0.7010 -0.0968  0.0194
  143MOL    H7028754   4.854   2.148   1.936 -1.3177 -1.4178  3.4637
  143MOL    H7128755   4.637   2.301   2.063  0.3301  0.5154  1.1684
  143MOL    C7228756   4.765   2.190   2.170  0.6095  0.6788  0.9262
  143MOL    O7328757   4.870   2.127   2.177  0.3184  0.0420  0.7252
  143MOL    C7428758   4.677   2.207   2.297 -0.3226 -0.6541  0.5101
  143MOL    C7528759   4.751   2.275   2.413 -0.5261 -0.4935 -0.5021
  143MOL    N7628760   4.786   2.413   2.371  0.0174 -0.0258 -0.0405
  143MOL    H7728761   4.589   2.268   2.274  0.5465 -0.5516 -2.8637
  143MOL    H7828762   4.646   2.112   2.340 -1.9342 -0.6366 -0.5302
  143MOL    H7928763   4.700   2.281   2.509  0.0283  1.6538 -0.3302
  143MOL    H8028764   4.841   2.214   2.421  1.1617  2.0201  0.2037
  143MOL    H8128765   4.723   2.460   2.307  1.1910 -0.9180 -1.9124
  143MOL    C8228766   4.910   2.462   2.365  0.7960  0.2561 -0.3227
  143MOL    O8328767   4.998   2.400   2.421 -0.1717  0.4665  0.6097
  143MOL    C8428768   4.931   2.591   2.298  0.0656 -0.2101 -0.8356
  143MOL    C8528769   5.054   2.671   2.338  0.3387 -0.2387  0.6894
  143MOL    N8628770   5.183   2.631   2.271  0.4686 -0.0923  0.0294
  143MOL    H8728771   4.926   2.575   2.191 -1.6227  0.3320 -0.8562
  143MOL    H8828772   4.849   2.652   2.334  0.6735 -0.6565  1.3881
  143MOL    H8928773   5.038   2.778   2.321  0.8677  0.1652  2.6561
  143MOL    H9028774   5.059   2.667   2.446 -1.2732 -3.6210  0.6888
  143MOL    H9128775   5.257   2.597   2.331  1.1570  2.3016  0.6222
  143MOL    C9228776   5.214   2.655   2.143 -0.7307 -0.7985 -0.3598
  143MOL    O9328777   5.116   2.675   2.064  0.3470  0.7323 -0.3214
  143MOL    C9428778   5.360   2.647   2.099 -0.1106  0.2950 -0.3563
  143MOL    C9528779   5.425   2.787   2.071  0.0726  0.2719  0.1261
  143MOL    N9628780   5.443   2.878   2.184  0.2822 -0.0600 -0.8108
  143MOL    H9728781   5.429   2.598   2.168  0.4020 -0.6340 -1.5082
  143MOL    H9828782   5.368   2.592   2.005 -1.6783  2.1718 -1.6150
  143MOL    H9928783   5.527   2.769   2.039 -0.1189  1.1096 -0.9538
  143MOL   H10028784   5.374   2.845   1.995 -1.2886  1.2388  1.7384
  143MOL   H10128785   5.383   2.866   2.264 -0.6908 -2.9030 -1.9038
  143MOL   C10228786   5.534   2.982   2.192 -0.0956  0.1931 -0.1765
  143MOL   O10328787   5.600   3.014   2.092  0.6957  0.2248 -0.0202
  143MOL   C10428788   5.520   3.079   2.308  0.0641  0.2691  0.1486
  143MOL   C10528789   5.635   3.061   2.416 -0.8425  0.2687 -0.8954
  143MOL   N10628790   5.776   3.094   2.373 -0.5708  0.6429  0.3260
  143MOL   H10728791   5.430   3.056   2.366 -0.9438  0.4904 -1.2959
  143MOL   H10828792   5.505   3.176   2.259  2.0267  0.8501  0.6699
  143MOL   H10928793   5.628   3.118   2.509 -1.5720 -1.3722  0.0648
  143MOL   H11028794   5.653   2.955   2.428  2.9023  0.9974  0.6847
  143MOL   H11128795   5.830   3.012   2.351  1.1450  2.1651 -1.2330
  143MOL   C11228796   5.813   3.222   2.370 -0.0790 -0.1988  0.1687
  143MOL   O11328797   5.726   3.313   2.381  0.5910 -0.3751 -0.6597
  143MOL   C11428798   5.958   3.256   2.339  0.5154  0.0473 -0.3903
  143MOL   C11528799   5.999   3.406   2.370  0.2357 -0.5813 -0.5523
  143MOL   N11628800   5.924   3.516   2.303  0.2409 -0.4243 -0.3135
  143MOL   H11728801   5.980   3.221   2.239 -1.5634  1.2316 -1.2872
  143MOL   H11828802   6.024   3.196   2.402  1.2637  2.2614  0.9917
  143MOL   H11928803   5.989   3.416   2.478 -0.7204 -3.8163 -0.2906
  143MOL   H12028804   6.105   3.418   2.344  0.4651  1.1201  1.0846
  143MOL   H12128805   5.830   3.527   2.339  0.1695 -1.2316 -0.2420
  143MOL   C12228806   5.968   3.598   2.215  0.3332 -0.4801 -0.6064
  143MOL   O12328807   6.083   3.604   2.172  0.0274  0.0894  0.2521
  143MOL   C12428808   5.865   3.707   2.181  0.3577 -0.4747  0.3244
  143MOL   C12528809   5.878   3.742   2.032 -1.1213 -0.4087  0.9523
  143MOL   N12628810   5.801   3.855   1.982 -1.1532 -0.2958  0.4107
  143MOL   H12728811   5.892   3.802   2.226  1.6820 -0.5348 -0.3370
  143MOL   H12828812   5.760   3.694   2.207 -0.1054  0.0732 -1.2248
  143MOL   H12928813   5.984   3.765   2.019 -1.2170 -1.3346 -1.8732
  143MOL   H13028814   5.854   3.658   1.967  0.2678 -0.8164  0.9465
  143MOL   H13128815   5.854   3.932   1.945  1.5803 -2.0232  0.6419
  143MOL   C13228816   5.669   3.860   1.982  0.2885 -0.8169 -0.1840
  143MOL   O13328817   5.597   3.776   2.041  0.0488  0.3677  0.2386
  143MOL   C13428818   5.604   3.985   1.910 -0.0436  0.4872 -0.0140
  143MOL   C13528819   5.535   4.087   2.010 -0.0194  0.0735 -0.0528
  143MOL   N13628820   5.638   4.184   2.053 -0.8388 -0.2379  0.1943
  143MOL   H13728821   5.522   3.947   1.849 -0.0804 -1.6082  1.3164
  143MOL   H13828822   5.674   4.046   1.853  0.4827  0.1108  0.2327
  143MOL   H13928823   5.460   4.141   1.952 -0.2170 -1.4789 -1.2932
  143MOL   H14028824   5.507   4.024   2.094  0.1040  0.7395  0.4895
  143MOL   H14128825   5.728   4.183   2.007 -0.0631 -1.1302  1.6778
  143MOL   C14228826   5.650   4.237   2.178  0.0810  0.5171  0.2401
  143MOL   O14328827   5.571   4.227   2.273  0.3709  0.2495  0.1959
  143MOL   C14428828   5.777   4.306   2.207 -0.5234 -0.4505  0.1344
  143MOL   C14528829   5.763   4.427   2.288 -0.2359 -1.2142  0.1023
  143MOL   N14628830   5.881   4.508   2.291  0.0631  0.2430  0.2559
  143MOL   H14728831   5.839   4.326   2.120  1.1961 -1.5739  1.0505
  143MOL   H14828832   5.835   4.233   2.264  0.6883 -0.1417 -0.6891
  143MOL   H14928833   5.679   4.489   2.257  1.4180 -0.4316 -3.0561
  143MOL   H15028834   5.742   4.405   2.392 -0.7832 -0.2968  0.1854
  143MOL   H15128835   5.958   4.481   2.350  0.6663  1.2586 -0.0491
  143MOL   C15228836   5.904   4.614   2.213  0.7095 -0.0471  0.7924
  143MOL   O15328837   5.819   4.661   2.135  0.2346  0.2038  0.3268
  143MOL   C15428838   6.034   4.683   2.215 -0.1304  0.5115  0.4243
  143MOL   C15528839   6.020   4.839   2.211  0.2320 -0.2362  0.4739
  143MOL   N15628840   6.140   4.912   2.247  0.8579 -0.0934 -0.4572
  143MOL   H15728841   6.077   4.655   2.118  0.0697  0.5292  0.5074
  143MOL   H15828842   6.099   4.657   2.299  0.9792  0.0696 -0.5404
  143MOL   H15928843   5.990   4.875   2.113 -1.1800  0.8407  1.2848
  143MOL   H16028844   5.933   4.869   2.269 -0.7894  0.2221 -1.2657
  143MOL   H16128845   6.214   4.867   2.299  1.0526  1.7658  0.9603
  143MOL   C16228846   6.164   5.042   2.236  0.3937  0.2236 -0.4468
  143MOL   O16328847   6.091   5.114   2.172  0.2100 -0.4347 -0.2292
  143MOL   C16428848   6.293   5.084   2.296  0.6792 -0.1983  0.1105
  143MOL   C16528849   6.316   5.237   2.292  0.0112  0.0284 -0.8575
  143MOL   N16628850   6.393   5.292   2.406 -0.8872  0.8691 -0.5117
  143MOL   H16728851   6.379   5.034   2.252 -0.2933 -0.4701 -1.5436
  143MOL   H16828852   6.299   5.057   2.401 -2.7557 -2.2784 -0.1623
  143MOL   H16928853   6.370   5.262   2.201  1.5585 -0.8970 -0.2162
  143MOL   H17028854   6.218   5.285   2.287 -0.1428 -0.0236  1.2643
  143MOL   H17128855   6.494   5.292   2.404 -0.8837 -0.4819 -0.7883
  143MOL   C17228856   6.343   5.349   2.515 -0.3132 -0.1210 -0.3443
  143MOL   O17328857   6.223   5.370   2.528  0.2142 -0.3620  0.3417
  143MOL   C17428858   6.431   5.374   2.637  1.4598 -0.3985  0.1887
  143MOL   C17528859   6.452   5.527   2.665  0.4170 -0.1982 -0.1844
  143MOL   N17628860   6.560   5.582   2.575  0.4961  0.3183 -0.4050
  143MOL   H17728861   6.523   5.316   2.635  0.9849 -1.1463 -0.3338
  143MOL   H17828862   6.377   5.338   2.724 -0.9943  0.7896 -0.7948
  143MOL   H17928863   6.360   5.585   2.660  0.3746 -0.2980 -0.6079
  143MOL   H18028864   6.484   5.556   2.765  1.2344 -0.9652 -0.2146
  143MOL   H18128865   6.653   5.546   2.592  0.1985 -0.3183 -0.0803
  143MOL   C18228866   6.547   5.698   2.513  0.3769  0.6909 -0.8201
  143MOL   O18328867   6.439   5.749   2.516 -0.1167 -0.5766  0.2508
  143MOL   C18428868   6.678   5.764   2.461 -0.8488  0.5094 -0.1083
  143MOL   C18528869   6.659   5.911   2.421 -0.2194 -0.5798 -0.1134
  143MOL   N18628870   6.784   5.966   2.369 -0.1947  0.2074  0.0674
  143MOL   H18728871   6.709   5.702   2.377  2.2654 -0.9913  2.0958
  143MOL   H18828872   6.746   5.750   2.544 -0.5608 -0.7556 -0.5516
  143MOL   H18928873   6.588   5.908   2.338  0.3897  0.9075 -0.7151
  143MOL   H19028874   6.611   5.974   2.496 -0.8658 -2.2466  0.8911
  143MOL   H19128875   6.816   5.936   2.278 -0.5515 -0.2586  0.0952
  143MOL   C19228876   6.871   6.037   2.441 -0.7033 -0.2701 -0.4736
  143MOL   O19328877   6.854   6.088   2.552  0.3706 -0.2596 -0.3316
  143MOL   C19428878   7.009   6.073   2.372  0.0279  0.4272 -0.2949
  143MOL   C19528879   7.007   6.211   2.306  0.6741  0.0394  0.0325
  143MOL   N19628880   7.014   6.329   2.395  0.0764  0.0849  0.6111
  143MOL   H19728881   7.077   6.080   2.457 -0.7278 -0.4045  0.3938
  143MOL   H19828882   7.033   5.998   2.296  3.6332  1.6378 -0.4525
  143MOL   H19928883   7.093   6.224   2.240  0.1218 -0.8072 -0.8599
  143MOL   H20028884   6.930   6.218   2.229  0.0441  1.6533  0.7802
  143MOL   H20128885   7.087   6.326   2.464 -0.2176  0.4256  0.9422
  143MOL   H20228886   6.934   6.360   2.449  2.7780  1.5161  3.9347
  144MOL     C128887   4.752   2.285   7.382  0.1807  0.4541  0.2238
  144MOL     O228888   4.656   2.211   7.378 -0.4344  0.1549  0.0497
  144MOL     C328889   4.885   2.220   7.413  0.3353 -0.3565  0.2088
  144MOL     C428890   4.998   2.327   7.405  0.1611 -0.1474  0.3414
  144MOL     N528891   5.063   2.327   7.278  0.4803 -0.4975  0.1574
  144MOL     H628892   4.896   2.137   7.344  0.4287 -0.0904 -0.0969
  144MOL     H728893   4.872   2.189   7.517 -0.6487 -0.3685  0.0958
  144MOL     H828894   5.080   2.306   7.474  1.6737  2.2801 -0.6327
  144MOL     H928895   4.956   2.424   7.433  1.4809  0.2857  0.8665
  144MOL    H1028896   5.100   2.236   7.254  1.1698  0.0726 -1.0008
  144MOL    H1128897   4.752   2.393   7.373 -0.6174  0.4895  0.5784
  144MOL    C1228898   5.065   2.423   7.187  0.1873 -0.5125  0.0544
  144MOL    O1328899   5.007   2.532   7.200  0.0484  0.3840 -0.0811
  144MOL    C1428900   5.136   2.383   7.056 -0.3651 -0.1908 -0.0611
  144MOL    C1528901   5.100   2.497   6.947 -0.2644 -0.8865  0.1018
  144MOL    N1628902   5.168   2.471   6.820 -0.9009 -0.6157  0.2215
  144MOL    H1728903   5.114   2.280   7.027  3.5194 -1.3094  0.6493
  144MOL    H1828904   5.241   2.391   7.084 -0.6846 -0.0938  1.1111
  144MOL    H1928905   4.992   2.504   6.936 -0.5554 -3.8546  0.5841
  144MOL    H2028906   5.135   2.596   6.976  0.9928 -1.7957  1.8157
  144MOL    H2128907   5.169   2.373   6.797  1.8285 -0.8719  1.2270
  144MOL    C2228908   5.238   2.559   6.746 -0.0349  0.4348  0.0362
  144MOL    O2328909   5.229   2.680   6.775  0.4924 -0.4565  0.0355
  144MOL    C2428910   5.318   2.516   6.624 -0.6416 -0.1002 -1.2169
  144MOL    C2528911   5.451   2.587   6.601 -0.0310  0.7227  0.4247
  144MOL    N2628912   5.437   2.715   6.530 -0.4756 -0.4517 -0.2466
  144MOL    H2728913   5.264   2.524   6.530 -2.2101 -0.5502 -0.3830
  144MOL    H2828914   5.332   2.409   6.639 -0.4151  0.0054 -0.6313
  144MOL    H2928915   5.509   2.605   6.691 -0.0813  0.9827  0.4042
  144MOL    H3028916   5.519   2.520   6.549  0.0435  1.3588 -0.3094
  144MOL    H3128917   5.346   2.758   6.539 -0.2201 -0.2586  1.7431
  144MOL    C3228918   5.537   2.762   6.455  0.0245  0.3770  0.2966
  144MOL    O3328919   5.646   2.710   6.446  0.0667  0.3570 -0.5308
  144MOL    C3428920   5.506   2.884   6.370  0.5559  0.4536 -0.4870
  144MOL    C3528921   5.574   3.008   6.431 -0.3661  0.0353 -0.4510
  144MOL    N3628922   5.723   3.002   6.428 -0.3010 -0.5430  0.2113
  144MOL    H3728923   5.401   2.909   6.357 -0.3006 -3.3398 -1.3599
  144MOL    H3828924   5.544   2.852   6.273 -0.3818  1.1279 -1.0792
  144MOL    H3928925   5.531   3.099   6.389  1.0666  0.9985  0.1027
  144MOL    H4028926   5.540   3.009   6.534 -3.4243 -0.8255 -1.3893
  144MOL    H4128927   5.766   2.916   6.398  0.2940  0.3741 -1.6208
  144MOL    C4228928   5.802   3.097   6.468  0.2021 -0.4442  0.4544
  144MOL    O4328929   5.766   3.209   6.499 -0.5292  0.2814 -0.3538
  144MOL    C4428930   5.948   3.063   6.466 -0.0486  0.0700 -0.5222
  144MOL    C4528931   5.996   3.029   6.609 -0.4592 -0.6696 -0.4967
  144MOL    N4628932   5.924   2.913   6.673 -0.0979 -0.3950  0.1446
  144MOL    H4728933   5.971   2.984   6.394 -0.5467 -1.9379  1.4707
  144MOL    H4828934   5.997   3.149   6.421  1.9356 -0.1827  1.1015
  144MOL    H4928935   6.103   3.006   6.604 -0.4479 -0.6193 -0.4913
  144MOL    H5028936   5.975   3.117   6.669 -0.4655 -0.7892 -0.3249
  144MOL    H5128937   5.866   2.919   6.755  1.5058  0.1964  1.2620
  144MOL    C5228938   5.940   2.787   6.633 -1.0422 -0.4559 -0.3658
  144MOL    O5328939   6.007   2.755   6.534 -0.0105  0.1438  0.3617
  144MOL    C5428940   5.869   2.677   6.705  0.1735  0.3479  0.0697
  144MOL    C5528941   5.902   2.532   6.660 -0.2364  0.0487 -1.0665
  144MOL    N5628942   6.043   2.489   6.679  0.2672  0.1081 -0.3390
  144MOL    H5728943   5.896   2.690   6.810  1.2445  1.6321 -0.3491
  144MOL    H5828944   5.763   2.702   6.699  0.8176  2.8783 -2.0132
  144MOL    H5928945   5.865   2.530   6.557 -0.2601  0.8482 -1.0794
  144MOL    H6028946   5.839   2.460   6.713 -1.6833  0.9030 -1.5920
  144MOL    H6128947   6.113   2.530   6.618  1.2976  0.9127  1.3314
  144MOL    C6228948   6.085   2.412   6.785  0.6561 -0.6516  0.4252
  144MOL    O6328949   6.006   2.366   6.863  0.3367  0.1092 -0.3284
  144MOL    C6428950   6.231   2.383   6.807 -0.5287  0.0271  0.4762
  144MOL    C6528951   6.283   2.399   6.946  0.3364  0.1224  0.3055
  144MOL    N6628952   6.425   2.379   6.949 -0.7070 -0.1130 -0.1956
  144MOL    H6728953   6.253   2.287   6.759  0.7473  1.0780 -1.0824
  144MOL    H6828954   6.292   2.445   6.741  0.2827  1.2326  2.3377
  144MOL    H6928955   6.268   2.506   6.965 -0.4675  0.3838 -1.7550
  144MOL    H7028956   6.228   2.357   7.030  0.2251  0.5971  0.4766
  144MOL    H7128957   6.482   2.463   6.939  1.6579 -1.4398  1.5606
  144MOL    C7228958   6.488   2.257   6.935  0.7062 -0.4242  0.5409
  144MOL    O7328959   6.438   2.146   6.939 -0.5641  0.6353  0.1736
  144MOL    C7428960   6.638   2.273   6.950  0.1047  0.4223 -0.5229
  144MOL    C7528961   6.715   2.173   6.875  0.0262  0.7224 -0.4128
  144MOL    N7628962   6.706   2.037   6.922 -0.5658  0.5687 -0.5174
  144MOL    H7728963   6.668   2.373   6.918  0.0997 -0.3331 -3.0042
  144MOL    H7828964   6.658   2.270   7.057  1.8438 -0.5722 -0.8451
  144MOL    H7928965   6.676   2.174   6.773 -0.3844  0.3830 -0.2589
  144MOL    H8028966   6.814   2.219   6.869 -0.7456  2.4710 -0.1097
  144MOL    H8128967   6.637   1.976   6.879 -1.8318  0.3028  1.8342
  144MOL    C8228968   6.775   1.981   7.027 -0.0762 -0.6628 -0.0600
  144MOL    O8328969   6.867   2.048   7.080  0.0770  0.1760  0.3130
  144MOL    C8428970   6.737   1.836   7.070  0.0586 -0.0620 -0.9869
  144MOL    C8528971   6.734   1.816   7.219 -0.2526  0.1509 -0.3319
  144MOL    N8628972   6.716   1.679   7.256 -0.3726 -0.0378 -0.1349
  144MOL    H8728973   6.634   1.812   7.043  0.1773  0.6398 -2.1112
  144MOL    H8828974   6.796   1.753   7.031  0.1288 -0.4214 -0.1311
  144MOL    H8928975   6.831   1.843   7.261 -0.6425  0.3924  0.4187
  144MOL    H9028976   6.666   1.881   7.273  2.0661  1.4283  1.1631
  144MOL    H9128977   6.622   1.646   7.272 -0.5641  0.6116  0.1042
  144MOL    C9228978   6.816   1.595   7.287  0.2772 -0.3870  0.0113
  144MOL    O9328979   6.929   1.636   7.287  0.0396  0.5650  0.2170
  144MOL    C9428980   6.780   1.448   7.306 -0.2142  0.6321 -0.0721
  144MOL    C9528981   6.902   1.350   7.287 -0.3321  0.1566 -0.5217
  144MOL    N9628982   6.908   1.306   7.151 -0.5868  0.1828  0.6637
  144MOL    H9728983   6.721   1.435   7.397  0.6522 -0.8900  0.2807
  144MOL    H9828984   6.710   1.419   7.228 -0.7548  1.2538  0.1727
  144MOL    H9928985   6.995   1.399   7.315 -0.2294 -1.1520  1.5507
  144MOL   H10028986   6.900   1.271   7.363 -0.4306 -0.3577 -1.0591
  144MOL   H10128987   6.979   1.337   7.086 -1.4785  4.2599  1.4546
  144MOL   C10228988   6.821   1.226   7.091  0.4851  0.2424  0.4479
  144MOL   O10328989   6.718   1.190   7.145 -0.0947  0.2116  0.2099
  144MOL   C10428990   6.850   1.188   6.953  0.5370  0.4456  0.4318
  144MOL   C10528991   6.785   1.055   6.911 -0.2380  0.5017  0.4149
  144MOL   N10628992   6.841   0.937   6.986 -0.6519 -0.4885  0.4691
  144MOL   H10728993   6.958   1.191   6.937  0.7524 -2.6791  1.0489
  144MOL   H10828994   6.822   1.261   6.877 -0.2977  0.0274  0.3295
  144MOL   H10928995   6.678   1.071   6.918  0.0882  3.6688 -1.0582
  144MOL   H11028996   6.812   1.060   6.806 -0.7305 -0.4474  0.2368
  144MOL   H11128997   6.917   0.944   7.052  0.4414  0.5029 -0.8504
  144MOL   C11228998   6.805   0.816   6.953 -0.1550 -0.1052  0.0681
  144MOL   O11328999   6.738   0.785   6.856  1.0490  0.7524  0.1484
  144MOL   C11429000   6.862   0.701   7.038 -0.1277  0.2075 -0.6660
  144MOL   C11529001   6.811   0.565   6.994 -0.3793 -0.3100 -0.1985
  144MOL   N11629002   6.894   0.461   7.060 -0.3970  0.2242  0.3393
  144MOL   H11729003   6.829   0.717   7.141  2.0901  0.4710  0.0133
  144MOL   H11829004   6.970   0.713   7.036  0.2291 -2.3629  0.9526
  144MOL   H11929005   6.709   0.546   7.026  0.4780 -1.0350  2.2208
  144MOL   H12029006   6.814   0.554   6.885 -1.1413 -1.4104 -0.1221
  144MOL   H12129007   6.880   0.432   7.156 -0.0227  2.0040  0.9608
  144MOL   C12229008   6.994   0.400   6.994  0.4678  0.0882  0.6275
  144MOL   O12329009   7.016   0.422   6.873  0.4421 -0.2345 -0.4568
  144MOL   C12429010   7.089   0.315   7.077  0.3950  0.6212 -0.2694
  144MOL   C12529011   7.108   0.173   7.021 -0.3947  0.4550 -0.3045
  144MOL   N12629012   7.201   0.098   7.107 -0.1704 -0.0301  0.1981
  144MOL   H12729013   7.043   0.307   7.175  0.0033 -1.2657 -0.5905
  144MOL   H12829014   7.182   0.372   7.084  1.0889 -0.4199 -0.8647
  144MOL   H12929015   7.017   0.113   7.028  0.6911 -1.0618  1.0857
  144MOL   H13029016   7.139   0.181   6.916  0.2921 -1.8323 -0.3034
  144MOL   H13129017   7.249   0.157   7.174  1.6194 -1.4739  0.2321
  144MOL   C13229018   7.241   7.756   7.093  0.3504 -0.9906 -0.1999
  144MOL   O13329019   7.326   7.713   7.169  0.3883  0.1524 -0.1230
  144MOL   C13429020   7.191   7.671   6.979 -0.1617  0.4558  0.4896
  144MOL   C13529021   7.287   7.557   6.933 -0.3679  0.1813 -0.0576
  144MOL   N13629022   7.244   7.498   6.810  0.3002  0.1930  0.7824
  144MOL   H13729023   7.160   7.739   6.900 -0.7350 -3.4092 -2.7810
  144MOL   H13829024   7.097   7.634   7.022  0.0942  0.0671  0.7123
  144MOL   H13929025   7.385   7.597   6.909 -0.9335  1.7839  0.2563
  144MOL   H14029026   7.286   7.475   7.005  0.8967  1.0893  1.0129
  144MOL   H14129027   7.147   7.519   6.789 -0.1195  0.1772  2.5908
  144MOL   C14229028   7.326   7.426   6.727  0.9508  0.0205  0.5796
  144MOL   O14329029   7.444   7.412   6.760  0.2540 -0.4533 -0.0093
  144MOL   C14429030   7.267   7.357   6.606  0.2165  0.8746  0.3785
  144MOL   C14529031   7.366   7.277   6.521 -0.4538  0.6914  0.1565
  144MOL   N14629032   7.295   7.213   6.414 -0.2886  0.5728  0.2301
  144MOL   H14729033   7.214   7.426   6.540 -0.6602  1.1433  1.3466
  144MOL   H14829034   7.184   7.296   6.640  2.4082 -0.6786  3.1246
  144MOL   H14929035   7.453   7.332   6.483  0.7269 -0.7193  0.7373
  144MOL   H15029036   7.411   7.196   6.580  1.0292  1.0486 -0.4512
  144MOL   H15129037   7.259   7.122   6.438 -0.1723 -0.1212 -2.0973
  144MOL   C15229038   7.255   7.266   6.303  0.6880 -0.5096  0.5529
  144MOL   O15329039   7.284   7.381   6.268 -0.2204 -0.6324  0.2070
  144MOL   C15429040   7.154   7.181   6.226 -0.1464  0.3030  0.4505
  144MOL   C15529041   7.036   7.260   6.173  1.4232 -0.0444  0.2035
  144MOL   N15629042   6.903   7.187   6.175 -0.2392 -0.3389 -0.3615
  144MOL   H15729043   7.108   7.114   6.297  0.3772 -0.9184 -0.3432
  144MOL   H15829044   7.202   7.120   6.149 -0.9559 -1.2820  1.1861
  144MOL   H15929045   7.023   7.347   6.236  1.0209 -0.3534  0.5532
  144MOL   H16029046   7.054   7.300   6.073  0.0347 -1.2136 -0.5486
  144MOL   H16129047   6.875   7.166   6.270 -0.8159  0.9434 -0.2249
  144MOL   C16229048   6.814   7.184   6.074  0.7555  0.2652 -0.8013
  144MOL   O16329049   6.844   7.228   5.963 -0.2876  0.8716 -0.4971
  144MOL   C16429050   6.683   7.110   6.104 -0.3776  0.0087  0.1424
  144MOL   C16529051   6.585   7.108   5.985  0.5036 -0.8263  0.1689
  144MOL   N16629052   6.467   7.028   6.018 -0.1706  0.5298  0.6234
  144MOL   H16729053   6.641   7.159   6.192 -0.6748  0.2643 -0.1370
  144MOL   H16829054   6.697   7.004   6.124 -2.2251  0.0784  1.9117
  144MOL   H16929055   6.562   7.210   5.955  1.1685 -0.2006  1.7170
  144MOL   H17029056   6.640   7.056   5.906  1.7510 -0.5931  0.8611
  144MOL   H17129057   6.475   6.957   6.089 -1.8090  0.3933  0.6962
  144MOL   C17229058   6.356   7.049   5.955  0.1696 -0.4318 -0.0055
  144MOL   O17329059   6.347   7.141   5.870 -0.1633  0.2027 -0.2073
  144MOL   C17429060   6.239   6.956   6.001 -0.5231  0.2943 -1.1639
  144MOL   C17529061   6.169   6.899   5.874  0.1797 -0.2960 -0.3060
  144MOL   N17629062   6.049   6.815   5.890 -0.2572 -0.5722  0.2777
  144MOL   H17729063   6.172   7.023   6.054  0.0968 -1.4146  1.8489
  144MOL   H17829064   6.274   6.880   6.070 -0.3046  0.3830 -1.1765
  144MOL   H17929065   6.131   6.986   5.821 -0.6960 -0.9193 -0.6993
  144MOL   H18029066   6.228   6.835   5.809  0.7398  0.7316 -0.8314
  144MOL   H18129067   5.964   6.840   5.843 -0.9576  0.2155  1.9487
  144MOL   C18229068   6.040   6.700   5.959  0.4081 -0.8650  0.0952
  144MOL   O18329069   6.132   6.658   6.026  0.1929 -0.2072 -0.3533
  144MOL   C18429070   5.903   6.633   5.963 -0.3043 -1.0593  0.5276
  144MOL   C18529071   5.832   6.632   6.094 -0.7008 -0.3305 -0.4520
  144MOL   N18629072   5.795   6.757   6.143  0.3075 -0.3961 -0.4916
  144MOL   H18729073   5.916   6.529   5.932 -1.2109 -0.8492 -0.5710
  144MOL   H18829074   5.840   6.681   5.888 -1.6412 -2.8363  0.4829
  144MOL   H18929075   5.743   6.569   6.085  0.4627 -1.9543 -0.7763
  144MOL   H19029076   5.893   6.582   6.169 -0.8059  0.1839 -0.0163
  144MOL   H19129077   5.826   6.787   6.234 -2.2590  1.6846 -0.2335
  144MOL   C19229078   5.705   6.846   6.100 -0.1824  0.3040 -0.0898
  144MOL   O19329079   5.642   6.833   5.993 -0.5719  0.3460  0.1349
  144MOL   C19429080   5.719   6.975   6.176  0.3492  0.0696 -1.1007
  144MOL   C19529081   5.646   7.095   6.113  0.5805 -0.3309  0.1838
  144MOL   N19629082   5.503   7.098   6.147  0.2836 -0.5573  0.3760
  144MOL   H19729083   5.681   6.964   6.277  1.0770  0.1104 -0.8207
  144MOL   H19829084   5.825   6.987   6.197  0.3626 -0.2326 -0.9852
  144MOL   H19929085   5.686   7.184   6.161 -1.6487  0.3749  0.8394
  144MOL   H20029086   5.666   7.117   6.008 -1.1526 -0.1107 -0.1261
  144MOL   H20129087   5.486   7.086   6.246 -0.3066  1.2438  0.5226
  144MOL   H20229088   5.483   7.196   6.133  1.4261 -0.4145 -0.3163
  145MOL     C129089   2.219   3.056   5.878 -0.5869 -1.0351  0.0671
  145MOL     O229090   2.106   3.083   5.918  0.2105  0.1201  0.2495
  145MOL     C329091   2.331   3.159   5.863  0.2958 -0.2149  0.4274
  145MOL     C429092   2.308   3.271   5.756  0.6948 -0.1196  0.1979
  145MOL     N529093   2.430   3.303   5.688 -0.0559 -0.3656 -0.1150
  145MOL     H629094   2.425   3.104   5.858 -0.5999 -1.7475  0.1666
  145MOL     H729095   2.349   3.208   5.959 -3.1704  1.5281  0.2832
  145MOL     H829096   2.260   3.363   5.789 -0.2138 -0.0786 -1.1996
  145MOL     H929097   2.244   3.237   5.674  1.0557 -1.7420  0.5728
  145MOL    H1029098   2.496   3.229   5.672 -0.7840 -1.3501  1.2930
  145MOL    H1129099   2.253   2.955   5.856  0.0761 -0.8157  0.0758
  145MOL    C1229100   2.479   3.425   5.668  0.3140 -0.1702 -0.3914
  145MOL    O1329101   2.418   3.526   5.696 -0.0971 -0.3998  0.3230
  145MOL    C1429102   2.620   3.417   5.609  0.0385 -0.6379 -0.8951
  145MOL    C1529103   2.716   3.501   5.699 -0.1596  0.3078 -0.1543
  145MOL    N1629104   2.673   3.638   5.727 -0.1688  1.0243 -0.1316
  145MOL    H1729105   2.610   3.465   5.512  3.2502  1.5572 -0.2024
  145MOL    H1829106   2.649   3.313   5.593 -0.5974 -0.5795 -2.4732
  145MOL    H1929107   2.726   3.451   5.795  1.6161 -2.7583 -1.8347
  145MOL    H2029108   2.817   3.497   5.656 -0.6719 -0.1945 -1.3448
  145MOL    H2129109   2.577   3.660   5.747 -0.7644 -1.4523 -0.0517
  145MOL    C2229110   2.744   3.752   5.720  0.6151 -0.4853  0.3708
  145MOL    O2329111   2.865   3.755   5.695  0.0191  0.4740  0.0099
  145MOL    C2429112   2.660   3.875   5.728 -0.4742  0.1828 -0.0757
  145MOL    C2529113   2.685   3.968   5.857  0.1252 -0.1309 -0.5641
  145MOL    N2629114   2.621   3.920   5.979  0.4658 -0.3659 -0.5078
  145MOL    H2729115   2.555   3.853   5.709 -1.0006  2.5016  0.0301
  145MOL    H2829116   2.700   3.943   5.653  1.2616  0.5028  1.0976
  145MOL    H2929117   2.792   3.967   5.880 -0.0396  3.8994  0.6576
  145MOL    H3029118   2.662   4.071   5.829  2.7322  0.7495  0.2910
  145MOL    H3129119   2.678   3.873   6.047  0.7548  2.4934  1.3110
  145MOL    C3229120   2.492   3.942   6.004 -0.3780 -0.5234 -0.2185
  145MOL    O3329121   2.407   3.987   5.930  0.4977  0.2390  0.5087
  145MOL    C3429122   2.455   3.903   6.147 -0.2086  0.5093  0.2648
  145MOL    C3529123   2.309   3.913   6.191  0.5787 -0.2325  0.0500
  145MOL    N3629124   2.233   4.040   6.155  0.2018  0.3430 -0.5884
  145MOL    H3729125   2.521   3.972   6.200  0.2825 -0.8473  1.4597
  145MOL    H3829126   2.498   3.804   6.165 -4.1700 -1.3686  0.1143
  145MOL    H3929127   2.259   3.824   6.154 -1.9137  1.1532 -0.0579
  145MOL    H4029128   2.298   3.888   6.296 -4.1854 -0.6344 -0.4099
  145MOL    H4129129   2.285   4.121   6.126 -0.4443  1.0662  0.2323
  145MOL    C4229130   2.102   4.058   6.149  0.2568  0.2195 -0.9389
  145MOL    O4329131   2.021   3.966   6.177 -0.0470  0.0496  0.1267
  145MOL    C4429132   2.058   4.197   6.112 -0.1011  0.4189  0.0521
  145MOL    C4529133   2.025   4.212   5.962 -0.1839 -0.9036 -0.0991
  145MOL    N4629134   2.111   4.307   5.899  0.7958 -0.1750  0.2207
  145MOL    H4729135   1.964   4.193   6.167 -0.9343 -2.0025 -1.4454
  145MOL    H4829136   2.120   4.280   6.147 -0.8163 -0.3252  3.2553
  145MOL    H4929137   2.026   4.120   5.903  0.7043 -1.0163  0.0813
  145MOL    H5029138   1.921   4.242   5.963  0.1329  0.2175  0.8267
  145MOL    H5129139   2.208   4.283   5.881 -0.0889 -2.2606 -2.0163
  145MOL    C5229140   2.080   4.423   5.837  0.6480  0.4269 -0.3718
  145MOL    O5329141   1.967   4.473   5.836  0.1105 -0.4538  0.4935
  145MOL    C5429142   2.196   4.498   5.766  0.1687  0.0549 -0.1607
  145MOL    C5529143   2.162   4.645   5.725 -0.3550 -0.4506 -0.1325
  145MOL    N5629144   2.153   4.735   5.842 -0.1517  0.0927  0.1168
  145MOL    H5729145   2.286   4.494   5.827 -0.1645 -0.6618  0.2885
  145MOL    H5829146   2.225   4.446   5.674  1.4327  0.3171  0.0940
  145MOL    H5929147   2.066   4.655   5.674  1.0377  2.2273 -2.3618
  145MOL    H6029148   2.234   4.681   5.652 -1.4537  0.8545 -0.5966
  145MOL    H6129149   2.215   4.719   5.919  1.0117 -1.8710 -1.1935
  145MOL    C6229150   2.060   4.836   5.851  0.6921  0.4619  0.0414
  145MOL    O6329151   1.995   4.872   5.752 -0.7826 -0.0265  0.2026
  145MOL    C6429152   2.039   4.915   5.989  0.4136  0.2458  0.5246
  145MOL    C6529153   2.078   4.850   6.130 -0.1213 -0.8943  0.0235
  145MOL    N6629154   2.219   4.868   6.172 -0.1136 -0.2046  0.2145
  145MOL    H6729155   2.091   5.010   5.981 -0.0390  0.5145  0.7593
  145MOL    H6829156   1.933   4.938   5.993  0.4834  1.5611 -3.4807
  145MOL    H6929157   2.016   4.904   6.202 -1.6609  0.4552 -2.2621
  145MOL    H7029158   2.056   4.743   6.140  0.0370 -0.8271  1.1437
  145MOL    H7129159   2.232   4.941   6.240 -1.6320 -0.4215  0.7662
  145MOL    C7229160   2.325   4.794   6.135  0.0224  0.5507 -0.0350
  145MOL    O7329161   2.306   4.693   6.062 -0.1101  0.0142  0.5150
  145MOL    C7429162   2.464   4.826   6.190  0.0624  0.0405  0.1802
  145MOL    C7529163   2.562   4.885   6.085  0.6795 -0.2617 -0.3753
  145MOL    N7629164   2.530   5.024   6.054 -0.2828  0.2169  0.4620
  145MOL    H7729165   2.460   4.907   6.263  2.0336 -0.0276  0.4113
  145MOL    H7829166   2.493   4.734   6.241 -0.4984 -0.1406  0.1654
  145MOL    H7929167   2.659   4.888   6.134 -0.6249  2.6972  2.2057
  145MOL    H8029168   2.571   4.828   5.993 -1.2628 -4.4376  1.8543
  145MOL    H8129169   2.457   5.071   6.105  1.0526 -0.2799  2.8950
  145MOL    C8229170   2.598   5.113   5.980  0.0867  1.0097 -0.6168
  145MOL    O8329171   2.701   5.081   5.919 -0.0721  0.1072 -0.3389
  145MOL    C8429172   2.519   5.247   5.945  0.4919 -0.1043 -0.0245
  145MOL    C8529173   2.602   5.374   5.941 -0.0973  0.6251  0.0006
  145MOL    N8629174   2.646   5.415   6.073 -0.0259  0.6691 -0.2495
  145MOL    H8729175   2.469   5.244   5.848 -1.6853  1.6876  1.0069
  145MOL    H8829176   2.439   5.259   6.017  0.1792  1.2958 -0.6061
  145MOL    H8929177   2.685   5.367   5.870 -0.1705  0.2009 -0.0430
  145MOL    H9029178   2.539   5.455   5.904 -0.8710 -0.4953 -1.1465
  145MOL    H9129179   2.734   5.381   6.109 -0.4135  0.0384  0.1270
  145MOL    C9229180   2.571   5.496   6.153 -0.0734 -0.2903  0.4619
  145MOL    O9329181   2.457   5.526   6.114  0.2445 -0.3097  0.5313
  145MOL    C9429182   2.613   5.521   6.293  0.3099  0.3111 -0.3942
  145MOL    C9529183   2.568   5.658   6.354 -0.3269 -0.4966  0.6275
  145MOL    N9629184   2.613   5.684   6.490 -0.4408  0.4195 -0.0229
  145MOL    H9729185   2.586   5.437   6.357  0.6399  1.4131  1.2353
  145MOL    H9829186   2.722   5.515   6.298  0.3542  2.0251  1.3629
  145MOL    H9929187   2.608   5.736   6.289  1.8634 -1.1422  1.1444
  145MOL   H10029188   2.460   5.658   6.343 -0.1346 -1.1336 -1.5762
  145MOL   H10129189   2.704   5.727   6.489 -0.6196  0.8181  0.6401
  145MOL   C10229190   2.554   5.647   6.610 -0.1311  0.6462  0.9296
  145MOL   O10329191   2.449   5.587   6.620 -0.0132 -0.2461  0.1902
  145MOL   C10429192   2.636   5.693   6.735  1.3309  0.6003 -0.0998
  145MOL   C10529193   2.608   5.615   6.863  0.0061  0.2794 -0.2346
  145MOL   N10629194   2.652   5.679   6.984  0.0825 -0.1383 -0.4657
  145MOL   H10729195   2.603   5.794   6.759 -0.0731  0.3556 -0.9194
  145MOL   H10829196   2.743   5.700   6.715  1.6148 -0.8184  0.8223
  145MOL   H10929197   2.499   5.606   6.862  0.2832 -3.7408 -2.8638
  145MOL   H11029198   2.634   5.510   6.866 -0.1743  0.2841  2.2044
  145MOL   H11129199   2.749   5.678   7.010 -0.7280 -1.3019  2.7148
  145MOL   C11229200   2.567   5.754   7.059  0.6300  0.3708  0.1587
  145MOL   O11329201   2.448   5.761   7.032  0.4556 -0.2407  0.5851
  145MOL   C11429202   2.620   5.839   7.177 -0.1635 -0.3876 -0.1892
  145MOL   C11529203   2.551   5.816   7.307 -0.2230  1.0273 -0.4279
  145MOL   N11629204   2.406   5.826   7.317  0.3490  0.2470 -0.3462
  145MOL   H11729205   2.612   5.946   7.158  0.8089 -0.6125 -1.9449
  145MOL   H11829206   2.729   5.838   7.184 -0.1738  2.7347  1.1014
  145MOL   H11929207   2.585   5.720   7.345 -0.9882  1.2816  0.9230
  145MOL   H12029208   2.589   5.885   7.382  2.5246 -0.4639 -0.3673
  145MOL   H12129209   2.373   5.920   7.299 -0.8598  0.0847  0.9459
  145MOL   C12229210   2.323   5.725   7.348  0.0205  0.0196 -0.2127
  145MOL   O12329211   2.358   5.616   7.401  0.3357  0.0752  0.1068
  145MOL   C12429212   2.175   5.732   7.306 -0.3087 -0.1286  0.3846
  145MOL   C12529213   2.123   5.603   7.241  0.3138  0.0988  0.6680
  145MOL   N12629214   2.176   5.591   7.104 -0.3555  0.4300  0.2115
  145MOL   H12729215   2.145   5.824   7.257 -0.0653 -0.3973 -0.2682
  145MOL   H12829216   2.112   5.734   7.395 -1.6344 -2.2832 -0.4572
  145MOL   H12929217   2.138   5.511   7.298  0.1312  0.9583  2.1172
  145MOL   H13029218   2.017   5.617   7.220  0.4953 -1.1806 -1.1927
  145MOL   H13129219   2.228   5.667   7.062 -1.5819  0.6044 -1.0421
  145MOL   C13229220   2.153   5.473   7.038  0.7626  0.3083 -0.4392
  145MOL   O13329221   2.064   5.395   7.082 -0.1583 -0.1245 -0.4094
  145MOL   C13429222   2.239   5.459   6.906 -0.4452 -0.4190  0.1243
  145MOL   C13529223   2.165   5.370   6.802 -0.2328 -0.2362  0.2126
  145MOL   N13629224   2.160   5.230   6.854 -0.6344 -0.2425  0.0384
  145MOL   H13729225   2.333   5.413   6.936 -0.0832 -0.0592 -0.4584
  145MOL   H13829226   2.271   5.555   6.864  0.3606 -0.3153  0.9609
  145MOL   H13929227   2.071   5.417   6.774 -0.1965 -0.1048  0.3075
  145MOL   H14029228   2.230   5.365   6.715  0.6040 -1.4372  0.8768
  145MOL   H14129229   2.067   5.198   6.877 -0.5999  0.3888  1.0705
  145MOL   C14229230   2.263   5.146   6.864  0.0268  0.3731 -0.4055
  145MOL   O14329231   2.381   5.180   6.849  0.1737  0.9612  0.5492
  145MOL   C14429232   2.237   5.002   6.901 -0.1923 -0.0803  0.7350
  145MOL   C14529233   2.203   4.927   6.770 -0.3936 -0.8616 -0.0777
  145MOL   N14629234   2.070   4.945   6.718 -0.5028 -0.3898 -0.4315
  145MOL   H14729235   2.168   5.000   6.985 -0.8794  1.1383  0.2242
  145MOL   H14829236   2.334   4.963   6.932  0.4612 -0.6098 -1.8426
  145MOL   H14929237   2.276   4.957   6.694  1.3288  1.4179  2.3863
  145MOL   H15029238   2.218   4.820   6.786  1.0015 -0.6810 -0.0766
  145MOL   H15129239   2.004   4.968   6.790  0.5631 -2.6584  1.3347
  145MOL   C15229240   2.034   4.933   6.585 -0.4837 -0.3109 -0.1904
  145MOL   O15329241   2.123   4.920   6.498 -0.2102 -0.3330 -0.0588
  145MOL   C15429242   1.884   4.913   6.547  0.2509  0.3164  0.1373
  145MOL   C15529243   1.830   5.010   6.440 -0.2577  0.3459 -0.3965
  145MOL   N15629244   1.847   5.147   6.482  0.0801  0.1222 -0.5849
  145MOL   H15729245   1.820   4.909   6.635  2.4305 -2.6883  1.7022
  145MOL   H15829246   1.878   4.813   6.503  0.3029  0.3004  0.1668
  145MOL   H15929247   1.895   4.997   6.353  1.2046  2.2368  0.3822
  145MOL   H16029248   1.733   4.989   6.396 -0.0736 -0.2025 -0.5524
  145MOL   H16129249   1.941   5.181   6.493 -0.1034  0.4079  0.0890
  145MOL   C16229250   1.751   5.236   6.502 -0.4468  0.0463 -0.2403
  145MOL   O16329251   1.636   5.207   6.472 -0.9086  0.5885  0.0841
  145MOL   C16429252   1.788   5.378   6.551 -0.1960 -0.0616 -0.5370
  145MOL   C16529253   1.766   5.480   6.447  0.7613  0.1173  0.4260
  145MOL   N16629254   1.845   5.601   6.451  0.3082  0.1437 -0.8150
  145MOL   H16729255   1.895   5.371   6.571 -0.6495 -3.7218  0.8919
  145MOL   H16829256   1.734   5.411   6.639 -0.6376 -0.8528 -0.5068
  145MOL   H16929257   1.778   5.433   6.350 -2.3067 -0.1158  0.1290
  145MOL   H17029258   1.660   5.500   6.458  1.1202  1.8790  0.9263
  145MOL   H17129259   1.906   5.621   6.530  0.4876  0.8368 -1.1207
  145MOL   C17229260   1.887   5.661   6.339 -0.0720  0.2100  0.3665
  145MOL   O17329261   1.853   5.626   6.228  0.2309 -0.2429 -0.7026
  145MOL   C17429262   2.004   5.768   6.351  0.0602 -0.2463 -0.4417
  145MOL   C17529263   2.147   5.709   6.381 -0.1845  0.1434 -0.9519
  145MOL   N17629264   2.200   5.767   6.501  0.4078 -0.4161 -0.2882
  145MOL   H17729265   1.965   5.823   6.436  1.5039  1.1972 -0.6721
  145MOL   H17829266   2.007   5.842   6.271  0.2044 -1.1595 -1.2838
  145MOL   H17929267   2.145   5.601   6.369 -0.1826 -0.0122  0.3775
  145MOL   H18029268   2.204   5.749   6.298 -0.7951  0.9164 -1.0150
  145MOL   H18129269   2.287   5.817   6.489  1.3055 -1.3198  2.1313
  145MOL   C18229270   2.155   5.746   6.625 -0.1583  0.4211  0.0198
  145MOL   O18329271   2.066   5.665   6.653 -0.2243  0.7590 -0.2254
  145MOL   C18429272   2.228   5.821   6.732 -0.2363 -0.1487  0.2484
  145MOL   C18529273   2.137   5.877   6.839 -0.0401  0.1123  0.7954
  145MOL   N18629274   2.219   5.961   6.922  0.2369 -0.0227  0.2803
  145MOL   H18729275   2.296   5.897   6.693  1.2050 -2.0902 -1.1091
  145MOL   H18829276   2.297   5.755   6.783  1.9594  1.4484 -0.5508
  145MOL   H18929277   2.065   5.944   6.791  0.6491 -1.8352 -3.1549
  145MOL   H19029278   2.095   5.796   6.899 -0.5453 -0.3948 -0.2344
  145MOL   H19129279   2.314   5.926   6.922  0.3226  0.2124 -0.1660
  145MOL   C19229280   2.197   6.077   6.985 -0.1661 -0.1579 -0.7824
  145MOL   O19329281   2.091   6.134   6.990 -0.3149  0.2593  0.6019
  145MOL   C19429282   2.320   6.134   7.055 -0.0181  0.2459  0.0119
  145MOL   C19529283   2.297   6.221   7.183  0.0577  0.0842  0.4785
  145MOL   N19629284   2.255   6.131   7.293  0.2272  0.1852  0.5163
  145MOL   H19729285   2.382   6.051   7.090  0.4810  0.5587 -0.1232
  145MOL   H19829286   2.380   6.187   6.981 -1.1557 -2.4874 -2.9754
  145MOL   H19929287   2.387   6.280   7.198  0.1534  0.8240 -2.7213
  145MOL   H20029288   2.219   6.296   7.168 -1.9339 -2.2558 -1.2784
  145MOL   H20129289   2.154   6.125   7.290  0.1668  1.4478 -0.8163
  145MOL   H20229290   2.268   6.183   7.378 -0.6627 -1.4446  1.6882
  146MOL     C129291   4.910   3.462   6.204 -0.0732 -0.3652 -0.7511
  146MOL     O229292   5.015   3.429   6.266  1.0816  0.0948 -0.4894
  146MOL     C329293   4.910   3.488   6.050 -0.1101 -0.7042 -0.3688
  146MOL     C429294   5.029   3.558   6.002  0.2768 -0.8704  0.5597
  146MOL     N529295   5.041   3.695   6.054 -0.2168 -0.0270  0.2246
  146MOL     H629296   4.825   3.554   6.037  0.1657 -0.2848 -0.0304
  146MOL     H729297   4.888   3.399   5.991 -1.7102 -1.2292  0.9808
  146MOL     H829298   5.027   3.565   5.893 -2.5789 -0.2679  0.6185
  146MOL     H929299   5.119   3.501   6.028  0.9876 -0.5535 -1.1604
  146MOL    H1029300   5.097   3.705   6.137  1.2462  0.7677 -0.8344
  146MOL    H1129301   4.813   3.474   6.253  1.2311  2.2094  1.3236
  146MOL    C1229302   4.980   3.807   6.013  0.2928  0.4416  0.6052
  146MOL    O1329303   4.897   3.795   5.926 -0.6715 -0.2849  0.2724
  146MOL    C1429304   5.003   3.938   6.087 -0.6917 -0.2461  0.3856
  146MOL    C1529305   4.881   4.023   6.125 -0.2708  0.9365 -0.1602
  146MOL    N1629306   4.810   4.062   6.007 -0.5942  0.2008 -0.3130
  146MOL    H1729307   5.061   3.999   6.018 -1.4172 -0.9786 -0.9021
  146MOL    H1829308   5.069   3.918   6.172  2.0693  2.3862 -1.0503
  146MOL    H1929309   4.812   3.959   6.180  0.3330 -0.6826 -1.2259
  146MOL    H2029310   4.914   4.101   6.193 -0.4717  1.5192 -0.7296
  146MOL    H2129311   4.761   3.984   5.964  0.7197 -0.0230 -1.4306
  146MOL    C2229312   4.770   4.185   5.977 -0.4105  0.0641  0.6327
  146MOL    O2329313   4.803   4.281   6.046 -0.0162  0.3857 -0.1638
  146MOL    C2429314   4.678   4.209   5.857 -1.0898  0.3476  0.2774
  146MOL    C2529315   4.728   4.334   5.784 -0.7232 -1.2262  0.0104
  146MOL    N2629316   4.639   4.377   5.671  0.7596  0.3205  0.0595
  146MOL    H2729317   4.573   4.210   5.887 -0.8679  1.5072  1.0265
  146MOL    H2829318   4.706   4.125   5.794  1.7303  1.8648 -0.6140
  146MOL    H2929319   4.723   4.418   5.853  1.7734  0.3973 -1.7179
  146MOL    H3029320   4.831   4.337   5.751 -0.1751  1.2525  1.8266
  146MOL    H3129321   4.576   4.456   5.682 -1.7009 -1.4043 -1.2885
  146MOL    C3229322   4.613   4.308   5.559  0.0022 -0.3080 -0.8707
  146MOL    O3329323   4.689   4.224   5.514  0.4191  0.0442  0.4938
  146MOL    C3429324   4.492   4.354   5.477 -0.0938 -0.2935 -0.6966
  146MOL    C3529325   4.503   4.325   5.326 -0.5525 -0.6447  0.6931
  146MOL    N3629326   4.455   4.197   5.284 -0.2883 -0.3532  0.0219
  146MOL    H3729327   4.470   4.459   5.494 -0.6089 -0.3219 -1.1623
  146MOL    H3829328   4.406   4.298   5.514  0.9563 -0.3206  1.7605
  146MOL    H3929329   4.436   4.401   5.287 -0.1308 -0.8403 -0.4381
  146MOL    H4029330   4.606   4.347   5.296 -0.3852 -0.2512  1.5503
  146MOL    H4129331   4.437   4.129   5.357 -0.1125  1.9415  2.2790
  146MOL    C4229332   4.410   4.170   5.164 -0.0173 -0.0806  0.3541
  146MOL    O4329333   4.422   4.250   5.072 -0.2703  0.4422  0.4876
  146MOL    C4429334   4.350   4.032   5.142  0.4010 -0.3569  0.6682
  146MOL    C4529335   4.325   4.011   4.990 -1.0859  0.0553 -0.3794
  146MOL    N4629336   4.311   3.869   4.979 -0.2184  0.1546 -1.0198
  146MOL    H4729337   4.430   3.961   5.164  0.3140 -1.3958 -2.2066
  146MOL    H4829338   4.257   4.014   5.197  0.2781  0.3810  0.7051
  146MOL    H4929339   4.232   4.051   4.949 -2.1304 -1.3835  0.4924
  146MOL    H5029340   4.407   4.047   4.929 -1.7512  1.0661 -0.6949
  146MOL    H5129341   4.344   3.824   5.062  1.6501  1.4549 -1.0221
  146MOL    C5229342   4.295   3.800   4.866 -0.6258  0.0512  0.0846
  146MOL    O5329343   4.271   3.854   4.762  0.3597  0.1644 -0.1270
  146MOL    C5429344   4.314   3.654   4.872  0.1811  0.2004  0.1831
  146MOL    C5529345   4.187   3.576   4.875 -0.5143  0.4280 -0.2559
  146MOL    N5629346   4.218   3.432   4.888 -0.6503 -0.7900 -0.4116
  146MOL    H5729347   4.361   3.626   4.778 -0.1591  0.8946 -0.1948
  146MOL    H5829348   4.377   3.635   4.959  0.9232  1.6029 -0.0308
  146MOL    H5929349   4.126   3.600   4.788  0.2673  0.2547 -0.8626
  146MOL    H6029350   4.114   3.592   4.954 -1.0542  0.0877 -0.6772
  146MOL    H6129351   4.314   3.404   4.903 -1.5333 -2.2919  3.1436
  146MOL    C6229352   4.135   3.335   4.857  1.0155  0.2411 -0.2490
  146MOL    O6329353   4.021   3.350   4.801  0.1357 -0.0698  0.9679
  146MOL    C6429354   4.178   3.196   4.891  0.1944  0.1314 -0.0181
  146MOL    C6529355   4.239   3.126   4.767  0.3931 -0.6072  0.3700
  146MOL    N6629356   4.130   3.103   4.663  1.0710 -0.1224 -0.1637
  146MOL    H6729357   4.245   3.202   4.976  1.2445 -0.4050 -0.7888
  146MOL    H6829358   4.097   3.130   4.922  0.4018  0.0020  0.2474
  146MOL    H6929359   4.315   3.189   4.722  0.0850  0.9505  1.9704
  146MOL    H7029360   4.294   3.036   4.796 -1.5811 -1.5898  1.1886
  146MOL    H7129361   4.099   3.185   4.612  0.5337  0.0000  0.3630
  146MOL    C7229362   4.036   3.000   4.678  0.3404  0.2797 -1.1204
  146MOL    O7329363   4.049   2.917   4.769  0.2692  0.1646  0.4747
  146MOL    C7429364   3.929   3.004   4.573  0.6752  0.4300 -0.5025
  146MOL    C7529365   3.864   2.869   4.540  0.5880 -0.1008 -0.4215
  146MOL    N7629366   3.732   2.897   4.488  0.8491 -0.4170  1.0026
  146MOL    H7729367   3.853   3.072   4.611 -0.5249 -0.6105 -1.0207
  146MOL    H7829368   3.963   3.056   4.482 -0.1193  0.7936 -0.5913
  146MOL    H7929369   3.915   2.815   4.460 -0.6502 -0.5286 -0.9255
  146MOL    H8029370   3.864   2.790   4.614 -0.1578 -0.1658 -0.4882
  146MOL    H8129371   3.673   2.933   4.561  1.6939  0.3238  1.3298
  146MOL    C8229372   3.695   2.895   4.357  0.1955  0.0909  0.4813
  146MOL    O8329373   3.777   2.882   4.266 -0.9030  0.3299 -0.0774
  146MOL    C8429374   3.552   2.931   4.327 -0.4654 -0.1835 -0.0080
  146MOL    C8529375   3.478   2.803   4.272  0.0745  0.3065 -0.0659
  146MOL    N8629376   3.441   2.708   4.378 -0.2813  0.3291  0.4250
  146MOL    H8729377   3.506   2.968   4.419  1.0329 -1.6882  1.3680
  146MOL    H8829378   3.545   3.012   4.254  2.5218  0.7798  0.7283
  146MOL    H8929379   3.382   2.839   4.235 -0.1050 -0.7726 -0.6968
  146MOL    H9029380   3.526   2.745   4.193 -0.0027  0.5422 -0.2863
  146MOL    H9129381   3.375   2.751   4.441 -0.8823  0.0071  0.0159
  146MOL    C9229382   3.469   2.580   4.395 -0.4616 -0.5260 -0.8895
  146MOL    O9329383   3.538   2.524   4.308 -0.3457 -0.4173  0.4644
  146MOL    C9429384   3.444   2.514   4.533 -0.2202  0.3389  0.2813
  146MOL    C9529385   3.435   2.366   4.526  0.0692 -0.4071  0.3494
  146MOL    N9629386   3.410   2.300   4.653  0.1447 -0.0096 -0.6776
  146MOL    H9729387   3.519   2.536   4.609 -0.5043  1.7077  0.1783
  146MOL    H9829388   3.344   2.543   4.568  0.7228  1.5678  2.0280
  146MOL    H9929389   3.359   2.338   4.452 -2.1357  0.8118  2.0833
  146MOL   H10029390   3.518   2.314   4.478  1.9673  0.6410  2.4415
  146MOL   H10129391   3.496   2.297   4.706 -0.2646 -0.4033 -0.0232
  146MOL   C10229392   3.295   2.241   4.686  0.4867  0.2782 -0.2982
  146MOL   O10329393   3.196   2.236   4.613 -0.4040  0.1785  0.5857
  146MOL   C10429394   3.294   2.186   4.830  0.8171  0.1070  0.1045
  146MOL   C10529395   3.263   2.033   4.842 -0.7723 -0.4884 -0.0593
  146MOL   N10629396   3.260   2.004   4.986 -1.0131 -0.0327 -0.3224
  146MOL   H10729397   3.220   2.248   4.881  0.8370 -0.8543  1.3175
  146MOL   H10829398   3.392   2.205   4.872  0.3481  3.6416 -0.2397
  146MOL   H10929399   3.167   2.010   4.796 -1.3983  1.2784  0.3159
  146MOL   H11029400   3.344   1.978   4.793 -0.2116 -0.4968  0.8648
  146MOL   H11129401   3.206   2.068   5.042  0.3958 -0.0106  1.0268
  146MOL   C11229402   3.298   1.888   5.038 -0.7828  0.1127  0.8981
  146MOL   O11329403   3.320   1.795   4.963 -0.4651 -0.3699  0.3114
  146MOL   C11429404   3.303   1.876   5.190  1.1708  0.0552  0.7854
  146MOL   C11529405   3.263   1.734   5.245  0.3391  0.6538 -0.3906
  146MOL   N11629406   3.233   1.731   5.383  0.7396 -0.0751 -0.0891
  146MOL   H11729407   3.227   1.947   5.222  0.8063  0.2499 -0.4913
  146MOL   H11829408   3.400   1.902   5.233  1.4314  0.2785  0.0729
  146MOL   H11929409   3.173   1.710   5.189 -0.5671  1.4658  0.7058
  146MOL   H12029410   3.334   1.655   5.219 -0.2215  0.1634 -0.4476
  146MOL   H12129411   3.233   1.821   5.428  0.2585  0.1404 -0.5203
  146MOL   C12229412   3.209   1.620   5.453  0.1828 -0.0614  0.1664
  146MOL   O12329413   3.203   1.511   5.394 -0.2073 -0.4464  0.0800
  146MOL   C12429414   3.191   1.625   5.606  0.3445  0.3689 -0.7494
  146MOL   C12529415   3.328   1.668   5.672  0.2823  0.0638 -0.5026
  146MOL   N12629416   3.444   1.590   5.638 -0.1197  0.0263  0.4217
  146MOL   H12729417   3.179   1.518   5.619 -0.4320  0.2137 -2.5455
  146MOL   H12829418   3.100   1.675   5.639 -1.6499 -3.0026 -0.9067
  146MOL   H12929419   3.351   1.769   5.639 -1.1631  1.0032  1.2964
  146MOL   H13029420   3.317   1.677   5.780 -0.4579  0.6372 -0.6198
  146MOL   H13129421   3.518   1.638   5.590  0.2742 -1.8199 -0.8375
  146MOL   C13229422   3.461   1.458   5.664 -0.4646  0.3609  0.2405
  146MOL   O13329423   3.385   1.389   5.733 -0.0851 -0.1953  0.3082
  146MOL   C13429424   3.591   1.399   5.618  0.2144 -0.2230  0.5570
  146MOL   C13529425   3.596   1.246   5.609  0.2086  0.0426  0.3200
  146MOL   N13629426   3.709   1.206   5.527  0.3174  0.0060  0.4742
  146MOL   H13729427   3.667   1.447   5.680 -0.4500  0.1415  1.0903
  146MOL   H13829428   3.612   1.438   5.519 -0.7523 -1.6466 -0.2295
  146MOL   H13929429   3.604   1.202   5.708 -0.4529 -3.1855 -1.0090
  146MOL   H14029430   3.507   1.207   5.561 -0.2552  0.3264  0.9492
  146MOL   H14129431   3.794   1.261   5.524 -0.0731  0.5992  0.2786
  146MOL   C14229432   3.729   1.086   5.474 -0.1021 -0.6839 -0.5279
  146MOL   O14329433   3.653   0.988   5.495  0.1728 -0.4179 -0.4039
  146MOL   C14429434   3.867   1.072   5.389  0.4355 -0.1813  0.4158
  146MOL   C14529435   3.886   0.936   5.329 -0.3638  0.5757  1.1251
  146MOL   N14629436   3.909   0.827   5.426  0.1372 -0.3350  0.1565
  146MOL   H14729437   3.951   1.093   5.455  0.7493  1.6392 -0.5237
  146MOL   H14829438   3.876   1.150   5.313  2.3905 -0.6483  0.1438
  146MOL   H14929439   3.807   0.897   5.264 -1.6968  0.8213  2.5497
  146MOL   H15029440   3.966   0.938   5.255 -0.4770 -4.4902  0.7267
  146MOL   H15129441   3.832   0.799   5.485 -1.0498 -1.3985 -1.8609
  146MOL   C15229442   4.026   0.777   5.464  0.4318  0.3564 -0.0884
  146MOL   O15329443   4.136   0.815   5.417  0.3951  0.4574  0.1442
  146MOL   C15429444   4.017   0.673   5.570  0.2078 -0.5798  0.5101
  146MOL   C15529445   4.143   0.586   5.578  0.1757  0.2606 -0.3735
  146MOL   N15629446   4.112   0.452   5.632 -0.2851  0.2229 -0.2291
  146MOL   H15729447   3.927   0.613   5.575  0.4627 -1.0806 -0.6567
  146MOL   H15829448   3.994   0.727   5.662  0.6844 -0.8406  0.7853
  146MOL   H15929449   4.187   0.564   5.481 -0.9556  3.6809 -1.7477
  146MOL   H16029450   4.223   0.641   5.629  0.4924  0.8086 -1.4348
  146MOL   H16129451   4.021   0.411   5.615 -0.1359 -0.0371 -0.4107
  146MOL   C16229452   4.190   0.380   5.704 -0.6164 -0.6909 -0.5201
  146MOL   O16329453   4.301   0.419   5.743  0.0349 -0.1543  0.1805
  146MOL   C16429454   4.150   0.234   5.740 -1.2842 -0.5610  0.1331
  146MOL   C16529455   4.006   0.212   5.789  0.3879 -0.1952 -0.0842
  146MOL   N16629456   4.003   0.200   5.935 -0.3404 -0.3097  0.1743
  146MOL   H16729457   4.223   0.193   5.810  0.5769  0.9511 -0.8806
  146MOL   H16829458   4.179   0.164   5.661  2.3938  0.4535  0.4830
  146MOL   H16929459   3.934   0.287   5.755 -1.1661 -0.9570  1.4476
  146MOL   H17029460   3.978   0.115   5.750 -1.2326  0.0622  0.3956
  146MOL   H17129461   4.035   0.117   5.982  1.0614 -0.4583 -1.0418
  146MOL   C17229462   3.925   0.277   6.008  0.0079 -0.2374 -0.6939
  146MOL   O17329463   3.877   0.385   5.971 -0.2876  0.1430 -0.6280
  146MOL   C17429464   3.920   0.226   6.147  0.3047 -0.1768  0.1832
  146MOL   C17529465   3.807   0.119   6.154  0.3456  0.6053 -0.4377
  146MOL   N17629466   3.805   0.069   6.294 -0.1840  0.1646  0.4787
  146MOL   H17729467   3.884   0.314   6.200  0.0537 -0.2707  0.1699
  146MOL   H17829468   4.014   0.186   6.183  0.6287 -1.0570 -1.5784
  146MOL   H17929469   3.709   0.160   6.132  0.3378  1.1730  0.6136
  146MOL   H18029470   3.822   0.039   6.082  1.7146 -0.4898  0.9998
  146MOL   H18129471   3.883   0.105   6.346 -0.1753  2.0307 -0.8063
  146MOL   C18229472   3.714   7.761   6.346 -0.1261  0.3567 -0.2142
  146MOL   O18329473   3.623   7.707   6.282 -0.1554 -0.1709 -0.0946
  146MOL   C18429474   3.727   7.714   6.493 -0.2612 -0.4501  0.5300
  146MOL   C18529475   3.734   0.056   6.588 -0.0600 -0.4503 -0.5433
  146MOL   N18629476   3.869   0.086   6.634 -0.6291 -0.3608 -0.3328
  146MOL   H18729477   3.815   7.650   6.500 -1.3192 -1.9669  0.2561
  146MOL   H18829478   3.639   7.653   6.512 -1.6563  1.4922  0.5070
  146MOL   H18929479   3.685   0.146   6.549 -0.2754 -0.8228 -1.1468
  146MOL   H19029480   3.678   0.040   6.680  1.6491  1.9751  0.9840
  146MOL   H19129481   3.891   0.052   6.726 -1.6930 -0.6095 -0.1649
  146MOL   C19229482   3.962   0.166   6.581 -0.1371  0.0600 -0.2118
  146MOL   O19329483   3.947   0.223   6.478 -0.3005  0.0676  0.8096
  146MOL   C19429484   4.094   0.183   6.663 -0.5143  0.7628 -0.4977
  146MOL   C19529485   4.211   0.260   6.597  0.4217  0.5699 -0.3966
  146MOL   N19629486   4.264   0.185   6.491  0.1661 -0.0291  0.7294
  146MOL   H19729487   4.070   0.245   6.749 -0.0125 -1.4840  1.3082
  146MOL   H19829488   4.118   0.084   6.701  0.3345  0.9695 -0.4825
  146MOL   H19929489   4.169   0.354   6.564 -2.1854 -0.5818 -0.4781
  146MOL   H20029490   4.290   0.275   6.671 -0.7483 -0.5656  1.1192
  146MOL   H20129491   4.194   0.181   6.419 -1.3088  2.9743  1.9218
  146MOL   H20229492   4.341   0.236   6.451 -1.4657  1.6732 -0.2971
  147MOL     C129493   1.887   3.719   3.499  0.5113 -0.5502  0.2954
  147MOL     O229494   1.917   3.701   3.615  0.4404  0.3789  0.1665
  147MOL     C329495   1.756   3.792   3.463 -0.0791 -0.5632  0.2219
  147MOL     C429496   1.629   3.720   3.493 -0.3501  0.3025  0.0061
  147MOL     N529497   1.578   3.610   3.402  0.4387 -0.1820  0.1160
  147MOL     H629498   1.754   3.832   3.362 -2.4653  1.3023  0.9593
  147MOL     H729499   1.761   3.890   3.512 -0.4400  0.5111 -1.8580
  147MOL     H829500   1.550   3.793   3.505 -2.6429 -2.4113  2.3113
  147MOL     H929501   1.643   3.677   3.593 -2.1238 -0.5747 -0.1017
  147MOL    H1029502   1.559   3.516   3.435  1.8111 -0.3616  0.4319
  147MOL    H1129503   1.954   3.705   3.414 -0.7390 -1.1163 -0.6188
  147MOL    C1229504   1.546   3.628   3.276  0.2291  0.6060 -0.9840
  147MOL    O1329505   1.567   3.737   3.220 -0.1464 -0.2648  0.1484
  147MOL    C1429506   1.486   3.505   3.221 -0.1484 -0.4625 -0.2909
  147MOL    C1529507   1.338   3.536   3.199  0.0119 -1.0143  0.6506
  147MOL    N1629508   1.251   3.542   3.321 -0.0005  0.0133 -0.5257
  147MOL    H1729509   1.497   3.414   3.280  0.8935  1.2218  2.2043
  147MOL    H1829510   1.540   3.492   3.127  2.2873  1.7100  0.7313
  147MOL    H1929511   1.327   3.624   3.136  0.9054 -2.6259 -1.8534
  147MOL    H2029512   1.308   3.457   3.129  1.8803 -1.4385  0.2862
  147MOL    H2129513   1.245   3.633   3.365  0.9630  0.8522 -2.0933
  147MOL    C2229514   1.181   3.444   3.377  0.4631  0.2831  0.2720
  147MOL    O2329515   1.168   3.339   3.316  0.0590  0.6828 -0.4670
  147MOL    C2429516   1.119   3.464   3.514  0.2849  0.2881 -0.8201
  147MOL    C2529517   1.241   3.464   3.613  0.5353 -0.0449 -0.0746
  147MOL    N2629518   1.186   3.467   3.751  0.1379  0.6171 -0.2944
  147MOL    H2729519   1.049   3.382   3.534 -0.9884  1.6345  0.3414
  147MOL    H2829520   1.078   3.563   3.530 -1.0538 -0.0596 -2.0419
  147MOL    H2929521   1.289   3.367   3.602  0.1363 -0.4295  1.3632
  147MOL    H3029522   1.330   3.524   3.593  1.6209 -2.0599 -1.4782
  147MOL    H3129523   1.112   3.535   3.761  1.6044  2.1206  0.6358
  147MOL    C3229524   1.218   3.388   3.848  0.0301 -0.6296 -0.0431
  147MOL    O3329525   1.303   3.296   3.837 -0.6562  0.4675  0.5218
  147MOL    C3429526   1.136   3.401   3.972  0.8368 -0.7208 -1.0112
  147MOL    C3529527   1.174   3.299   4.078 -0.6010 -0.4641 -0.0130
  147MOL    N3629528   1.314   3.310   4.126  0.4089 -0.7795  0.2778
  147MOL    H3729529   1.033   3.387   3.941  0.5640  1.6221 -1.2165
  147MOL    H3829530   1.143   3.504   4.006 -3.9244 -0.8248  0.5843
  147MOL    H3929531   1.103   3.318   4.159 -1.2591  0.4105 -0.7906
  147MOL    H4029532   1.162   3.196   4.046  0.7095 -0.2041 -1.4002
  147MOL    H4129533   1.381   3.251   4.080  2.2389 -0.4921  2.5029
  147MOL    C4229534   1.358   3.390   4.222 -0.3537  0.6565 -0.1814
  147MOL    O4329535   1.294   3.478   4.274 -0.0336 -0.2439  0.0977
  147MOL    C4429536   1.503   3.378   4.263 -0.5466 -0.2699  0.2171
  147MOL    C4529537   1.566   3.519   4.268  0.1603 -0.5682 -0.4174
  147MOL    N4629538   1.707   3.514   4.274  0.2286  0.4202 -0.6565
  147MOL    H4729539   1.533   3.350   4.364  1.7434 -0.4488 -0.4656
  147MOL    H4829540   1.555   3.319   4.188 -1.2723  1.2436 -1.4989
  147MOL    H4929541   1.534   3.578   4.182 -0.9592 -0.6969 -0.0861
  147MOL    H5029542   1.522   3.569   4.354  0.6725  0.8863 -0.9835
  147MOL    H5129543   1.747   3.421   4.273 -1.6978 -0.4109 -1.1001
  147MOL    C5229544   1.787   3.615   4.292 -0.7131 -0.0612 -0.0106
  147MOL    O5329545   1.752   3.731   4.300 -0.1149  0.0804  0.0757
  147MOL    C5429546   1.934   3.584   4.307 -0.1304  0.0666  0.1652
  147MOL    C5529547   2.035   3.659   4.224 -0.2385  0.2920 -0.2395
  147MOL    N5629548   2.057   3.598   4.086 -0.1831  0.5350 -0.9917
  147MOL    H5729549   1.950   3.601   4.413 -3.1352 -0.5138  0.7559
  147MOL    H5829550   1.947   3.476   4.300 -1.2079 -0.0095 -0.6683
  147MOL    H5929551   2.134   3.665   4.268  0.1924  0.7298 -1.2526
  147MOL    H6029552   2.007   3.764   4.208 -2.0118 -0.0502  0.5137
  147MOL    H6129553   1.977   3.548   4.049 -0.7790  1.5738 -1.1339
  147MOL    C6229554   2.172   3.589   4.020  0.0048 -0.1831 -0.3957
  147MOL    O6329555   2.267   3.673   4.041  0.3757  0.0355  0.1560
  147MOL    C6429556   2.175   3.481   3.910 -0.3817  0.5088 -0.1979
  147MOL    C6529557   2.239   3.544   3.783 -0.1299 -0.2049 -0.1823
  147MOL    N6629558   2.283   3.444   3.685 -0.3043 -0.1706  0.0276
  147MOL    H6729559   2.223   3.389   3.945 -0.6717  0.2680 -0.4395
  147MOL    H6829560   2.074   3.453   3.880 -1.0605  0.4958  2.0027
  147MOL    H6929561   2.169   3.613   3.735 -0.3659  0.4840  1.1215
  147MOL    H7029562   2.315   3.619   3.806  0.3685 -0.6884 -0.2461
  147MOL    H7129563   2.229   3.434   3.600 -1.9072 -0.0700  1.0256
  147MOL    C7229564   2.399   3.367   3.699 -0.5357 -0.3791  0.1158
  147MOL    O7329565   2.471   3.377   3.798 -0.7016  0.5811 -0.0445
  147MOL    C7429566   2.435   3.264   3.594  0.2228 -0.0553  1.2226
  147MOL    C7529567   2.391   3.127   3.643  0.1241 -0.2024  0.2223
  147MOL    N7629568   2.501   3.065   3.718  0.4555 -0.1077 -0.4998
  147MOL    H7729569   2.381   3.291   3.503 -0.8439 -1.7032  1.3332
  147MOL    H7829570   2.542   3.256   3.578  0.3075  2.3774  0.4213
  147MOL    H7929571   2.300   3.118   3.702  0.7192 -0.4802  1.1005
  147MOL    H8029572   2.359   3.081   3.550 -0.1659  0.0065  0.2174
  147MOL    H8129573   2.499   3.080   3.818 -0.6558 -0.5536 -0.4554
  147MOL    C8229574   2.583   2.972   3.676  0.0005 -0.6540 -0.2728
  147MOL    O8329575   2.590   2.934   3.559  0.3107  0.3319  0.3246
  147MOL    C8429576   2.679   2.910   3.773 -0.3556  0.2220  0.1078
  147MOL    C8529577   2.821   2.898   3.720 -0.4340 -0.2617 -0.0471
  147MOL    N8629578   2.879   3.025   3.681  0.6807  0.0019  0.5468
  147MOL    H8729579   2.665   2.949   3.874 -0.0257  1.8673 -0.4787
  147MOL    H8829580   2.652   2.805   3.787 -0.5560 -0.2247 -3.2266
  147MOL    H8929581   2.878   2.847   3.798  2.5910 -0.6381 -2.3944
  147MOL    H9029582   2.831   2.831   3.635  3.4908 -1.0461  0.9101
  147MOL    H9129583   2.883   3.042   3.582 -1.7684  2.8605  0.8477
  147MOL    C9229584   2.906   3.117   3.768  0.0534  0.3157 -0.1639
  147MOL    O9329585   2.869   3.113   3.884  0.7101 -0.2576 -0.2030
  147MOL    C9429586   2.975   3.244   3.713  0.1717 -0.5739  0.2676
  147MOL    C9529587   2.910   3.378   3.766  0.8346  0.0119  0.2817
  147MOL    N9629588   2.953   3.421   3.897  0.1401 -0.1472  0.1098
  147MOL    H9729589   3.083   3.238   3.725  0.1838 -0.5645  0.1537
  147MOL    H9829590   2.975   3.251   3.605  4.3547  0.6494  0.2609
  147MOL    H9929591   2.927   3.455   3.690 -0.1047 -1.8487 -1.8818
  147MOL   H10029592   2.802   3.378   3.750  1.0900  0.2992 -1.5848
  147MOL   H10129593   2.894   3.393   3.975 -0.3695 -0.4569 -0.3820
  147MOL   C10229594   3.062   3.490   3.930 -0.8160 -0.0164 -0.5844
  147MOL   O10329595   3.151   3.520   3.850 -0.3374  0.0904 -0.4853
  147MOL   C10429596   3.090   3.505   4.087 -0.3153 -0.0963  0.3908
  147MOL   C10529597   3.194   3.623   4.105  0.1428 -0.1454 -0.1254
  147MOL   N10629598   3.175   3.681   4.239  0.0695 -0.4586 -0.6353
  147MOL   H10729599   3.130   3.415   4.133 -0.4146  0.2377  1.1352
  147MOL   H10829600   2.999   3.530   4.142  0.0317 -0.5122  1.1540
  147MOL   H10929601   3.292   3.581   4.083  0.1763 -1.7617  2.8590
  147MOL   H11029602   3.184   3.702   4.030 -0.4882 -1.8526 -1.8861
  147MOL   H11129603   3.081   3.710   4.260  1.0013  1.6037  0.8332
  147MOL   C11229604   3.279   3.732   4.311 -0.0121  0.0670  0.5354
  147MOL   O11329605   3.393   3.727   4.266  0.3108  0.1683  0.7452
  147MOL   C11429606   3.255   3.808   4.440  0.3477 -0.1728 -0.2054
  147MOL   C11529607   3.312   3.727   4.560 -0.4310  0.4010  0.3205
  147MOL   N11629608   3.266   3.783   4.687  0.6300 -0.5854 -0.4016
  147MOL   H11729609   3.152   3.840   4.457  1.0861  4.5312 -3.5865
  147MOL   H11829610   3.309   3.902   4.429 -2.1971  1.4167  0.4000
  147MOL   H11929611   3.282   3.623   4.542 -0.3680  0.3930  0.2649
  147MOL   H12029612   3.421   3.718   4.556 -0.0662  3.0068  2.7121
  147MOL   H12129613   3.336   3.836   4.738 -0.0339  1.2209 -1.3009
  147MOL   C12229614   3.152   3.746   4.747  0.7010 -0.6597 -0.0594
  147MOL   O12329615   3.069   3.669   4.704  0.0508  0.2106  0.2319
  147MOL   C12429616   3.145   3.807   4.892  0.0750 -0.4951 -0.6490
  147MOL   C12529617   3.201   3.715   5.005  0.0429 -0.2045  0.2979
  147MOL   N12629618   3.129   3.585   5.004 -0.0372 -0.5019 -0.0184
  147MOL   H12729619   3.040   3.827   4.916  0.7622  2.1097  0.3338
  147MOL   H12829620   3.180   3.910   4.901  0.1564 -0.7598  2.7437
  147MOL   H12929621   3.304   3.698   4.976  0.4275  1.7360  0.5220
  147MOL   H13029622   3.199   3.766   5.101  0.6069  0.8843 -0.2668
  147MOL   H13129623   3.074   3.571   4.921  0.3637  1.4471 -0.6349
  147MOL   C13229624   3.177   3.467   5.053  0.2194 -0.4695 -0.0648
  147MOL   O13329625   3.266   3.472   5.133 -0.4443  0.1868 -0.1177
  147MOL   C13429626   3.098   3.339   5.006 -0.3832  0.2196 -0.4276
  147MOL   C13529627   3.204   3.221   4.968  0.2861  0.2436 -0.7829
  147MOL   N13629628   3.277   3.240   4.844 -0.1148  0.3784  0.1501
  147MOL   H13729629   3.025   3.372   4.932  0.7606  2.0205 -0.7876
  147MOL   H13829630   3.041   3.315   5.096 -1.4342  4.1299  0.0542
  147MOL   H13929631   3.274   3.206   5.050 -0.1290  0.7017 -0.3443
  147MOL   H14029632   3.150   3.128   4.949  1.7159 -0.8721  0.4566
  147MOL   H14129633   3.376   3.261   4.843  0.4836 -2.0440 -3.0070
  147MOL   C14229634   3.225   3.229   4.720  0.4917  0.4220  0.2673
  147MOL   O14329635   3.102   3.215   4.700  0.0963  0.7138 -0.2868
  147MOL   C14429636   3.326   3.227   4.607 -0.1692  0.2806 -0.1047
  147MOL   C14529637   3.278   3.305   4.483 -0.6557  0.1205  0.1320
  147MOL   N14629638   3.383   3.305   4.381 -0.5150  0.3660 -0.0938
  147MOL   H14729639   3.328   3.120   4.584  0.8799  0.0719  0.8407
  147MOL   H14829640   3.427   3.254   4.637  0.9172 -3.0993 -0.4641
  147MOL   H14929641   3.185   3.255   4.456 -0.1242 -1.1510  0.6140
  147MOL   H15029642   3.265   3.407   4.520 -1.8675 -0.3634  1.0810
  147MOL   H15129643   3.349   3.274   4.291 -1.6507 -0.0334  0.4631
  147MOL   C15229644   3.491   3.379   4.383 -0.4326  0.8591 -0.3333
  147MOL   O15329645   3.533   3.445   4.483 -0.0087 -0.2068  0.0889
  147MOL   C15429646   3.575   3.378   4.251 -0.0810 -0.1034 -0.0942
  147MOL   C15529647   3.723   3.326   4.271  0.2768  0.1416  0.9328
  147MOL   N15629648   3.792   3.309   4.147 -0.4666  0.0608  0.3919
  147MOL   H15729649   3.588   3.480   4.216 -0.2172 -0.0314  0.0674
  147MOL   H15829650   3.521   3.335   4.166  0.6458  0.3379 -0.7939
  147MOL   H15929651   3.776   3.403   4.327 -0.0625  1.5437 -0.6327
  147MOL   H16029652   3.734   3.238   4.334  1.7122  0.2764  0.8786
  147MOL   H16129653   3.742   3.328   4.061  1.0506 -1.1398 -0.7995
  147MOL   C16229654   3.915   3.255   4.133 -1.0492  0.1760  0.0463
  147MOL   O16329655   3.984   3.214   4.230  0.0774 -0.0720 -0.4179
  147MOL   C16429656   3.961   3.229   3.992  0.3668 -0.6222 -0.0988
  147MOL   C16529657   3.984   3.082   3.950 -0.3598  0.2508  0.2506
  147MOL   N16629658   3.867   3.002   3.990 -0.2918  0.5948 -0.1258
  147MOL   H16729659   4.054   3.283   3.975  0.2325 -0.5513 -0.6172
  147MOL   H16829660   3.888   3.283   3.932  1.5307 -1.7823 -2.6593
  147MOL   H16929661   3.991   3.065   3.843 -0.2499 -0.9160  0.4334
  147MOL   H17029662   4.071   3.055   4.011 -1.1787 -1.6351  0.5993
  147MOL   H17129663   3.876   2.958   4.080 -1.9039 -0.7770 -0.6102
  147MOL   C17229664   3.771   2.962   3.900 -0.7723  0.8014  0.0600
  147MOL   O17329665   3.767   3.010   3.786  0.2907 -0.1861 -0.4639
  147MOL   C17429666   3.680   2.853   3.959 -0.1235  0.5979 -0.4513
  147MOL   C17529667   3.578   2.788   3.870  0.2296  0.2125 -0.5944
  147MOL   N17629668   3.611   2.649   3.833 -0.0198  0.1367  0.1578
  147MOL   H17729669   3.628   2.906   4.039 -0.8866  0.6431 -0.9772
  147MOL   H17829670   3.737   2.769   3.998 -0.3898  0.3959 -0.4997
  147MOL   H17929671   3.481   2.798   3.918  0.2228  2.4421 -1.0041
  147MOL   H18029672   3.572   2.832   3.771 -1.3787  1.4195  0.0189
  147MOL   H18129673   3.703   2.614   3.856  2.1095  4.3995 -1.4529
  147MOL   C18229674   3.529   2.566   3.779 -0.3606 -0.1096  0.1830
  147MOL   O18329675   3.427   2.606   3.731  0.0416  0.0739 -1.5488
  147MOL   C18429676   3.551   2.413   3.802  0.0339 -0.2448  0.5569
  147MOL   C18529677   3.490   2.365   3.937  0.4189  0.6738  0.8747
  147MOL   N18629678   3.592   2.371   4.040 -0.3330 -0.2712 -0.3951
  147MOL   H18729679   3.655   2.384   3.794  0.6048  1.3348  2.0069
  147MOL   H18829680   3.504   2.357   3.721 -0.5081 -1.3815  1.6312
  147MOL   H18929681   3.408   2.434   3.960 -0.4847 -0.5621  1.3893
  147MOL   H19029682   3.441   2.269   3.929 -0.4324  1.1674  0.1119
  147MOL   H19129683   3.614   2.460   4.083  1.4246  0.0961 -1.9532
  147MOL   C19229684   3.647   2.268   4.100 -0.2347  0.4977 -0.5261
  147MOL   O19329685   3.609   2.150   4.078 -0.0225 -0.3963 -0.2446
  147MOL   C19429686   3.751   2.284   4.217  0.0260 -0.1091  0.6941
  147MOL   C19529687   3.876   2.201   4.202  0.4545 -0.1926  0.1208
  147MOL   N19629688   3.858   2.061   4.234  0.1334  0.3947  0.3447
  147MOL   H19729689   3.793   2.385   4.218  1.0967 -0.5462  0.7353
  147MOL   H19829690   3.708   2.270   4.316 -1.2261  0.1734  0.1897
  147MOL   H19929691   3.926   2.205   4.106 -0.6936 -1.5789 -0.5565
  147MOL   H20029692   3.948   2.244   4.272 -0.6241  1.6644  0.1310
  147MOL   H20129693   3.944   2.016   4.206 -0.2824  1.2229 -2.3171
  147MOL   H20229694   3.799   2.040   4.155 -0.8940  1.7955  0.7227
  148MOL     C129695   0.020   5.122   4.684 -0.0332 -0.6845 -0.2246
  148MOL     O229696   0.111   5.085   4.756  0.0587 -0.4403 -0.3915
  148MOL     C329697   7.715   5.243   4.726  0.1302  0.4629  0.3187
  148MOL     C429698   7.692   5.265   4.875 -0.5038  0.0400 -0.2139
  148MOL     N529699   7.547   5.287   4.913 -0.8424 -0.4085  0.7610
  148MOL     H629700   7.623   5.231   4.669  0.7989 -1.5514 -0.3701
  148MOL     H729701   7.758   5.328   4.674 -0.1581 -0.1747 -0.9819
  148MOL     H829702   7.755   5.346   4.909 -1.8330  0.3692  1.5625
  148MOL     H929703   7.720   5.173   4.927 -0.0354  0.3134  0.0138
  148MOL    H1029704   7.522   5.366   4.970 -2.7417  1.2666 -2.2693
  148MOL    H1129705   0.012   5.088   4.581 -0.2686 -0.3244 -0.3270
  148MOL    C1229706   7.450   5.198   4.879  0.3315 -1.2527  0.0903
  148MOL    O1329707   7.460   5.117   4.786 -0.1923 -0.2256 -0.1148
  148MOL    C1429708   7.325   5.206   4.963  0.0374  0.2549  0.9773
  148MOL    C1529709   7.191   5.201   4.879  0.3269 -0.2035  0.3684
  148MOL    N1629710   7.072   5.196   4.967  0.2985  1.0058 -0.4859
  148MOL    H1729711   7.338   5.291   5.030  0.0032  1.2332 -0.2423
  148MOL    H1829712   7.314   5.114   5.020 -0.4417 -0.5847 -0.4369
  148MOL    H1929713   7.187   5.288   4.813 -2.6814 -1.8259 -1.6657
  148MOL    H2029714   7.193   5.111   4.819  0.3578 -0.8405  1.3173
  148MOL    H2129715   7.021   5.280   4.989 -0.0105  0.5110  0.7276
  148MOL    C2229716   7.042   5.089   5.040 -0.1430  0.2348  0.6374
  148MOL    O2329717   7.102   4.982   5.038 -0.5510  0.0934 -0.6221
  148MOL    C2429718   6.918   5.094   5.124  0.6658 -0.0161  0.1588
  148MOL    C2529719   6.893   4.970   5.217 -0.1324 -0.4891 -0.3954
  148MOL    N2629720   6.773   4.990   5.292 -0.4740 -0.9417 -0.1204
  148MOL    H2729721   6.840   5.119   5.052 -0.7409  0.4300  1.7808
  148MOL    H2829722   6.909   5.188   5.178 -2.0221  0.3470 -0.8282
  148MOL    H2929723   6.883   4.883   5.152 -0.5212  0.3320 -1.4496
  148MOL    H3029724   6.977   4.961   5.287 -0.3604  0.6453  0.0354
  148MOL    H3129725   6.698   4.924   5.277  0.4881 -2.4022  1.3588
  148MOL    C3229726   6.772   5.066   5.402 -0.0170 -0.2610 -0.0599
  148MOL    O3329727   6.871   5.129   5.445  0.3257  0.5151 -0.2414
  148MOL    C3429728   6.637   5.079   5.472  0.1298  0.9719 -0.2364
  148MOL    C3529729   6.646   5.124   5.621 -0.5938  0.4823  0.5311
  148MOL    N3629730   6.654   5.005   5.707 -0.3358  1.0318 -0.2830
  148MOL    H3729731   6.597   4.978   5.464  0.9591  0.6602 -0.6031
  148MOL    H3829732   6.569   5.137   5.409 -1.3087  0.1692  0.5538
  148MOL    H3929733   6.721   5.199   5.646  1.0844 -0.9011 -0.2423
  148MOL    H4029734   6.551   5.169   5.651 -0.8670  0.3544 -0.1335
  148MOL    H4129735   6.742   4.969   5.740 -0.9926 -1.6137 -1.2963
  148MOL    C4229736   6.541   4.948   5.766 -0.3974 -0.7293 -0.7860
  148MOL    O4329737   6.426   4.990   5.749  0.0091  0.6370 -0.8539
  148MOL    C4429738   6.573   4.845   5.869 -0.5857  0.1511  0.0419
  148MOL    C4529739   6.468   4.727   5.867  0.4773  0.4358  0.1983
  148MOL    N4629740   6.468   4.669   5.735 -0.3207  0.2427 -0.1316
  148MOL    H4729741   6.670   4.801   5.849  0.3670  2.1012  0.3425
  148MOL    H4829742   6.577   4.887   5.969  0.0706  0.5752 -0.1653
  148MOL    H4929743   6.505   4.657   5.942  1.2918  1.1791  0.5023
  148MOL    H5029744   6.369   4.760   5.896 -0.0450 -0.4636 -0.5379
  148MOL    H5129745   6.554   4.682   5.684 -0.0936  0.8640  0.3984
  148MOL    C5229746   6.369   4.613   5.670  0.5878 -0.0943 -0.0872
  148MOL    O5329747   6.251   4.614   5.715 -0.0729 -0.4195 -0.0220
  148MOL    C5429748   6.403   4.554   5.533 -0.1371  0.1913 -0.1628
  148MOL    C5529749   6.298   4.451   5.482  0.6380 -0.3372  0.1269
  148MOL    N5629750   6.323   4.400   5.349 -0.2192 -0.1540 -0.0078
  148MOL    H5729751   6.400   4.648   5.479  0.3278 -0.2222 -0.9145
  148MOL    H5829752   6.500   4.506   5.522 -1.2751 -2.3150  0.2095
  148MOL    H5929753   6.196   4.486   5.492  0.1030 -1.7538 -0.2484
  148MOL    H6029754   6.292   4.366   5.550  1.7016 -0.0090  0.6484
  148MOL    H6129755   6.419   4.374   5.333 -0.6913 -0.8361 -1.9361
  148MOL    C6229756   6.241   4.410   5.242  0.7281 -0.4105  0.4339
  148MOL    O6329757   6.127   4.458   5.243  0.0542  0.2691  0.2548
  148MOL    C6429758   6.299   4.355   5.112 -0.2505  0.1925 -0.4996
  148MOL    C6529759   6.204   4.382   4.995 -0.1373  0.0867  0.3945
  148MOL    N6629760   6.246   4.311   4.874  0.5482  0.1365  0.1918
  148MOL    H6729761   6.394   4.405   5.092 -1.1267  1.0597 -2.6955
  148MOL    H6829762   6.305   4.247   5.125 -1.1744  0.0288 -1.3590
  148MOL    H6929763   6.099   4.366   5.017 -0.7475  2.5127 -0.6541
  148MOL    H7029764   6.204   4.489   4.976  0.1494  0.2796  1.4506
  148MOL    H7129765   6.195   4.232   4.837 -0.6258  0.7181  0.5259
  148MOL    C7229766   6.346   4.350   4.793 -0.3363  0.1534 -0.0592
  148MOL    O7329767   6.401   4.460   4.810 -0.0453 -0.0573 -0.2699
  148MOL    C7429768   6.405   4.249   4.696  0.2265  0.9247 -0.2350
  148MOL    C7529769   6.417   4.307   4.556  0.6579  0.0289  0.0366
  148MOL    N7629770   6.510   4.218   4.484 -0.0414  0.1242 -0.2719
  148MOL    H7729771   6.492   4.201   4.740 -1.0797 -1.6711 -0.3844
  148MOL    H7829772   6.336   4.167   4.673  0.6358  1.0811 -2.1663
  148MOL    H7929773   6.318   4.304   4.512  0.3038 -0.1353  0.8404
  148MOL    H8029774   6.454   4.409   4.553 -0.6252  0.4961 -0.2027
  148MOL    H8129775   6.603   4.253   4.470 -0.0425 -0.1494 -1.0002
  148MOL    C8229776   6.491   4.089   4.449 -0.4094  0.3356 -0.3960
  148MOL    O8329777   6.391   4.026   4.483 -0.2909 -0.0424 -0.1189
  148MOL    C8429778   6.591   4.028   4.356  0.0622 -0.6427 -0.0741
  148MOL    C8529779   6.689   3.925   4.413 -0.2080 -0.1637 -0.4629
  148MOL    N8629780   6.708   3.935   4.556 -0.5648 -0.2133 -0.5014
  148MOL    H8729781   6.533   3.981   4.277  1.5415 -1.3582 -0.7464
  148MOL    H8829782   6.643   4.111   4.307 -2.4479  0.5748 -0.7767
  148MOL    H8929783   6.638   3.829   4.399  1.1819 -0.8493 -0.8920
  148MOL    H9029784   6.787   3.910   4.368  0.9346 -1.1088  2.1947
  148MOL    H9129785   6.644   3.892   4.621 -1.7944  2.8226  0.4142
  148MOL    C9229786   6.790   4.025   4.611 -0.1931 -1.1632 -0.0389
  148MOL    O9329787   6.869   4.099   4.543 -0.2254  0.1239 -0.4771
  148MOL    C9429788   6.777   4.021   4.764  0.0448  0.0453  0.2643
  148MOL    C9529789   6.906   3.955   4.828 -0.3694 -0.6696 -0.9970
  148MOL    N9629790   7.017   4.049   4.827  0.2885 -0.2605 -0.3695
  148MOL    H9729791   6.764   4.123   4.799  0.6749  0.0289  0.5487
  148MOL    H9829792   6.685   3.987   4.811  0.1540  0.0793  0.5000
  148MOL    H9929793   6.878   3.923   4.928 -1.9950 -2.7747 -2.0966
  148MOL   H10029794   6.932   3.864   4.774  0.7871 -2.8300  2.9796
  148MOL   H10129795   7.085   4.028   4.755 -0.5708 -1.1515 -0.9390
  148MOL   C10229796   7.036   4.138   4.923 -0.8479 -0.4823 -1.2061
  148MOL   O10329797   6.946   4.171   5.001 -0.0831  0.1313 -0.1665
  148MOL   C10429798   7.172   4.210   4.937  0.9310  0.3319  0.2132
  148MOL   C10529799   7.246   4.186   5.071  0.1655 -0.3252  0.0209
  148MOL   N10629800   7.238   4.048   5.113 -0.5550  0.2431 -0.5570
  148MOL   H10729801   7.148   4.316   4.926 -0.8111 -0.1302 -0.5711
  148MOL   H10829802   7.230   4.187   4.848  1.3471 -1.2320  0.8652
  148MOL   H10929803   7.348   4.224   5.070  0.3662 -0.8005  1.1883
  148MOL   H11029804   7.192   4.234   5.153  0.1549  0.8848 -0.6802
  148MOL   H11129805   7.158   4.008   5.160  1.6048 -0.4173  2.7131
  148MOL   C11229806   7.331   3.965   5.076  0.5165  0.6367  0.4418
  148MOL   O11329807   7.444   4.009   5.042 -0.4048 -0.1286 -0.0308
  148MOL   C11429808   7.296   3.815   5.075  0.6519 -0.1189 -0.0400
  148MOL   C11529809   7.254   3.757   5.214  0.4249  0.6263  0.1752
  148MOL   N11629810   7.113   3.719   5.216  0.3124  0.6214 -0.3076
  148MOL   H11729811   7.384   3.755   5.053 -0.0850 -1.6211  0.9511
  148MOL   H11829812   7.223   3.794   4.996  1.4993 -0.3037 -0.7784
  148MOL   H11929813   7.306   3.661   5.221 -0.9070 -0.5293 -4.5614
  148MOL   H12029814   7.294   3.826   5.288  1.0189 -0.1818  0.6184
  148MOL   H12129815   7.084   3.626   5.189  1.2744  0.9247 -2.5029
  148MOL   C12229816   7.013   3.804   5.247 -0.8033  0.3598 -1.4074
  148MOL   O12329817   7.021   3.924   5.265 -1.3422 -0.5793 -0.4096
  148MOL   C12429818   6.870   3.745   5.276 -0.1587 -0.8465  0.2002
  148MOL   C12529819   6.802   3.808   5.398  0.1512 -0.0288 -0.2511
  148MOL   N12629820   6.874   3.766   5.517 -0.2914  0.5468  0.5539
  148MOL   H12729821   6.865   3.636   5.282  0.9119 -0.8648  0.9405
  148MOL   H12829822   6.814   3.776   5.188  1.3498  1.0874 -0.1055
  148MOL   H12929823   6.811   3.916   5.381  0.0284  0.0976  0.4664
  148MOL   H13029824   6.699   3.775   5.410  1.0513 -3.2407 -0.9972
  148MOL   H13129825   6.975   3.765   5.522 -0.2895 -0.0536  0.3973
  148MOL   C13229826   6.816   3.718   5.629  0.1059  0.3368 -0.8051
  148MOL   O13329827   6.691   3.715   5.638 -0.4161  0.3930  0.4596
  148MOL   C13429828   6.906   3.666   5.745 -0.4929  0.0318  1.0361
  148MOL   C13529829   7.055   3.633   5.711  0.3966  0.0044  0.6500
  148MOL   N13629830   7.154   3.720   5.773  0.1346 -0.1861 -0.4226
  148MOL   H13729831   6.863   3.571   5.778 -0.1206 -0.5986 -0.2721
  148MOL   H13829832   6.916   3.733   5.830 -1.1123  0.2098  0.9747
  148MOL   H13929833   7.067   3.527   5.730 -0.2800 -0.1643  0.1356
  148MOL   H14029834   7.074   3.644   5.604  0.1632 -1.8799  0.3971
  148MOL   H14129835   7.206   3.667   5.842  0.5244 -0.5270 -0.9682
  148MOL   C14229836   7.185   3.845   5.746  0.7233  0.0976  0.7273
  148MOL   O14329837   7.127   3.911   5.658 -0.5132  0.5653 -0.3522
  148MOL   C14429838   7.284   3.907   5.841 -0.1289  0.0791  0.4314
  148MOL   C14529839   7.368   4.024   5.786 -0.5031  0.2802  0.2030
  148MOL   N14629840   7.466   4.075   5.884  0.1448 -0.0992 -0.2974
  148MOL   H14729841   7.354   3.829   5.870 -1.4087 -1.6332 -1.0719
  148MOL   H14829842   7.244   3.951   5.933 -0.9874  1.2333 -0.4795
  148MOL   H14929843   7.424   3.990   5.698 -0.0273 -1.0499  1.0171
  148MOL   H15029844   7.311   4.113   5.758  0.2022  1.3395  2.0495
  148MOL   H15129845   7.448   4.164   5.928  0.5855 -0.5562  0.8184
  148MOL   C15229846   7.571   4.005   5.934  0.0407 -0.0284  0.1147
  148MOL   O15329847   7.593   3.886   5.916 -0.1511 -0.3049  0.3180
  148MOL   C15429848   7.662   4.087   6.032  0.1575  0.2567 -0.4805
  148MOL   C15529849   7.666   4.027   6.179 -0.1351 -0.5240 -0.3412
  148MOL   N15629850   7.532   4.010   6.241  0.2421 -0.4801 -0.6439
  148MOL   H15729851   7.630   4.192   6.032 -1.1396 -0.1313 -0.5655
  148MOL   H15829852   7.761   4.081   5.987 -0.1739  0.9940 -1.3413
  148MOL   H15929853   7.723   3.934   6.180  0.0170 -0.4419 -1.0318
  148MOL   H16029854   7.713   4.099   6.245 -1.2713 -1.2439  1.2775
  148MOL   H16129855   7.452   3.982   6.186 -0.7510 -2.5895  1.7980
  148MOL   C16229856   7.506   4.016   6.374 -0.0595 -1.1395  0.3016
  148MOL   O16329857   7.590   4.039   6.456  0.4954 -0.0081 -0.6758
  148MOL   C16429858   7.358   4.013   6.407 -0.3739  0.6515 -0.5748
  148MOL   C16529859   7.294   4.149   6.400 -0.7130  0.2155  0.4070
  148MOL   N16629860   7.158   4.140   6.453 -0.6076  0.4200 -0.0360
  148MOL   H16729861   7.350   3.966   6.505  0.0844  1.4092 -0.1707
  148MOL   H16829862   7.312   3.951   6.330  0.4095 -1.8911  0.9458
  148MOL   H16929863   7.347   4.226   6.455  0.2923 -1.7050  2.1832
  148MOL   H17029864   7.289   4.187   6.298  0.0639 -0.9062 -0.0580
  148MOL   H17129865   7.091   4.079   6.407 -0.0013  0.0141 -0.3850
  148MOL   C17229866   7.113   4.181   6.571  0.4134 -0.5417 -0.2185
  148MOL   O17329867   7.185   4.259   6.637 -0.2546  0.1918 -0.1138
  148MOL   C17429868   6.974   4.135   6.619 -0.5509 -0.5161  0.2283
  148MOL   C17529869   6.941   4.201   6.756 -0.1620  0.0683  0.2371
  148MOL   N17629870   6.811   4.164   6.801  0.6298 -0.1744  0.2443
  148MOL   H17729871   6.968   4.027   6.627 -0.1244 -0.7289 -2.1080
  148MOL   H17829872   6.910   4.171   6.538  1.0541  0.5618 -0.5795
  148MOL   H17929873   7.022   4.199   6.828  0.4357  0.3379 -0.4197
  148MOL   H18029874   6.942   4.307   6.728 -1.2866 -0.3033 -1.2992
  148MOL   H18129875   6.729   4.219   6.780  0.2681  0.5281  3.2772
  148MOL   C18229876   6.795   4.065   6.888  0.1602 -0.0347  0.0841
  148MOL   O18329877   6.889   3.991   6.925  0.3961 -0.4071  0.2304
  148MOL   C18429878   6.649   4.045   6.934 -0.0816 -0.1417  0.8941
  148MOL   C18529879   6.635   4.013   7.086  0.3135 -0.5850 -0.0651
  148MOL   N18629880   6.494   4.039   7.117 -0.5044 -0.2141  0.5799
  148MOL   H18729881   6.619   3.959   6.875  0.7093 -0.2905  0.7018
  148MOL   H18829882   6.580   4.125   6.907  0.0802  0.0853  1.1502
  148MOL   H18929883   6.655   3.906   7.094 -0.6636 -0.8592 -1.1671
  148MOL   H19029884   6.703   4.061   7.156 -0.2909  0.0132  0.1080
  148MOL   H19129885   6.430   4.032   7.039  1.7592  0.8667 -1.4321
  148MOL   C19229886   6.442   4.045   7.236  0.4881  0.1001 -0.2514
  148MOL   O19329887   6.514   4.063   7.332 -0.9916 -0.7423  0.2540
  148MOL   C19429888   6.291   4.046   7.240 -0.1301  0.3215 -0.1896
  148MOL   C19529889   6.239   4.077   7.390  1.4285 -0.9420 -0.0183
  148MOL   N19629890   6.210   3.963   7.474 -0.0051  0.4720 -0.2428
  148MOL   H19729891   6.271   4.122   7.165  1.0129 -0.9922 -1.8577
  148MOL   H19829892   6.257   3.950   7.201 -0.3526  1.1421 -2.0845
  148MOL   H19929893   6.313   4.145   7.432 -0.8688  1.1902  0.6794
  148MOL   H20029894   6.152   4.141   7.380  1.4578 -0.9747 -0.5374
  148MOL   H20129895   6.295   3.908   7.481 -0.0666  0.6475  2.3444
  148MOL   H20229896   6.138   3.909   7.428 -0.0012  1.9352 -2.0320
  149MOL     C129897   5.998   4.267   0.839 -0.2299 -0.0077  0.2239
  149MOL     O229898   5.936   4.371   0.814  0.5288 -0.1552 -0.0765
  149MOL     C329899   6.036   4.180   0.723  0.4714  0.0179  0.7863
  149MOL     C429900   6.128   4.060   0.757  0.1189  0.0708  0.0293
  149MOL     N529901   6.054   3.947   0.828  0.6447 -0.1010  0.0376
  149MOL     H629902   6.093   4.233   0.646  0.4902 -0.6822  0.3142
  149MOL     H729903   5.946   4.147   0.672  0.8602 -0.4349  0.3846
  149MOL     H829904   6.220   4.097   0.803  1.1864  0.0598 -2.0316
  149MOL     H929905   6.174   4.030   0.663  0.5057  0.4172  0.1074
  149MOL    H1029906   6.020   3.871   0.771 -1.1120  1.1613 -0.6210
  149MOL    H1129907   6.036   4.235   0.936  0.8943  1.2650  0.2026
  149MOL    C1229908   6.052   3.932   0.958 -0.4883  0.8277 -0.4223
  149MOL    O1329909   6.121   4.003   1.030  0.2278  0.3816 -0.6455
  149MOL    C1429910   5.965   3.821   1.018 -0.3604 -0.1993  0.0269
  149MOL    C1529911   5.961   3.818   1.166  0.3276  0.6644  0.0386
  149MOL    N1629912   5.886   3.701   1.209 -0.1569  0.1027  0.2054
  149MOL    H1729913   6.006   3.727   0.980  1.7456  0.4189  0.6958
  149MOL    H1829914   5.864   3.840   0.982 -0.2126  1.2847  0.3724
  149MOL    H1929915   6.056   3.837   1.215  0.2006 -1.2073  1.0653
  149MOL    H2029916   5.904   3.901   1.208  0.3660  0.0161  1.4175
  149MOL    H2129917   5.787   3.694   1.191 -0.0854  1.4181 -0.7318
  149MOL    C2229918   5.954   3.595   1.257 -0.3425  0.2623 -0.1926
  149MOL    O2329919   6.076   3.593   1.237  0.0847 -0.2001 -0.1586
  149MOL    C2429920   5.870   3.474   1.297 -0.3159 -0.3072  0.2453
  149MOL    C2529921   5.950   3.372   1.390  0.0819 -0.3566  0.2986
  149MOL    N2629922   6.056   3.300   1.317  0.1694  0.4484  0.2251
  149MOL    H2729923   5.841   3.412   1.212  0.5117  0.2971 -0.4904
  149MOL    H2829924   5.778   3.515   1.337  0.5514  1.7434  0.2084
  149MOL    H2929925   5.991   3.421   1.478 -0.8676  1.7425 -0.3821
  149MOL    H3029926   5.890   3.289   1.428 -0.2659 -0.1450  0.2212
  149MOL    H3129927   6.059   3.304   1.216  0.4403 -1.2158  0.1656
  149MOL    C3229928   6.163   3.244   1.373 -1.0179 -0.2712 -0.4780
  149MOL    O3329929   6.177   3.233   1.496  0.5825 -0.0316 -0.0806
  149MOL    C3429930   6.279   3.215   1.282  1.0918  0.0097  0.6019
  149MOL    C3529931   6.366   3.329   1.245 -0.2980 -0.0221 -0.1641
  149MOL    N3629932   6.305   3.415   1.146  0.3678 -0.3657  0.9808
  149MOL    H3729933   6.251   3.171   1.187  0.1028 -2.0278  1.7874
  149MOL    H3829934   6.348   3.145   1.330  0.3911 -0.3918  1.0361
  149MOL    H3929935   6.402   3.384   1.332  0.8373 -0.6457 -0.2346
  149MOL    H4029936   6.461   3.290   1.208 -0.0426 -0.0354  0.4901
  149MOL    H4129937   6.236   3.480   1.181  1.4991 -0.0109  2.5574
  149MOL    C4229938   6.351   3.445   1.024 -0.5282  0.0989 -0.8008
  149MOL    O4329939   6.434   3.375   0.967 -0.0624  0.0022  0.2251
  149MOL    C4429940   6.299   3.574   0.959 -0.2150 -0.6795  0.6562
  149MOL    C4529941   6.337   3.610   0.811 -0.1983 -0.3853 -0.9324
  149MOL    N4629942   6.256   3.545   0.708 -0.0529 -0.6684 -0.4942
  149MOL    H4729943   6.191   3.586   0.968 -0.0754  2.1674 -0.8041
  149MOL    H4829944   6.328   3.648   1.034  0.7296 -0.4446  0.0736
  149MOL    H4929945   6.345   3.718   0.796  2.7890 -0.5715 -0.9785
  149MOL    H5029946   6.437   3.571   0.790  0.0661  0.1470 -0.6801
  149MOL    H5129947   6.264   3.444   0.705 -1.5123 -0.8064  0.1218
  149MOL    C5229948   6.165   3.602   0.628  0.2069 -0.6263  0.0757
  149MOL    O5329949   6.159   3.724   0.624  0.3169 -0.1102  0.0665
  149MOL    C5429950   6.073   3.516   0.536  0.8502  0.0385 -0.6568
  149MOL    C5529951   6.119   3.518   0.393 -0.3014  0.1328 -0.1523
  149MOL    N5629952   6.235   3.427   0.369  0.3889 -0.2357  0.8712
  149MOL    H5729953   6.064   3.417   0.580  0.7590  0.0313 -0.6910
  149MOL    H5829954   5.973   3.558   0.525  1.6219  2.2453  0.4525
  149MOL    H5929955   6.151   3.619   0.367  0.5365 -0.3166 -0.8798
  149MOL    H6029956   6.030   3.489   0.338 -1.4000  0.8925  1.1792
  149MOL    H6129957   6.281   3.378   0.444  1.4384  0.4541  0.6823
  149MOL    C6229958   6.259   3.370   0.250  0.0166  0.3232 -0.1706
  149MOL    O6329959   6.211   3.409   0.142  0.5165 -0.4314 -0.4970
  149MOL    C6429960   6.363   3.258   0.243 -0.2194  0.1467 -0.4120
  149MOL    C6529961   6.309   3.120   0.279 -0.0407  0.7216 -0.4782
  149MOL    N6629962   6.410   3.014   0.308 -0.1734  0.1455  0.1976
  149MOL    H6729963   6.401   3.254   0.141  0.4628  0.4382 -0.1724
  149MOL    H6829964   6.451   3.284   0.302 -0.0999 -0.9686 -0.0922
  149MOL    H6929965   6.253   3.119   0.373  0.3277 -0.2508 -0.2574
  149MOL    H7029966   6.241   3.083   0.203 -0.4726  1.7309 -0.5914
  149MOL    H7129967   6.412   2.978   0.403  0.5348  0.3024  0.2450
  149MOL    C7229968   6.518   2.987   0.235  0.7473 -0.4981 -0.0094
  149MOL    O7329969   6.524   3.017   0.116 -0.0371  0.1637  0.2800
  149MOL    C7429970   6.634   2.911   0.298 -0.2410 -0.4043 -0.4489
  149MOL    C7529971   6.754   3.000   0.328  0.9208 -1.1806 -0.4470
  149MOL    N7629972   6.731   3.074   0.448 -0.6367 -0.5960  0.2856
  149MOL    H7729973   6.612   2.846   0.383  1.4943 -2.3019 -1.3883
  149MOL    H7829974   6.661   2.840   0.219 -0.4126 -2.3026  1.1613
  149MOL    H7929975   6.850   2.948   0.323 -0.0226 -2.9293 -0.5216
  149MOL    H8029976   6.753   3.069   0.243 -3.9148 -1.4677 -0.7113
  149MOL    H8129977   6.736   3.027   0.537  1.6245 -0.9244  0.0088
  149MOL    C8229978   6.705   3.206   0.454 -0.1403  0.5711  0.3645
  149MOL    O8329979   6.690   3.271   0.350  0.2645  0.3526  0.1032
  149MOL    C8429980   6.702   3.274   0.587  0.1849 -0.4589  0.4325
  149MOL    C8529981   6.558   3.310   0.621  0.2354 -0.2396 -0.9001
  149MOL    N8629982   6.484   3.205   0.688 -0.0239  0.5723  0.2972
  149MOL    H8729983   6.738   3.215   0.671 -1.3552  0.5766  1.8663
  149MOL    H8829984   6.763   3.364   0.585 -0.5297  0.0108 -2.9812
  149MOL    H8929985   6.562   3.387   0.697  1.1267 -1.1261 -0.0231
  149MOL    H9029986   6.508   3.372   0.547 -1.7288 -0.8302 -0.1014
  149MOL    H9129987   6.525   3.156   0.766 -0.7091  1.4546  1.2235
  149MOL    C9229988   6.353   3.197   0.680  0.1430  0.5257 -0.2765
  149MOL    O9329989   6.287   3.279   0.614  0.3850  0.0451  0.1626
  149MOL    C9429990   6.283   3.088   0.765  0.1949 -0.6388 -0.5844
  149MOL    C9529991   6.196   3.138   0.888 -0.8833 -0.6224  0.2441
  149MOL    N9629992   6.067   3.183   0.852 -0.2199 -0.3488  0.6421
  149MOL    H9729993   6.235   3.009   0.707 -0.9950 -0.9129  0.7506
  149MOL    H9829994   6.372   3.040   0.805  1.5527  0.2666 -2.4474
  149MOL    H9929995   6.175   3.050   0.950  0.7398 -1.3128 -0.1791
  149MOL   H10029996   6.248   3.217   0.942  0.5876 -0.0536 -1.9807
  149MOL   H10129997   6.032   3.161   0.759 -1.2704 -0.0595  0.9656
  149MOL   C10229998   5.975   3.250   0.925  0.4636 -0.2694  0.2838
  149MOL   O10329999   5.989   3.278   1.046 -0.2480 -1.0744 -0.7869
  149MOL   C10430000   5.849   3.304   0.853  0.4615 -0.4081 -0.0834
  149MOL   C10530001   5.727   3.232   0.913 -0.5188  0.1928  1.2560
  149MOL   N10630002   5.604   3.244   0.830  0.2281  0.2957  0.4094
  149MOL   H10730003   5.850   3.287   0.745  1.3516  1.3112 -0.3813
  149MOL   H10830004   5.835   3.412   0.864  0.5824 -0.1605 -2.1318
  149MOL   H10930005   5.748   3.126   0.929  0.9289  0.2542 -0.0574
  149MOL   H11030006   5.696   3.284   1.003 -0.7728  2.0875  0.1090
  149MOL   H11130007   5.545   3.326   0.837  0.4084  0.4233  0.4468
  149MOL   C11230008   5.557   3.150   0.741 -0.1914 -0.6853 -0.4846
  149MOL   O11330009   5.616   3.053   0.705  0.3366 -0.4002 -0.2834
  149MOL   C11430010   5.426   3.192   0.674 -0.2032  0.0282 -0.5937
  149MOL   C11530011   5.302   3.143   0.754 -0.1657 -0.2939  0.7344
  149MOL   N11630012   5.266   3.211   0.878 -0.4043 -0.3906  0.6596
  149MOL   H11730013   5.425   3.144   0.576  2.0049 -0.4082 -0.4337
  149MOL   H11830014   5.421   3.297   0.648 -0.2819 -0.1681 -1.3933
  149MOL   H11930015   5.222   3.141   0.680 -0.5182  0.8120  1.0762
  149MOL   H12030016   5.321   3.039   0.783  0.7055 -0.1356  0.7370
  149MOL   H12130017   5.209   3.154   0.939 -0.7926 -2.1983 -1.3395
  149MOL   C12230018   5.295   3.339   0.921  0.5114 -0.5730  0.0651
  149MOL   O12330019   5.366   3.414   0.853 -0.4424 -0.5849  0.1245
  149MOL   C12430020   5.244   3.381   1.062 -0.0388  0.1866  0.8274
  149MOL   C12530021   5.317   3.505   1.115  0.5507 -0.6790 -0.7281
  149MOL   N12630022   5.268   3.554   1.239  0.1975  0.6429 -0.2225
  149MOL   H12730023   5.251   3.300   1.135 -1.3441  0.5947  1.4230
  149MOL   H12830024   5.136   3.396   1.061 -0.0643  0.1247  1.9124
  149MOL   H12930025   5.423   3.481   1.124  0.9456  1.1599 -0.3594
  149MOL   H13030026   5.310   3.589   1.046 -0.6733  0.1814  0.4217
  149MOL   H13130027   5.321   3.557   1.325 -1.3303 -0.8167  0.7989
  149MOL   C13230028   5.146   3.618   1.251 -0.0730  0.1773  0.8197
  149MOL   O13330029   5.056   3.623   1.166 -0.5086  0.0299  0.0833
  149MOL   C13430030   5.124   3.688   1.383 -0.1389 -0.0438 -0.3800
  149MOL   C13530031   4.979   3.668   1.435  0.5741 -0.4536  0.7982
  149MOL   N13630032   4.938   3.526   1.457  0.6383 -0.6721 -0.3190
  149MOL   H13730033   5.145   3.793   1.363  0.1743 -0.2248 -1.0199
  149MOL   H13830034   5.192   3.648   1.459 -1.1868 -3.0037 -0.9159
  149MOL   H13930035   4.954   3.728   1.522 -2.9188 -0.7017  0.0203
  149MOL   H14030036   4.916   3.724   1.367  4.7992  4.0634  0.2874
  149MOL   H14130037   4.887   3.489   1.379 -0.3837 -0.8238  0.4120
  149MOL   C14230038   4.987   3.454   1.561  0.6649  0.0970 -0.5050
  149MOL   O14330039   5.069   3.498   1.638 -0.2091 -0.0551  0.6011
  149MOL   C14430040   4.943   3.311   1.570 -0.2623 -0.0965 -0.1640
  149MOL   C14530041   4.896   3.274   1.709  0.5744  0.4044 -1.0740
  149MOL   N14630042   5.010   3.258   1.801  0.1220 -0.1622  0.1109
  149MOL   H14730043   5.022   3.238   1.551 -0.7939 -0.8562  0.4563
  149MOL   H14830044   4.860   3.305   1.499  0.3250  1.5861 -0.9908
  149MOL   H14930045   4.828   3.344   1.758  2.3858  1.3596  0.1367
  149MOL   H15030046   4.845   3.178   1.705  0.3037  0.3425  2.6146
  149MOL   H15130047   5.085   3.320   1.774  0.8727 -0.5224  1.3217
  149MOL   C15230048   5.017   3.179   1.908 -0.4535 -0.3559 -0.2404
  149MOL   O15330049   4.918   3.113   1.945  0.6990  0.1700 -0.2612
  149MOL   C15430050   5.150   3.182   1.987  0.3563  0.0392  0.1651
  149MOL   C15530051   5.149   3.100   2.123 -0.0969  0.3933  0.5427
  149MOL   N15630052   5.073   3.167   2.235 -0.1750 -0.4368 -0.0143
  149MOL   H15730053   5.176   3.286   2.005  0.9298  0.4226 -2.7439
  149MOL   H15830054   5.224   3.146   1.916  1.5498  1.3503  0.7227
  149MOL   H15930055   5.135   2.993   2.110 -1.7862  0.3322  2.6649
  149MOL   H16030056   5.253   3.108   2.154  0.0994  0.1458 -0.0332
  149MOL   H16130057   4.993   3.224   2.211  0.1628  1.0817  2.2461
  149MOL   C16230058   5.091   3.151   2.367 -0.1613  0.1521 -0.2559
  149MOL   O16330059   5.183   3.087   2.418  0.6074  0.2788  0.8290
  149MOL   C16430060   4.981   3.203   2.461 -0.3335  0.0236  0.3100
  149MOL   C16530061   4.976   3.352   2.494  0.4928  0.7260 -0.3971
  149MOL   N16630062   4.866   3.424   2.439  0.4049 -0.0632  0.4062
  149MOL   H16730063   5.001   3.157   2.558  0.4377 -1.7329 -0.6505
  149MOL   H16830064   4.889   3.167   2.416 -0.6677 -0.1276  1.1107
  149MOL   H16930065   4.975   3.360   2.602 -2.2639  3.0126 -0.5197
  149MOL   H17030066   5.058   3.412   2.455  2.2452 -0.8852  0.7863
  149MOL   H17130067   4.881   3.500   2.373  0.7267 -1.0752 -0.7091
  149MOL   C17230068   4.733   3.387   2.453 -0.2661  0.6671  0.1400
  149MOL   O17330069   4.696   3.288   2.516  0.7768 -0.2426  0.0260
  149MOL   C17430070   4.644   3.487   2.381  0.7009  0.1175  0.1803
  149MOL   C17530071   4.606   3.456   2.235 -0.3136  0.0590 -0.2565
  149MOL   N17630072   4.707   3.507   2.139 -0.0908 -0.6798 -0.1673
  149MOL   H17730073   4.688   3.585   2.397  0.3179 -0.0862  2.7748
  149MOL   H17830074   4.556   3.506   2.444  0.5837  3.5742 -0.9332
  149MOL   H17930075   4.593   3.348   2.233 -0.7887  0.1293 -2.0114
  149MOL   H18030076   4.513   3.511   2.223 -0.0776  0.1390 -1.8162
  149MOL   H18130077   4.687   3.599   2.101 -1.0312 -0.7310  0.2000
  149MOL   C18230078   4.826   3.461   2.094 -0.5086 -0.4812  0.7227
  149MOL   O18330079   4.878   3.353   2.133 -0.5495  0.7899 -0.5205
  149MOL   C18430080   4.905   3.549   2.003 -0.5620  0.4665 -1.1858
  149MOL   C18530081   5.045   3.567   2.051  0.1544  0.3236  0.4360
  149MOL   N18630082   5.132   3.628   1.949  0.0673  0.0578 -0.1005
  149MOL   H18730083   4.843   3.637   1.988  1.1891  2.0940  0.9705
  149MOL   H18830084   4.901   3.483   1.915 -1.2865  1.0311 -1.5780
  149MOL   H18930085   5.057   3.627   2.141  3.2650  2.2513 -1.1840
  149MOL   H19030086   5.081   3.473   2.094 -1.1593  0.6367  2.3130
  149MOL   H19130087   5.183   3.577   1.878 -2.4706 -0.4862 -1.6117
  149MOL   C19230088   5.181   3.748   1.965 -0.7384  0.3749  0.4478
  149MOL   O19330089   5.135   3.835   2.041  0.0896 -0.2827 -0.0573
  149MOL   C19430090   5.289   3.782   1.871 -0.3176 -0.3041  0.2360
  149MOL   C19530091   5.265   3.889   1.763  0.3041  0.4383 -0.4431
  149MOL   N19630092   5.164   3.846   1.668 -0.2127 -0.1452  0.0490
  149MOL   H19730093   5.370   3.817   1.936 -1.7604  0.1797  1.8127
  149MOL   H19830094   5.332   3.694   1.824  1.8596  1.0123 -0.3389
  149MOL   H19930095   5.249   3.989   1.803 -1.4605 -0.6789  1.6596
  149MOL   H20030096   5.350   3.910   1.697  0.2534  0.5613 -0.4699
  149MOL   H20130097   5.168   3.746   1.650  0.1747 -0.1685  0.2559
  149MOL   H20230098   5.204   3.887   1.585 -1.7324  1.5483  0.1379
  150MOL     C130099   1.997   5.899   2.737 -0.3666 -0.7220  0.6211
  150MOL     O230100   2.102   5.964   2.718 -0.1664 -0.3841  0.0669
  150MOL     C330101   1.959   5.861   2.879  0.1597  0.5488 -0.2199
  150MOL     C430102   1.934   5.709   2.895 -0.5732  0.3133  0.6013
  150MOL     N530103   1.794   5.664   2.877  0.5069  0.1856 -0.4358
  150MOL     H630104   1.877   5.925   2.911 -1.1092 -1.9462  1.7321
  150MOL     H730105   2.045   5.890   2.939 -0.9807 -0.9333  2.2058
  150MOL     H830106   1.964   5.674   2.994  0.5071 -3.3211 -0.9357
  150MOL     H930107   1.996   5.647   2.831 -0.2097 -1.1514  2.3354
  150MOL    H1030108   1.778   5.605   2.797  0.6817 -0.9956  0.3915
  150MOL    H1130109   1.923   5.875   2.661 -0.5532  0.3451  0.4601
  150MOL    C1230110   1.694   5.662   2.974 -0.2091 -0.8582 -0.7507
  150MOL    O1330111   1.705   5.722   3.079 -0.0198 -0.1256 -0.1736
  150MOL    C1430112   1.564   5.590   2.930 -0.2676 -0.7276 -0.5705
  150MOL    C1530113   1.436   5.626   3.011  0.4411 -0.5836  0.2312
  150MOL    N1630114   1.388   5.511   3.094 -0.3242  0.1222  0.4786
  150MOL    H1730115   1.576   5.485   2.956  0.7087  0.1429  2.8116
  150MOL    H1830116   1.551   5.574   2.823 -1.7376  0.6648 -0.6252
  150MOL    H1930117   1.453   5.701   3.089  1.8859  0.8731 -1.4631
  150MOL    H2030118   1.363   5.661   2.938  1.9876  1.6619 -0.2570
  150MOL    H2130119   1.462   5.458   3.138  3.5564  3.8484 -1.2191
  150MOL    C2230120   1.259   5.484   3.117  0.0467 -0.5179  0.7407
  150MOL    O2330121   1.167   5.545   3.068  0.0262  0.2423 -0.1008
  150MOL    C2430122   1.247   5.349   3.195 -0.2193 -0.6176 -0.2495
  150MOL    C2530123   1.110   5.294   3.225  0.2890 -0.2195  0.5744
  150MOL    N2630124   1.057   5.334   3.355 -0.3506  0.3985  0.3916
  150MOL    H2730125   1.304   5.370   3.285 -0.6977 -0.9756  0.1324
  150MOL    H2830126   1.298   5.280   3.127  1.0296  0.7179 -0.7007
  150MOL    H2930127   1.032   5.324   3.154  0.9702  0.4356  0.0988
  150MOL    H3030128   1.117   5.185   3.219 -2.0094 -0.3593 -0.4229
  150MOL    H3130129   1.111   5.402   3.406 -1.0658  0.6374  0.8432
  150MOL    C3230130   0.934   5.315   3.409 -0.0005 -0.5802  0.1896
  150MOL    O3330131   0.855   5.233   3.352 -0.2448  0.0030 -0.4481
  150MOL    C3430132   0.883   5.392   3.533  0.0140 -0.0192  0.6642
  150MOL    C3530133   0.902   5.551   3.545  0.3110  0.2195 -0.4737
  150MOL    N3630134   1.018   5.595   3.626  0.6658  0.0548 -0.4796
  150MOL    H3730135   0.934   5.350   3.619 -1.2475 -2.6875  0.1570
  150MOL    H3830136   0.779   5.358   3.537 -0.0178 -0.1046 -0.5961
  150MOL    H3930137   0.906   5.588   3.442 -0.7432 -0.3842 -0.7434
  150MOL    H4030138   0.811   5.597   3.586  1.3977  0.1587  2.0563
  150MOL    H4130139   1.001   5.650   3.709  2.6633 -0.7387  0.4888
  150MOL    C4230140   1.145   5.580   3.592 -0.4503  0.9717 -0.6845
  150MOL    O4330141   1.189   5.520   3.495  0.1588 -0.1501  0.4310
  150MOL    C4430142   1.246   5.636   3.687 -0.2383  0.5151 -0.0259
  150MOL    C4530143   1.280   5.781   3.657 -0.3236 -0.4581  0.4914
  150MOL    N4630144   1.401   5.819   3.723  0.2114 -0.1669  0.4020
  150MOL    H4730145   1.225   5.623   3.793  0.9067  1.7192  0.3564
  150MOL    H4830146   1.336   5.577   3.669  0.1547  1.7614 -2.2926
  150MOL    H4930147   1.294   5.805   3.552 -1.2833 -0.5958  0.3311
  150MOL    H5030148   1.204   5.856   3.680 -0.0165 -0.6020  2.0828
  150MOL    H5130149   1.485   5.827   3.667  0.6641  0.8040  1.1871
  150MOL    C5230150   1.405   5.873   3.847 -0.1290 -0.3850  0.3999
  150MOL    O5330151   1.306   5.882   3.916  0.1796  0.2694 -0.3932
  150MOL    C5430152   1.549   5.920   3.879 -0.3410 -0.4483 -0.3796
  150MOL    C5530153   1.578   6.059   3.831  0.7613  0.4251 -1.0535
  150MOL    N5630154   1.579   6.065   3.686 -0.1608  0.2814 -0.1820
  150MOL    H5730155   1.556   5.916   3.988 -1.2430  2.1324 -0.1880
  150MOL    H5830156   1.619   5.845   3.841 -0.3361  0.3451 -1.9610
  150MOL    H5930157   1.678   6.096   3.853  0.4310  1.4348 -1.2451
  150MOL    H6030158   1.519   6.135   3.882  1.7417  0.3160  0.2688
  150MOL    H6130159   1.598   5.980   3.635  2.0471  1.2020 -0.9492
  150MOL    C6230160   1.524   6.168   3.621  0.1532 -0.3027  0.0482
  150MOL    O6330161   1.490   6.275   3.677 -0.6234  0.0211  0.0736
  150MOL    C6430162   1.493   6.148   3.476 -0.0546 -0.6904 -0.0361
  150MOL    C6530163   1.378   6.237   3.418  0.0800 -0.1802  0.4539
  150MOL    N6630164   1.419   6.361   3.367 -0.6448  0.1934 -0.5162
  150MOL    H6730165   1.583   6.165   3.417 -0.6171  0.8387 -0.4855
  150MOL    H6830166   1.461   6.044   3.466  3.2592 -2.0381  2.4996
  150MOL    H6930167   1.330   6.175   3.343 -0.6257 -1.3317  1.8194
  150MOL    H7030168   1.306   6.247   3.500  0.9537  0.2435  1.1833
  150MOL    H7130169   1.488   6.411   3.422  0.5881 -1.2769 -0.7120
  150MOL    C7230170   1.401   6.415   3.250 -0.0952 -0.3154  0.4957
  150MOL    O7330171   1.320   6.371   3.174  0.1578 -0.2906  0.2103
  150MOL    C7430172   1.487   6.531   3.211  0.1692 -0.2995 -0.4069
  150MOL    C7530173   1.640   6.500   3.198  0.0820  0.5819 -0.7484
  150MOL    N7630174   1.708   6.445   3.316  0.2012 -0.1471 -0.2836
  150MOL    H7730175   1.453   6.575   3.118 -0.9507  2.5021  1.2595
  150MOL    H7830176   1.487   6.606   3.291 -0.2711 -0.1181 -0.5814
  150MOL    H7930177   1.670   6.434   3.117 -0.2396  0.3837 -0.7084
  150MOL    H8030178   1.693   6.594   3.184  0.8625  0.8180  3.1660
  150MOL    H8130179   1.762   6.360   3.304  0.8992  0.4383 -1.3422
  150MOL    C8230180   1.704   6.499   3.441 -0.1920  0.3027  0.1326
  150MOL    O8330181   1.651   6.607   3.466 -0.3030 -0.0969 -0.2599
  150MOL    C8430182   1.783   6.429   3.557 -0.2303 -0.0811  0.4323
  150MOL    C8530183   1.829   6.515   3.677 -0.2595 -0.8648 -0.2642
  150MOL    N8630184   1.737   6.516   3.789 -0.0231  0.3646  0.0038
  150MOL    H8730185   1.731   6.341   3.593 -2.6297  1.3807  0.6356
  150MOL    H8830186   1.880   6.394   3.520  1.2341  2.1218  2.0736
  150MOL    H8930187   1.929   6.487   3.708  0.5340  0.9871 -1.0855
  150MOL    H9030188   1.849   6.619   3.649  3.1461 -0.7918  2.1573
  150MOL    H9130189   1.656   6.575   3.777 -0.4282  0.3071  2.2460
  150MOL    C9230190   1.758   6.437   3.897 -0.4659 -0.1772  0.3404
  150MOL    O9330191   1.861   6.368   3.913  0.6625  0.7195 -0.1663
  150MOL    C9430192   1.651   6.447   4.004  0.8492  0.3598 -0.4688
  150MOL    C9530193   1.515   6.510   3.968 -0.4980 -0.3283  0.9258
  150MOL    N9630194   1.423   6.416   3.910  0.3590 -1.0281 -0.4829
  150MOL    H9730195   1.637   6.345   4.041  2.2275  0.1627 -0.4601
  150MOL    H9830196   1.698   6.501   4.086 -0.1639  1.0390 -0.3418
  150MOL    H9930197   1.491   6.553   4.065 -0.0918  1.2369  0.3450
  150MOL   H10030198   1.514   6.592   3.896 -1.4167 -1.0069  0.1552
  150MOL   H10130199   1.440   6.385   3.815  0.3109 -1.9896 -0.1766
  150MOL   C10230200   1.322   6.368   3.977 -0.1914  0.0861  0.0956
  150MOL   O10330201   1.277   6.419   4.079 -0.2425 -0.2799  0.0658
  150MOL   C10430202   1.268   6.234   3.935  0.4971  0.4420  0.0128
  150MOL   C10530203   1.121   6.210   3.959 -0.6330 -0.7475  0.7980
  150MOL   N10630204   1.082   6.100   3.863 -0.2121  0.1367 -0.3916
  150MOL   H10730205   1.320   6.161   3.998 -0.1881 -0.8953 -0.9544
  150MOL   H10830206   1.292   6.231   3.829 -0.1342  3.0374 -0.2423
  150MOL   H10930207   1.093   6.184   4.061  2.8730  0.1577  2.0454
  150MOL   H11030208   1.061   6.299   3.939  1.0917 -0.0586 -1.4454
  150MOL   H11130209   1.117   6.009   3.889 -2.2663 -0.5840 -0.0311
  150MOL   C11230210   0.979   6.103   3.778  0.2333  0.1940 -0.5671
  150MOL   O11330211   0.940   6.218   3.748 -0.6487 -0.8725  0.0028
  150MOL   C11430212   0.927   5.968   3.723 -0.4664 -0.5741 -0.4713
  150MOL   C11530213   0.867   5.971   3.583 -0.9901 -0.1541 -0.9506
  150MOL   N11630214   0.973   5.978   3.483  0.5925  0.0171 -0.1846
  150MOL   H11730215   0.847   5.937   3.790  0.4198  1.0393  1.3854
  150MOL   H11830216   1.002   5.890   3.738 -0.5327 -0.8399 -1.5195
  150MOL   H11930217   0.798   5.888   3.567  0.1215 -1.5272  1.2658
  150MOL   H12030218   0.804   6.060   3.573  1.3055  1.4984 -1.1302
  150MOL   H12130219   1.030   6.062   3.490  0.9294 -0.2233 -0.0121
  150MOL   C12230220   0.986   5.915   3.367 -0.1733  0.0098  0.3222
  150MOL   O12330221   0.924   5.813   3.349 -0.1380 -0.1210  0.3745
  150MOL   C12430222   1.095   5.975   3.269  0.4332  0.0199 -0.4448
  150MOL   C12530223   1.154   5.880   3.165  0.7732  0.0862  0.9310
  150MOL   N12630224   1.262   5.950   3.091  0.4985  1.1031  0.1197
  150MOL   H12730225   1.178   6.011   3.329  1.5003 -1.0168 -1.2614
  150MOL   H12830226   1.041   6.056   3.221 -0.7495 -0.8754 -0.6575
  150MOL   H12930227   1.196   5.793   3.215 -0.1992 -1.6103 -1.1090
  150MOL   H13030228   1.080   5.844   3.094  1.1624  0.3967  0.3524
  150MOL   H13130229   1.251   5.989   2.998  0.9625  0.5965 -0.1558
  150MOL   C13230230   1.383   5.965   3.124  0.3466 -0.0824  0.3580
  150MOL   O13330231   1.436   5.916   3.226  0.8021 -0.5955  0.5516
  150MOL   C13430232   1.477   6.045   3.024 -0.0362 -0.4776  0.1566
  150MOL   C13530233   1.592   6.123   3.084 -0.3158  0.0874  0.7323
  150MOL   N13630234   1.712   6.039   3.114  0.6862  0.2943  0.5973
  150MOL   H13730235   1.414   6.116   2.970  1.6362  0.4505 -0.6066
  150MOL   H13830236   1.517   5.982   2.945  3.2575  0.0054  1.3958
  150MOL   H13930237   1.626   6.200   3.015  0.4688 -0.5491  0.4026
  150MOL   H14030238   1.548   6.178   3.168 -3.8118  0.6915 -1.4227
  150MOL   H14130239   1.704   5.939   3.103  1.4192  0.1863  1.0236
  150MOL   C14230240   1.808   6.083   3.200 -0.0302  0.4690  0.7746
  150MOL   O14330241   1.817   6.200   3.229 -0.3526 -0.1779  0.4644
  150MOL   C14430242   1.910   5.979   3.257  0.0766  0.0713  0.1614
  150MOL   C14530243   1.853   5.905   3.386  0.7637  0.8546 -0.3314
  150MOL   N14630244   1.737   5.821   3.356 -0.5115 -0.1169  0.2960
  150MOL   H14730245   2.000   6.035   3.285  0.5346 -1.5521  1.9921
  150MOL   H14830246   1.940   5.916   3.173  2.2810  2.7456 -1.1594
  150MOL   H14930247   1.935   5.859   3.440 -0.0591  0.4297  0.5692
  150MOL   H15030248   1.819   5.988   3.448  1.0004  3.0085 -2.9362
  150MOL   H15130249   1.740   5.769   3.269 -3.4529  0.4920 -0.2281
  150MOL   C15230250   1.640   5.779   3.440  0.0156 -0.1544  0.6721
  150MOL   O15330251   1.617   5.824   3.554  0.7202  0.3303 -0.3312
  150MOL   C15430252   1.535   5.677   3.385 -0.0336 -0.1730 -0.1670
  150MOL   C15530253   1.543   5.538   3.453 -0.2731 -0.4180 -0.5934
  150MOL   N15630254   1.672   5.465   3.417  0.0965 -0.4133  0.7309
  150MOL   H15730255   1.541   5.682   3.276 -0.3586  1.1014 -0.1361
  150MOL   H15830256   1.430   5.700   3.403  0.0783  0.7373 -0.6741
  150MOL   H15930257   1.552   5.554   3.560 -0.5123  1.1380 -0.7974
  150MOL   H16030258   1.453   5.478   3.437 -0.3945 -0.1845 -0.8025
  150MOL   H16130259   1.755   5.495   3.466  0.9145  0.1259 -0.9273
  150MOL   C16230260   1.668   5.392   3.310 -0.2162  0.1303  1.6100
  150MOL   O16330261   1.571   5.363   3.237  0.4481 -0.5516 -0.0589
  150MOL   C16430262   1.807   5.336   3.278  0.0369 -0.5341  0.1318
  150MOL   C16530263   1.901   5.427   3.206  0.0702  0.1465 -0.1653
  150MOL   N16630264   2.023   5.360   3.160  0.2514  0.0736 -0.3576
  150MOL   H16730265   1.779   5.246   3.221  3.1509 -2.2871  1.2291
  150MOL   H16830266   1.843   5.296   3.372  1.2220  1.8767  0.7356
  150MOL   H16930267   1.839   5.472   3.129 -1.2171  1.9553  1.8742
  150MOL   H17030268   1.933   5.509   3.271 -2.3715  0.7606  0.3027
  150MOL   H17130269   2.036   5.358   3.060 -0.5480 -1.0516 -0.4536
  150MOL   C17230270   2.117   5.305   3.238  0.6990 -0.2816  0.3548
  150MOL   O17330271   2.107   5.292   3.359 -0.5424  0.2542  0.5607
  150MOL   C17430272   2.242   5.247   3.168  0.3402  0.1618  0.7854
  150MOL   C17530273   2.274   5.102   3.215 -0.7649 -0.6394  0.0049
  150MOL   N17630274   2.419   5.072   3.195  0.1797  0.0544  0.0418
  150MOL   H17730275   2.326   5.312   3.194  0.8133  0.0396 -0.3978
  150MOL   H17830276   2.233   5.242   3.059 -1.2878 -0.0651  0.9267
  150MOL   H17930277   2.260   5.085   3.322  1.3572 -1.1280  0.2318
  150MOL   H18030278   2.203   5.038   3.162 -0.0627 -1.1135 -0.3705
  150MOL   H18130279   2.471   5.140   3.142 -1.6895  0.9434 -0.7270
  150MOL   C18230280   2.471   4.965   3.251 -0.8714 -0.6110 -0.3410
  150MOL   O18330281   2.405   4.876   3.302  0.1473  0.3612 -0.8478
  150MOL   C18430282   2.622   4.944   3.257  0.4653  0.7151  0.1787
  150MOL   C18530283   2.664   4.976   3.397 -0.1986  0.3204 -0.5615
  150MOL   N18630284   2.813   4.975   3.410 -0.6675  0.0501 -0.1221
  150MOL   H18730285   2.677   5.010   3.189 -1.0471  0.2406 -1.5285
  150MOL   H18830286   2.656   4.842   3.235 -0.1173  0.1379  1.8811
  150MOL   H18930287   2.634   5.074   3.433 -1.0454  0.5022 -1.7300
  150MOL   H19030288   2.625   4.899   3.463 -0.3195  0.3531 -0.5946
  150MOL   H19130289   2.861   4.906   3.353  1.0900 -0.0788  1.4730
  150MOL   C19230290   2.897   5.045   3.484 -0.1958 -0.4905  0.0990
  150MOL   O19330291   2.857   5.117   3.573 -0.4586 -0.2630  0.7657
  150MOL   C19430292   3.041   5.031   3.449  0.3182 -0.6885 -0.4896
  150MOL   C19530293   3.133   5.121   3.521 -0.1437  0.4598 -0.2583
  150MOL   N19630294   3.098   5.268   3.519  0.0722 -0.3308 -0.2377
  150MOL   H19730295   3.063   4.925   3.463  0.4067 -0.5617  0.3527
  150MOL   H19830296   3.060   5.038   3.342 -0.5388 -2.3755 -0.7831
  150MOL   H19930297   3.141   5.103   3.628 -0.6744 -0.6021 -0.3970
  150MOL   H20030298   3.230   5.095   3.479 -0.1940  2.0120 -1.3733
  150MOL   H20130299   3.006   5.271   3.559  0.2127 -1.9725  0.2332
  150MOL   H20230300   3.091   5.288   3.420  0.3312  0.3728 -0.1206
  151MOL     C130301   6.898   3.868   0.665 -0.5592 -0.5197 -0.4506
  151MOL     O230302   6.873   3.976   0.726 -0.0756  0.3234 -1.0179
  151MOL     C330303   6.963   3.745   0.740  0.0298  0.3870 -0.4634
  151MOL     C430304   6.855   3.645   0.790  0.2355  0.1105  0.7011
  151MOL     N530305   6.913   3.542   0.867 -0.4514 -0.3610  0.1120
  151MOL     H630306   7.017   3.791   0.823 -0.4609  1.5968 -0.7918
  151MOL     H730307   7.044   3.704   0.681 -0.1298  2.1981 -2.0191
  151MOL     H830308   6.792   3.603   0.712  0.9388  1.7669 -0.8033
  151MOL     H930309   6.783   3.706   0.844  0.0328  0.2750  0.2489
  151MOL    H1030310   7.003   3.506   0.837 -0.3097 -0.6120  0.8203
  151MOL    H1130311   6.875   3.844   0.561  1.0847  0.7061 -1.1082
  151MOL    C1230312   6.862   3.475   0.974 -0.6172  0.5134  0.2359
  151MOL    O1330313   6.752   3.501   1.022  0.2448  0.1273 -0.5397
  151MOL    C1430314   6.950   3.371   1.038 -0.1847  0.3510 -0.3565
  151MOL    C1530315   6.884   3.292   1.151 -0.1213  0.1042 -0.5919
  151MOL    N1630316   6.884   3.360   1.286  0.2777 -0.0564  0.2960
  151MOL    H1730317   7.043   3.416   1.074 -1.2317  0.1465  2.8380
  151MOL    H1830318   6.980   3.307   0.956 -0.0356  1.0238 -0.8258
  151MOL    H1930319   6.778   3.281   1.126 -0.3550  1.7527 -0.3542
  151MOL    H2030320   6.943   3.202   1.170 -2.4744 -1.3579  0.1069
  151MOL    H2130321   6.970   3.406   1.310  0.9759 -1.5535  0.7339
  151MOL    C2230322   6.790   3.354   1.380 -0.4522  0.3723 -0.5634
  151MOL    O2330323   6.680   3.303   1.353 -0.1618 -0.4425 -0.4944
  151MOL    C2430324   6.826   3.420   1.514 -0.1791  0.6703 -0.3038
  151MOL    C2530325   6.728   3.516   1.568  1.3780  0.3233 -0.1417
  151MOL    N2630326   6.764   3.578   1.701 -0.2121  0.2345 -0.9716
  151MOL    H2730327   6.921   3.472   1.507  0.9737 -0.6777  3.6026
  151MOL    H2830328   6.840   3.340   1.587 -1.4825  1.0326  0.3603
  151MOL    H2930329   6.720   3.589   1.488 -0.7151 -1.6856 -1.8071
  151MOL    H3030330   6.640   3.453   1.579  0.3746  1.5564 -1.0662
  151MOL    H3130331   6.860   3.575   1.733 -0.0100  1.1357 -1.4910
  151MOL    C3230332   6.673   3.629   1.782 -0.1728 -0.7053  0.2619
  151MOL    O3330333   6.553   3.650   1.760  0.0040 -0.0262  0.4168
  151MOL    C3430334   6.730   3.667   1.920 -0.3811  0.4050  0.3190
  151MOL    C3530335   6.643   3.621   2.042  0.1733  0.1113  0.0358
  151MOL    N3630336   6.641   3.471   2.056 -0.1203  0.0044  0.8780
  151MOL    H3730337   6.727   3.776   1.915 -0.1446  0.3480 -1.8859
  151MOL    H3830338   6.834   3.637   1.932 -0.3270  0.1560 -0.6902
  151MOL    H3930339   6.679   3.663   2.136 -0.1659 -0.6569  0.5173
  151MOL    H4030340   6.544   3.665   2.030 -0.2396 -0.6329  0.5954
  151MOL    H4130341   6.608   3.424   1.973 -0.8344  1.4111  0.3513
  151MOL    C4230342   6.707   3.405   2.154 -0.3613 -1.1295  0.3268
  151MOL    O4330343   6.781   3.458   2.239  0.5656  0.1377 -0.2466
  151MOL    C4430344   6.684   3.257   2.160  0.2238  0.5291  0.8213
  151MOL    C4530345   6.818   3.182   2.164  1.2665  0.5698 -0.1710
  151MOL    N4630346   6.838   3.122   2.030  0.1299 -0.0272  0.0421
  151MOL    H4730347   6.629   3.243   2.253 -0.8963 -0.5029  0.0189
  151MOL    H4830348   6.619   3.214   2.084  0.4356 -1.0795  1.5218
  151MOL    H4930349   6.909   3.230   2.200  1.0724  2.0800 -1.6200
  151MOL    H5030350   6.797   3.103   2.235 -0.7360 -0.2627 -1.6366
  151MOL    H5130351   6.819   3.023   2.024  2.7630 -0.8554  3.6336
  151MOL    C5230352   6.886   3.184   1.919  0.9189 -0.4330  0.0427
  151MOL    O5330353   6.915   3.304   1.915  0.6135 -0.7442 -0.5318
  151MOL    C5430354   6.896   3.089   1.805 -1.2933 -0.4649 -0.2191
  151MOL    C5530355   7.020   2.997   1.808  0.3770 -0.4634 -0.3324
  151MOL    N5630356   7.144   3.061   1.860  0.0797  0.9040  0.0876
  151MOL    H5730357   6.806   3.030   1.793 -1.2785 -0.7235  0.8961
  151MOL    H5830358   6.889   3.149   1.714  1.3647 -2.0605 -1.5479
  151MOL    H5930359   7.033   2.967   1.704 -0.8892 -2.1945 -0.0140
  151MOL    H6030360   6.988   2.909   1.865 -0.1534  0.8414  1.3996
  151MOL    H6130361   7.168   3.058   1.958 -1.3384  1.5601  0.4613
  151MOL    C6230362   7.229   3.131   1.783 -0.4940  0.7741 -0.5822
  151MOL    O6330363   7.212   3.159   1.662  0.2583  0.3502  0.2288
  151MOL    C6430364   7.348   3.190   1.856  0.2873  0.3953 -0.0725
  151MOL    C6530365   7.339   3.349   1.876 -1.0392 -0.2014  0.2449
  151MOL    N6630366   7.228   3.385   1.967 -0.2300 -0.4845  0.0896
  151MOL    H6730367   7.361   3.151   1.957 -0.1080 -0.3646 -0.3179
  151MOL    H6830368   7.441   3.176   1.801  0.8500 -0.8697  1.1848
  151MOL    H6930369   7.435   3.391   1.908 -0.6611 -1.1838  0.4311
  151MOL    H7030370   7.331   3.383   1.773  0.5398 -0.5077 -0.0005
  151MOL    H7130371   7.133   3.382   1.933  0.0272  0.3137 -0.7181
  151MOL    C7230372   7.239   3.406   2.096 -0.5817  0.3323 -0.8810
  151MOL    O7330373   7.346   3.379   2.156 -0.3722 -0.7614  0.5282
  151MOL    C7430374   7.114   3.436   2.174  0.2653 -0.2568  0.0421
  151MOL    C7530375   7.116   3.578   2.227  0.2542 -0.5940 -0.4122
  151MOL    N7630376   6.992   3.604   2.300 -0.1618  0.3675 -0.4117
  151MOL    H7730377   7.023   3.415   2.117  1.1254  0.0569 -1.4754
  151MOL    H7830378   7.111   3.377   2.266  1.9166  0.2268  0.4255
  151MOL    H7930379   7.209   3.598   2.280  0.1477 -0.5129 -0.2579
  151MOL    H8030380   7.117   3.640   2.137  1.0146  0.4939  0.3430
  151MOL    H8130381   6.908   3.576   2.251 -1.1745 -0.2251  1.6366
  151MOL    C8230382   6.979   3.668   2.415 -0.6575 -0.3519  0.2920
  151MOL    O8330383   7.068   3.691   2.495  0.2976  0.2655  0.1048
  151MOL    C8430384   6.833   3.694   2.458 -0.5953  0.0212  0.5419
  151MOL    C8530385   6.808   3.797   2.567  0.1542  0.3613  0.2917
  151MOL    N8630386   6.874   3.926   2.552 -0.2378  0.4511 -0.5409
  151MOL    H8730387   6.776   3.716   2.368 -0.1557 -0.9797  0.0093
  151MOL    H8830388   6.793   3.596   2.484  0.0347 -0.7307 -1.2368
  151MOL    H8930389   6.704   3.828   2.580  0.4652  1.3018  0.5974
  151MOL    H9030390   6.838   3.743   2.657  2.7432  1.3568  0.0621
  151MOL    H9130391   6.895   3.958   2.459 -0.7322 -1.8297 -1.4649
  151MOL    C9230392   6.937   4.000   2.649 -0.3097 -0.0268  0.2219
  151MOL    O9330393   6.942   3.952   2.761  0.6122  0.1912 -0.3868
  151MOL    C9430394   7.013   4.125   2.608 -0.3897  0.0262 -0.7621
  151MOL    C9530395   7.062   4.216   2.727 -0.0947  0.1277  0.1127
  151MOL    N9630396   6.961   4.317   2.761  1.4607  0.3033 -0.6823
  151MOL    H9730397   7.098   4.082   2.555  0.5170  1.8774 -0.8517
  151MOL    H9830398   6.957   4.185   2.537 -1.4353  0.0973  0.0959
  151MOL    H9930399   7.072   4.158   2.819 -0.1867  0.8485  0.5859
  151MOL   H10030400   7.155   4.269   2.707  0.9361 -1.5964  0.2003
  151MOL   H10130401   6.903   4.353   2.687 -1.9160 -1.3264  1.0539
  151MOL   C10230402   6.933   4.371   2.880 -0.3112  0.2148  0.0446
  151MOL   O10330403   7.006   4.344   2.972  0.0364 -0.0532 -0.5484
  151MOL   C10430404   6.804   4.452   2.894  0.5491 -0.2374  0.5824
  151MOL   C10530405   6.788   4.543   3.019  0.3046 -0.3564  0.4664
  151MOL   N10630406   6.767   4.470   3.144 -0.4057  0.2969 -0.0244
  151MOL   H10730407   6.716   4.389   2.886 -0.2884  1.2727 -2.8129
  151MOL   H10830408   6.805   4.517   2.806  1.5330  0.9261  1.4303
  151MOL   H10930409   6.885   4.589   3.035 -0.2314  0.5470  1.1513
  151MOL   H11030410   6.719   4.625   3.001 -0.0533 -0.3534  1.8099
  151MOL   H11130411   6.727   4.378   3.146  1.2335 -0.4334  1.3607
  151MOL   C11230412   6.778   4.527   3.266  0.5231 -0.7161  0.0947
  151MOL   O11330413   6.840   4.627   3.287  0.2338 -0.5018 -0.1280
  151MOL   C11430414   6.710   4.458   3.386 -0.1061  0.0139 -0.5388
  151MOL   C11530415   6.704   4.529   3.517  0.4631  0.8582 -0.0112
  151MOL   N11630416   6.623   4.472   3.627 -0.7637  0.3559 -0.3519
  151MOL   H11730417   6.724   4.352   3.410 -0.6771  0.2763  0.9962
  151MOL   H11830418   6.608   4.462   3.347  0.7167  0.9625 -2.6377
  151MOL   H11930419   6.807   4.532   3.552  1.1277  0.7246 -1.9318
  151MOL   H12030420   6.654   4.625   3.502  0.3727  0.9455  0.8159
  151MOL   H12130421   6.661   4.452   3.718  0.3098  1.1993 -0.6173
  151MOL   C12230422   6.496   4.442   3.621  0.7897 -0.0722  0.2745
  151MOL   O12330423   6.423   4.470   3.525 -0.6135  0.1152  0.2472
  151MOL   C12430424   6.431   4.386   3.747  0.3215 -0.3678  0.0552
  151MOL   C12530425   6.309   4.294   3.715 -0.9760  0.1594  0.5005
  151MOL   N12630426   6.338   4.183   3.625  0.7426  0.5088  0.0440
  151MOL   H12730427   6.387   4.465   3.808  0.6383 -0.4314  0.3636
  151MOL   H12830428   6.516   4.357   3.808  0.1084 -0.0211  0.5162
  151MOL   H12930429   6.264   4.263   3.809  2.4447  0.5253  2.3191
  151MOL   H13030430   6.236   4.364   3.675 -0.4844 -0.5131 -1.6602
  151MOL   H13130431   6.318   4.184   3.526  0.0324  1.4851  0.1888
  151MOL   C13230432   6.439   4.093   3.647  0.6696 -0.0280 -0.6159
  151MOL   O13330433   6.496   4.079   3.756 -0.2173 -0.3863 -0.5940
  151MOL   C13430434   6.490   4.016   3.524 -0.7112 -0.1654 -0.2525
  151MOL   C13530435   6.616   3.936   3.557  0.7512 -0.2479 -0.4572
  151MOL   N13630436   6.665   3.843   3.455  0.1630 -0.6974  0.4300
  151MOL   H13730437   6.504   4.086   3.442 -1.9732  2.5985  1.8097
  151MOL   H13830438   6.412   3.950   3.488 -0.0576 -1.7261  1.1350
  151MOL   H13930439   6.699   4.001   3.584 -1.8177  1.1392  4.6540
  151MOL   H14030440   6.598   3.878   3.647 -1.3645  1.2074  0.1049
  151MOL   H14130441   6.754   3.865   3.413 -0.1461  1.3612  0.7972
  151MOL   C14230442   6.621   3.713   3.446 -0.5306 -0.2728 -0.5994
  151MOL   O14330443   6.517   3.684   3.509 -0.2786 -0.3401 -0.0539
  151MOL   C14430444   6.697   3.599   3.370 -0.4372 -0.9505 -0.0183
  151MOL   C14530445   6.612   3.564   3.248 -0.3209 -0.2659  0.1284
  151MOL   N14630446   6.667   3.479   3.139 -0.4276 -0.3852  0.1581
  151MOL   H14730447   6.707   3.509   3.431 -3.2152 -1.6707 -0.5228
  151MOL   H14830448   6.793   3.633   3.332 -0.6674  0.8783  0.9880
  151MOL   H14930449   6.512   3.531   3.273 -0.4136 -0.2694 -0.2409
  151MOL   H15030450   6.588   3.654   3.191 -4.4590 -0.3909  1.5352
  151MOL   H15130451   6.716   3.524   3.064 -1.8188  2.1521  0.7217
  151MOL   C15230452   6.667   3.348   3.134  0.6207  0.0397 -0.1456
  151MOL   O15330453   6.608   3.274   3.215  0.1326 -0.1738  0.3859
  151MOL   C15430454   6.705   3.283   3.001 -0.2375 -0.3980  0.3461
  151MOL   C15530455   6.740   3.138   3.008  0.1316 -0.2579  0.6264
  151MOL   N15630456   6.634   3.043   3.039  0.4088  0.2637  0.4129
  151MOL   H15730457   6.790   3.340   2.964  0.3352 -1.9142 -0.7150
  151MOL   H15830458   6.625   3.304   2.930  1.0952  0.8225 -0.8076
  151MOL   H15930459   6.768   3.104   2.908 -0.3250  0.2980  0.3060
  151MOL   H16030460   6.810   3.122   3.089  0.2401  0.0682  0.5968
  151MOL   H16130461   6.556   3.082   3.090  0.4311 -1.7474  2.0756
  151MOL   C16230462   6.622   2.916   2.995 -0.2192  0.1896  0.5753
  151MOL   O16330463   6.697   2.854   2.918  0.1199  0.0342 -0.0847
  151MOL   C16430464   6.492   2.854   3.044 -0.6820  0.1528  0.0457
  151MOL   C16530465   6.366   2.912   2.978  0.0468  0.2450  0.2468
  151MOL   N16630466   6.350   2.856   2.843  0.7667 -0.1223 -0.0482
  151MOL   H16730467   6.497   2.875   3.151 -0.2593  3.8669 -0.6466
  151MOL   H16830468   6.509   2.747   3.030  1.4729  0.6781 -1.5442
  151MOL   H16930469   6.274   2.881   3.028 -0.1079 -0.7441 -0.6380
  151MOL   H17030470   6.368   3.021   2.977  0.9757  0.2319 -1.5862
  151MOL   H17130471   6.420   2.791   2.809  0.9605 -0.3815  0.8388
  151MOL   C17230472   6.257   2.889   2.754  0.0457  0.0933  0.4599
  151MOL   O17330473   6.177   2.982   2.776 -0.1333 -0.2556  0.0614
  151MOL   C17430474   6.250   2.826   2.617 -0.5707  0.5711 -0.3040
  151MOL   C17530475   6.112   2.846   2.541  0.2541 -0.2460 -0.7967
  151MOL   N17630476   6.121   2.822   2.395 -0.2033  0.1093  0.3828
  151MOL   H17730477   6.273   2.721   2.635 -0.0890  0.6488 -0.4518
  151MOL   H17830478   6.327   2.867   2.552  0.0490  2.7236  1.7507
  151MOL   H17930479   6.036   2.778   2.580  0.0982 -0.5640 -1.6411
  151MOL   H18030480   6.078   2.948   2.558 -0.2767 -0.5851  0.1846
  151MOL   H18130481   6.211   2.798   2.356  0.0905  0.8954  0.5640
  151MOL   C18230482   6.020   2.827   2.309  0.4029 -0.0263 -0.7573
  151MOL   O18330483   5.908   2.855   2.348 -0.2993 -0.1249  0.8240
  151MOL   C18430484   6.045   2.802   2.160  0.2092  0.1409  0.3364
  151MOL   C18530485   5.954   2.870   2.057 -0.2714 -0.4664 -0.0289
  151MOL   N18630486   6.016   2.875   1.921 -0.2337 -0.6624  0.2296
  151MOL   H18730487   6.034   2.694   2.146  0.3858  0.1617  0.0322
  151MOL   H18830488   6.152   2.811   2.140  0.4136 -1.7846  0.4064
  151MOL   H18930489   5.868   2.803   2.048  0.0105 -0.6323 -1.6987
  151MOL   H19030490   5.915   2.967   2.088 -0.0281 -0.4752  0.3063
  151MOL   H19130491   5.991   2.808   1.849 -0.7359 -0.5282  0.2724
  151MOL   C19230492   6.091   2.979   1.880  0.2749  0.5962  0.1459
  151MOL   O19330493   6.115   3.074   1.954 -0.2377 -0.0575  0.1737
  151MOL   C19430494   6.147   2.960   1.739 -0.3485 -0.1165 -0.3106
  151MOL   C19530495   6.041   2.942   1.635  0.4737 -0.0381  0.0623
  151MOL   N19630496   5.958   2.821   1.633  0.0106 -0.0319 -0.0243
  151MOL   H19730497   6.204   3.053   1.732 -0.8443  0.1615 -0.6716
  151MOL   H19830498   6.225   2.885   1.728  0.4592  0.4804  1.1635
  151MOL   H19930499   5.968   3.020   1.656 -0.6203 -1.2572  0.8013
  151MOL   H20030500   6.080   2.962   1.535 -0.7021 -2.3482 -0.8968
  151MOL   H20130501   5.881   2.838   1.570  0.4890  1.2148 -0.2888
  151MOL   H20230502   6.005   2.743   1.589  0.8734 -1.6450  3.5422
  152MOL     C130503   2.315   1.744   2.111  0.3582 -0.2625 -0.6729
  152MOL     O230504   2.302   1.626   2.080  0.0955 -0.0254 -0.3281
  152MOL     C330505   2.304   1.793   2.254 -0.8060  0.0979 -0.6921
  152MOL     C430506   2.407   1.738   2.354 -0.1037  0.2861 -0.0221
  152MOL     N530507   2.529   1.823   2.365 -0.0167  0.1685  0.1109
  152MOL     H630508   2.205   1.755   2.279 -0.9429  0.9796  0.1654
  152MOL     H730509   2.299   1.902   2.267  3.4578  0.0548  2.4749
  152MOL     H830510   2.438   1.638   2.324 -1.8194  0.1066 -1.3035
  152MOL     H930511   2.363   1.726   2.453  1.2743 -0.2746  0.5277
  152MOL    H1030512   2.616   1.772   2.372 -0.3695 -0.3484  0.8257
  152MOL    H1130513   2.338   1.816   2.033 -1.3312  1.1831  0.1168
  152MOL    C1230514   2.534   1.939   2.428  0.6617 -0.3213 -0.1054
  152MOL    O1330515   2.435   2.014   2.449 -0.0552 -0.6679  0.2475
  152MOL    C1430516   2.671   1.997   2.460 -0.0546  0.4025  0.3061
  152MOL    C1530517   2.747   2.052   2.340 -0.6074 -0.4163  0.1929
  152MOL    N1630518   2.889   2.078   2.375 -0.3672 -0.6180 -0.5558
  152MOL    H1730519   2.721   1.911   2.505  0.6706  0.7418  0.1620
  152MOL    H1830520   2.664   2.073   2.539 -3.1125 -0.6111  1.0957
  152MOL    H1930521   2.748   1.979   2.258  1.0853  1.2812 -1.3697
  152MOL    H2030522   2.714   2.140   2.284 -1.4415 -0.8985 -0.0785
  152MOL    H2130523   2.962   2.019   2.337  0.8737 -0.2616  1.2378
  152MOL    C2230524   2.934   2.182   2.453 -0.0203  0.1622 -0.1395
  152MOL    O2330525   2.861   2.257   2.521 -0.1173  0.4252  0.3284
  152MOL    C2430526   3.087   2.203   2.452  0.3151  0.0434 -0.5402
  152MOL    C2530527   3.130   2.339   2.474  0.6011 -1.2413 -0.4032
  152MOL    N2630528   3.272   2.355   2.435  0.2794  0.3413  0.4700
  152MOL    H2730529   3.122   2.160   2.358 -0.0856  0.1896 -0.7587
  152MOL    H2830530   3.131   2.145   2.534  2.2432  2.7459  0.3814
  152MOL    H2930531   3.062   2.403   2.417  0.4764  0.1570  1.2626
  152MOL    H3030532   3.119   2.369   2.578  2.1920 -0.1451 -0.5429
  152MOL    H3130533   3.338   2.376   2.509  1.0798 -0.4184 -0.0302
  152MOL    C3230534   3.318   2.362   2.311  0.4509  0.3006 -0.1501
  152MOL    O3330535   3.249   2.365   2.209 -0.6205 -0.0345 -0.1623
  152MOL    C3430536   3.465   2.395   2.302 -0.5783 -0.4262  0.4644
  152MOL    C3530537   3.534   2.454   2.176 -0.1153  0.7782  0.2434
  152MOL    N3630538   3.667   2.399   2.146  0.0839  0.0330  0.0377
  152MOL    H3730539   3.510   2.298   2.326  0.5960  0.1504  0.6645
  152MOL    H3830540   3.484   2.467   2.381 -1.7353  2.3437 -1.7134
  152MOL    H3930541   3.471   2.443   2.087  0.5258  2.0771 -0.4000
  152MOL    H4030542   3.539   2.563   2.179 -2.1498  0.9595 -1.6969
  152MOL    H4130543   3.664   2.298   2.155 -1.8194 -0.0502 -1.0944
  152MOL    C4230544   3.784   2.459   2.127  0.6878 -0.1215 -0.6952
  152MOL    O4330545   3.801   2.580   2.117 -0.0674  0.3452 -0.3753
  152MOL    C4430546   3.904   2.360   2.127  0.1105 -0.1532 -0.0670
  152MOL    C4530547   4.038   2.429   2.162  0.1299 -0.3859  0.2922
  152MOL    N4630548   4.145   2.337   2.185  0.6494 -0.0291  0.4832
  152MOL    H4730549   3.892   2.288   2.208 -1.0333  0.1586  0.0420
  152MOL    H4830550   3.906   2.303   2.034 -0.6142  2.7350 -1.9038
  152MOL    H4930551   4.063   2.499   2.082 -1.5018 -1.5876 -1.3174
  152MOL    H5030552   4.030   2.489   2.253 -2.1851  1.6340 -1.1667
  152MOL    H5130553   4.185   2.329   2.278  1.2388 -2.0013  0.0873
  152MOL    C5230554   4.178   2.229   2.113  0.3022  0.1856 -0.5475
  152MOL    O5330555   4.129   2.201   2.007  0.4591  0.3148 -0.0297
  152MOL    C5430556   4.281   2.131   2.160  0.3440 -0.2551 -0.0441
  152MOL    C5530557   4.232   1.987   2.162 -0.1508  0.2906  0.3652
  152MOL    N5630558   4.266   1.915   2.041  0.7046  0.0387 -0.2676
  152MOL    H5730559   4.379   2.129   2.113  0.5663 -1.5143  0.4535
  152MOL    H5830560   4.303   2.149   2.266 -0.0926  0.0432 -0.0037
  152MOL    H5930561   4.124   1.982   2.177 -0.1736 -1.2259 -0.2209
  152MOL    H6030562   4.269   1.935   2.250 -1.8742  0.7282  1.3771
  152MOL    H6130563   4.244   1.952   1.949  2.3171  0.0329 -0.6630
  152MOL    C6230564   4.314   1.791   2.044  0.0432 -0.9308  0.0578
  152MOL    O6330565   4.343   1.729   2.152 -0.3385 -0.3046 -0.4638
  152MOL    C6430566   4.356   1.732   1.907 -0.5057 -0.2323 -0.5590
  152MOL    C6530567   4.333   1.577   1.896  0.6159  0.6642  0.3702
  152MOL    N6630568   4.190   1.539   1.896 -0.1504 -0.1990 -0.3370
  152MOL    H6730569   4.289   1.781   1.836 -0.9979  0.3192  0.2783
  152MOL    H6830570   4.462   1.754   1.896 -0.3223 -0.1335  1.2991
  152MOL    H6930571   4.384   1.550   1.804 -0.3889  1.1902 -0.3560
  152MOL    H7030572   4.377   1.522   1.979 -1.1320 -0.9667  0.2302
  152MOL    H7130573   4.154   1.485   1.974 -0.3965  1.9265  1.0614
  152MOL    C7230574   4.109   1.541   1.793  0.1120  0.2163 -0.3461
  152MOL    O7330575   4.142   1.592   1.687 -0.1649  0.3072 -0.1455
  152MOL    C7430576   3.981   1.464   1.813  0.2501  0.1208  0.0585
  152MOL    C7530577   3.869   1.516   1.724  0.0645  0.5537  0.3241
  152MOL    N7630578   3.814   1.647   1.769  0.0343  0.0300 -0.0470
  152MOL    H7730579   3.997   1.356   1.801  0.1878  0.1887 -0.6696
  152MOL    H7830580   3.950   1.463   1.917 -2.0455 -0.0773 -0.5997
  152MOL    H7930581   3.900   1.527   1.620 -0.0321 -2.4992 -0.0731
  152MOL    H8030582   3.797   1.435   1.733  1.6279 -0.9754 -0.7273
  152MOL    H8130583   3.881   1.716   1.800 -0.2921  0.5492 -0.4812
  152MOL    C8230584   3.684   1.667   1.769 -0.0462  0.8400 -0.7230
  152MOL    O8330585   3.605   1.572   1.756 -0.3065 -0.1864  0.2360
  152MOL    C8430586   3.623   1.808   1.802  0.4825  0.2709  0.3004
  152MOL    C8530587   3.472   1.810   1.812 -0.1531 -0.6513 -0.2128
  152MOL    N8630588   3.420   1.936   1.863  0.0047  0.1580  0.4061
  152MOL    H8730589   3.671   1.837   1.895  0.0619 -0.4591  0.7489
  152MOL    H8830590   3.661   1.894   1.746 -1.6627  2.0206  1.4263
  152MOL    H8930591   3.428   1.789   1.714  1.8313 -0.5463 -1.1453
  152MOL    H9030592   3.434   1.732   1.879 -1.9606  0.8257  0.5411
  152MOL    H9130593   3.396   2.004   1.793  0.2674  1.6608  1.7267
  152MOL    C9230594   3.349   1.950   1.974  0.1915 -1.0540  0.7618
  152MOL    O9330595   3.345   1.872   2.068 -0.4316  0.2665  0.2946
  152MOL    C9430596   3.257   2.070   1.969  0.6127 -0.2339 -0.1922
  152MOL    C9530597   3.146   2.067   2.078  0.0242  0.4169 -0.6344
  152MOL    N9630598   3.079   2.196   2.084  0.5155  0.1524  0.1152
  152MOL    H9730599   3.322   2.154   1.994 -0.1484 -0.0671  1.3177
  152MOL    H9830600   3.211   2.085   1.871 -0.6604  2.3652  0.7612
  152MOL    H9930601   3.081   1.980   2.065  0.3877  0.1448 -0.6413
  152MOL   H10030602   3.194   2.047   2.174 -0.6528  0.1354 -0.3514
  152MOL   H10130603   3.117   2.269   2.142  1.5513  0.8975 -1.4758
  152MOL   C10230604   2.956   2.220   2.044  0.2178  0.4869 -0.1516
  152MOL   O10330605   2.876   2.128   2.024  0.8434 -0.4750  0.1728
  152MOL   C10430606   2.914   2.366   2.032 -0.9549  0.5642 -0.3502
  152MOL   C10530607   2.788   2.392   1.943 -0.1690  0.3912  0.2084
  152MOL   N10630608   2.772   2.543   1.946  0.6963 -0.5986  0.2438
  152MOL   H10730609   2.999   2.422   1.994  0.4527 -1.2804 -0.0411
  152MOL   H10830610   2.896   2.404   2.133 -0.5348 -0.8101  0.2705
  152MOL   H10930611   2.809   2.340   1.849  0.7442 -1.8614  1.6210
  152MOL   H11030612   2.694   2.347   1.977  0.2046 -0.1804  0.4953
  152MOL   H11130613   2.783   2.597   2.031  1.3978 -0.7240  0.2301
  152MOL   C11230614   2.735   2.603   1.831  0.4926 -0.2980  1.0491
  152MOL   O11330615   2.711   2.547   1.728 -0.6413  0.2181  0.4912
  152MOL   C11430616   2.741   2.754   1.826  0.8081  0.4508 -0.5889
  152MOL   C11530617   2.883   2.803   1.781 -0.0400 -0.1301 -0.0003
  152MOL   N11630618   3.006   2.749   1.845  0.2507 -0.0449  0.3619
  152MOL   H11730619   2.735   2.791   1.929  0.5355 -1.6795  0.1859
  152MOL   H11830620   2.660   2.792   1.765 -1.1882  1.7318  2.7337
  152MOL   H11930621   2.881   2.771   1.677  0.2768  0.2498 -0.1237
  152MOL   H12030622   2.893   2.910   1.798  0.1371 -0.0111 -0.8462
  152MOL   H12130623   3.066   2.705   1.775  1.3799  1.4211  0.3742
  152MOL   C12230624   3.057   2.788   1.960 -0.0398  0.6104  0.0880
  152MOL   O12330625   3.000   2.863   2.042 -0.3702  0.1427 -0.4231
  152MOL   C12430626   3.194   2.718   1.991  0.3495 -0.3528  0.3548
  152MOL   C12530627   3.267   2.793   2.106 -0.5968 -0.5504  0.2818
  152MOL   N12630628   3.218   2.741   2.234 -0.4436  0.0519  0.4988
  152MOL   H12730629   3.251   2.716   1.898  1.1356  2.6945  0.7284
  152MOL   H12830630   3.176   2.611   2.004  1.2219 -0.4026  1.2017
  152MOL   H12930631   3.374   2.773   2.095 -0.1790  0.6654  2.0150
  152MOL   H13030632   3.253   2.901   2.110 -2.5151 -0.6653 -2.4056
  152MOL   H13130633   3.189   2.644   2.230 -0.6793  0.1990 -2.0590
  152MOL   C13230634   3.224   2.813   2.350  0.2410  1.0840 -0.8232
  152MOL   O13330635   3.278   2.924   2.359  0.2047 -0.1147 -0.2830
  152MOL   C13430636   3.187   2.742   2.480  0.6112 -0.5077 -0.5890
  152MOL   C13530637   3.298   2.743   2.581  0.6418 -0.2962 -0.5013
  152MOL   N13630638   3.256   2.686   2.711  0.1913  0.4038  0.2446
  152MOL   H13730639   3.166   2.638   2.457 -0.2274 -0.0357 -2.1099
  152MOL   H13830640   3.098   2.782   2.529  0.5304  0.4143 -1.4679
  152MOL   H13930641   3.383   2.695   2.532  0.8404  1.0054 -1.4595
  152MOL   H14030642   3.327   2.848   2.596 -0.0971 -0.1119 -0.3269
  152MOL   H14130643   3.230   2.745   2.788 -1.2915  1.7895 -1.2630
  152MOL   C14230644   3.301   2.570   2.750  0.1834 -0.2108  0.2568
  152MOL   O14330645   3.365   2.493   2.680  0.2844  0.0797  0.7779
  152MOL   C14430646   3.269   2.540   2.900  0.1487  0.3562  0.0452
  152MOL   C14530647   3.271   2.391   2.946  0.5292 -0.9994  0.5870
  152MOL   N14630648   3.150   2.315   2.910 -0.5958 -0.2271  0.5194
  152MOL   H14730649   3.174   2.577   2.938  0.5374 -0.6572  2.0887
  152MOL   H14830650   3.342   2.598   2.958  0.2362  0.9044 -0.6043
  152MOL   H14930651   3.363   2.337   2.923  2.6374  2.9325 -0.5004
  152MOL   H15030652   3.271   2.398   3.055 -2.0013 -1.9871  0.6800
  152MOL   H15130653   3.059   2.349   2.937 -1.7957 -1.5360 -1.6888
  152MOL   C15230654   3.152   2.204   2.836  0.6210 -0.0443 -0.8208
  152MOL   O15330655   3.250   2.161   2.771 -0.2691  0.1151  0.5797
  152MOL   C15430656   3.021   2.133   2.830  0.8707  0.4627 -1.0235
  152MOL   C15530657   3.031   1.979   2.799 -0.4164  0.8733 -0.0193
  152MOL   N15630658   2.909   1.908   2.856 -0.3975  0.0812 -0.3596
  152MOL   H15730659   2.951   2.190   2.769 -2.0713 -1.1421  0.7327
  152MOL   H15830660   2.981   2.151   2.930  0.3214 -1.3783 -0.8933
  152MOL   H15930661   3.046   1.956   2.694 -1.8229  3.2206 -0.7666
  152MOL   H16030662   3.118   1.934   2.846 -1.7606 -1.0415  0.6693
  152MOL   H16130663   2.845   1.846   2.808 -0.5576 -0.8567  1.0226
  152MOL   C16230664   2.882   1.899   2.987 -0.3401  0.3956 -0.0701
  152MOL   O16330665   2.960   1.934   3.073 -0.0676  0.5012  0.2875
  152MOL   C16430666   2.756   1.820   3.027  0.4219 -0.2662  0.1795
  152MOL   C16530667   2.666   1.904   3.121  0.4726  0.0747 -0.4829
  152MOL   N16630668   2.556   1.818   3.167  0.1085 -0.0317 -0.5201
  152MOL   H16730669   2.780   1.718   3.058  0.0315 -0.6876 -0.8771
  152MOL   H16830670   2.706   1.801   2.932  0.8378  0.8434 -0.2619
  152MOL   H16930671   2.715   1.931   3.214  1.1638  0.2974 -0.9067
  152MOL   H17030672   2.642   2.000   3.074  2.4758  0.7835 -0.0868
  152MOL   H17130673   2.554   1.720   3.143 -0.7165  0.0696 -0.8823
  152MOL   C17230674   2.449   1.858   3.221 -0.1204  0.4525  0.5223
  152MOL   O17330675   2.437   1.967   3.275 -0.1840 -0.0849 -0.4955
  152MOL   C17430676   2.325   1.758   3.233 -0.0969  0.3127 -0.0565
  152MOL   C17530677   2.365   1.610   3.265  0.8024 -0.5982 -0.0601
  152MOL   N17630678   2.362   1.526   3.145  0.3142 -0.1745 -0.0826
  152MOL   H17730679   2.259   1.760   3.146 -2.9691 -2.6948  1.8953
  152MOL   H17830680   2.250   1.793   3.304  0.7803  1.7445  0.1923
  152MOL   H17930681   2.465   1.600   3.307  1.0780  1.5317 -0.1848
  152MOL   H18030682   2.292   1.570   3.336  0.5706 -0.5816 -0.2894
  152MOL   H18130683   2.277   1.471   3.134 -0.0628 -0.0863  2.1493
  152MOL   C18230684   2.480   1.487   3.087 -0.8522  0.3759  0.0899
  152MOL   O18330685   2.587   1.544   3.107 -0.0151 -0.0808 -0.3284
  152MOL   C18430686   2.477   1.365   2.993 -0.0557 -0.1311 -0.9850
  152MOL   C18530687   2.508   1.233   3.068 -0.1808 -0.0520  1.3447
  152MOL   N18630688   2.408   1.196   3.168 -0.2658 -0.3014 -0.7645
  152MOL   H18730689   2.543   1.385   2.909 -2.2528  1.2570 -2.4105
  152MOL   H18830690   2.382   1.366   2.941  1.6326  0.6959 -4.2155
  152MOL   H18930691   2.519   1.152   2.996 -3.4843  0.2985  0.3770
  152MOL   H19030692   2.604   1.253   3.116  0.7289  0.9170 -0.8320
  152MOL   H19130693   2.318   1.237   3.147  1.0084  2.9318 -0.2872
  152MOL   C19230694   2.430   1.128   3.282 -0.4070  0.1624 -0.8950
  152MOL   O19330695   2.542   1.096   3.310 -0.4348 -0.3341 -0.3952
  152MOL   C19430696   2.315   1.116   3.381  0.3782 -0.0909 -0.5501
  152MOL   C19530697   2.285   0.982   3.446 -0.2179 -0.6904  0.1758
  152MOL   N19630698   2.391   0.945   3.537 -0.5888  0.0898  0.7058
  152MOL   H19730699   2.325   1.198   3.453  0.1566 -0.6122  0.0774
  152MOL   H19830700   2.227   1.146   3.324  1.2550 -0.5580 -2.1652
  152MOL   H19930701   2.187   0.978   3.493 -0.5049 -0.7801 -0.4353
  152MOL   H20030702   2.268   0.904   3.373  0.8328 -0.3707 -0.4272
  152MOL   H20130703   2.475   0.970   3.487 -0.5036  0.1464  0.8784
  152MOL   H20230704   2.395   1.003   3.620  0.2202  1.0060  0.0514
  153MOL     C130705   7.299   1.296   6.015 -0.4489 -0.5698  0.2744
  153MOL     O230706   7.342   1.319   6.128 -0.0616 -0.7677  0.4335
  153MOL     C330707   7.241   1.152   5.996 -0.7354 -0.6363  0.2880
  153MOL     C430708   7.173   1.130   5.859  0.8068 -0.6966  0.6095
  153MOL     N530709   7.263   1.132   5.745 -0.6012  0.2748  0.0381
  153MOL     H630710   7.173   1.131   6.079  1.6779 -0.7016  2.2818
  153MOL     H730711   7.325   1.084   6.006  0.9036  1.3602  0.4765
  153MOL     H830712   7.108   1.216   5.846  2.3155  0.4187  0.2849
  153MOL     H930713   7.103   1.047   5.859 -0.4517  0.2872 -2.7343
  153MOL    H1030714   7.281   1.218   5.697 -0.5288 -0.6834 -1.6662
  153MOL    H1130715   7.301   1.360   5.927 -1.0792 -0.1511  0.5671
  153MOL    C1230716   7.314   1.028   5.686  0.2286  0.9367  0.1230
  153MOL    O1330717   7.297   0.913   5.730 -0.2027  0.1823 -0.8836
  153MOL    C1430718   7.396   1.052   5.561  0.0898 -0.4107 -0.1940
  153MOL    C1530719   7.399   0.928   5.462  0.0309 -0.3023  0.6083
  153MOL    N1630720   7.266   0.889   5.413  0.3324  0.1213  0.1537
  153MOL    H1730721   7.502   1.065   5.583  0.1938 -0.2583 -0.7867
  153MOL    H1830722   7.376   1.148   5.512 -0.1259 -0.1727  0.3565
  153MOL    H1930723   7.451   0.955   5.371  0.7583 -0.0443  1.0980
  153MOL    H2030724   7.453   0.841   5.500  2.9619  1.6287  0.9997
  153MOL    H2130725   7.235   0.796   5.437  1.1964 -0.5593 -1.3029
  153MOL    C2230726   7.175   0.969   5.354  0.1406  0.1398  0.4516
  153MOL    O2330727   7.196   1.084   5.317 -0.4175  0.0769  0.5556
  153MOL    C2430728   7.034   0.898   5.356  0.5254 -0.5511  0.4255
  153MOL    C2530729   6.920   0.984   5.411 -0.0525  0.3406  0.0955
  153MOL    N2630730   6.796   0.924   5.363 -0.0144 -0.4538  0.0759
  153MOL    H2730731   7.043   0.804   5.411 -0.4843 -0.4004  0.8669
  153MOL    H2830732   7.014   0.860   5.255 -0.6797  1.5366 -0.1516
  153MOL    H2930733   6.920   0.998   5.519  1.6084 -1.2724  0.3164
  153MOL    H3030734   6.926   1.088   5.378 -0.9718 -0.0927 -1.4885
  153MOL    H3130735   6.755   0.979   5.288 -2.5542 -0.3777  1.4417
  153MOL    C3230736   6.719   0.839   5.424 -0.8283  0.2373  0.3734
  153MOL    O3330737   6.759   0.784   5.527  0.1523  0.4923 -0.1329
  153MOL    C3430738   6.586   0.809   5.363  0.1807 -0.1217  0.5365
  153MOL    C3530739   6.486   0.792   5.472  0.5612 -0.4225 -0.7991
  153MOL    N3630740   6.354   0.770   5.418 -0.3089  0.5076  0.0303
  153MOL    H3730741   6.592   0.717   5.305 -2.0904 -2.0004  3.1556
  153MOL    H3830742   6.556   0.885   5.291  1.6765  0.5439  0.6080
  153MOL    H3930743   6.506   0.716   5.548  2.7331  1.9417  1.0911
  153MOL    H4030744   6.476   0.877   5.539 -1.5076  0.3593 -2.0631
  153MOL    H4130745   6.312   0.679   5.429 -0.3000  0.4828 -0.1371
  153MOL    C4230746   6.286   0.861   5.354 -0.0614 -0.5431  0.1011
  153MOL    O4330747   6.334   0.976   5.339 -0.0017  0.3574  0.1624
  153MOL    C4430748   6.148   0.818   5.308  0.3288  0.6003  0.9988
  153MOL    C4530749   6.118   0.858   5.157 -0.1457 -0.7093 -0.6349
  153MOL    N4630750   6.105   0.744   5.066 -0.3798  0.6934 -0.0707
  153MOL    H4730751   6.136   0.712   5.331  0.5966  0.6441  1.3540
  153MOL    H4830752   6.076   0.864   5.376 -1.1080  1.9064 -1.3181
  153MOL    H4930753   6.013   0.889   5.158 -0.2422 -0.6992 -3.9153
  153MOL    H5030754   6.178   0.938   5.115 -1.2385 -0.7534 -2.3277
  153MOL    H5130755   6.107   0.652   5.108  2.4654 -0.3623 -2.2803
  153MOL    C5230756   6.062   0.748   4.940 -0.8122 -0.3764  0.1353
  153MOL    O5330757   6.073   0.852   4.872  0.5363 -0.2002  0.6240
  153MOL    C5430758   6.039   0.615   4.870 -0.1758 -0.3545  0.1192
  153MOL    C5530759   5.897   0.569   4.909 -0.5532  0.0763  0.0158
  153MOL    N5630760   5.847   0.458   4.823 -0.3336 -0.1305 -0.1918
  153MOL    H5730761   6.047   0.628   4.762  1.2357 -2.1882 -0.0261
  153MOL    H5830762   6.119   0.547   4.901 -0.2849 -0.2300  0.6865
  153MOL    H5930763   5.818   0.641   4.930 -2.5472 -1.8739 -0.6640
  153MOL    H6030764   5.914   0.520   5.005  0.3667  1.5212  0.6109
  153MOL    H6130765   5.883   0.363   4.822 -1.4442 -0.5409 -1.9312
  153MOL    C6230766   5.756   0.481   4.723 -0.4629  0.3493  0.5882
  153MOL    O6330767   5.694   0.589   4.726 -0.1617  0.1828 -0.4591
  153MOL    C6430768   5.727   0.373   4.626  0.0224  0.4419 -1.0921
  153MOL    C6530769   5.810   0.380   4.502  0.0892 -0.2343 -0.3576
  153MOL    N6630770   5.916   0.275   4.520 -0.2260  0.0438 -0.5286
  153MOL    H6730771   5.725   0.278   4.679 -0.0345 -0.0982 -2.0565
  153MOL    H6830772   5.621   0.389   4.604 -0.3144  2.0775  1.5612
  153MOL    H6930773   5.744   0.373   4.415  1.5334 -0.8125 -1.4404
  153MOL    H7030774   5.851   0.481   4.496 -1.1939  0.3296  0.2391
  153MOL    H7130775   5.946   0.257   4.614 -0.4076  2.3079 -0.0056
  153MOL    C7230776   5.985   0.216   4.421 -0.2068 -1.0363  0.0309
  153MOL    O7330777   5.975   0.264   4.307 -0.7979 -0.3622 -0.3382
  153MOL    C7430778   6.078   0.097   4.445  0.5432 -0.1137  0.4190
  153MOL    C7530779   6.063   7.749   4.365  0.8399  0.4052  0.4049
  153MOL    N7630780   5.929   7.686   4.369 -0.1406 -0.4040  0.8758
  153MOL    H7730781   6.182   0.127   4.431  0.6939 -1.1490 -0.7256
  153MOL    H7830782   6.069   0.070   4.550  0.7183 -0.4707  0.3419
  153MOL    H7930783   6.091   7.748   4.260 -0.1954 -1.6298  0.1220
  153MOL    H8030784   6.120   7.668   4.411 -2.0604 -0.2825  2.9339
  153MOL    H8130785   5.863   7.722   4.302  1.9027  0.3313 -0.8085
  153MOL    C8230786   5.882   7.615   4.475  0.3139 -0.0816  0.0349
  153MOL    O8330787   5.958   7.559   4.551  0.2851  0.1227  0.1533
  153MOL    C8430788   5.729   7.584   4.468  0.4945 -0.9491  0.2870
  153MOL    C8530789   5.658   7.527   4.596 -0.7502 -0.4294  0.3625
  153MOL    N8630790   5.698   7.387   4.636 -0.7456  0.3182 -0.2557
  153MOL    H8730791   5.675   7.669   4.426  1.5450 -0.5891 -0.3533
  153MOL    H8830792   5.713   7.506   4.393  0.3123  0.7656 -1.4963
  153MOL    H8930793   5.669   7.589   4.685 -0.1794  1.7123 -1.1483
  153MOL    H9030794   5.550   7.535   4.581 -0.8373 -2.3774 -0.2255
  153MOL    H9130795   5.792   7.352   4.653 -1.6020 -2.4272 -0.9897
  153MOL    C9230796   5.604   7.285   4.645 -0.9866 -0.2008  0.0242
  153MOL    O9330797   5.482   7.305   4.637  0.0995 -0.2495  0.6224
  153MOL    C9430798   5.656   7.144   4.646  0.2282  0.2121  0.2972
  153MOL    C9530799   5.555   7.050   4.710 -0.4631  0.1039 -0.7463
  153MOL    N9630800   5.591   6.914   4.675  0.0057 -0.0146 -0.4020
  153MOL    H9730801   5.656   7.118   4.540  0.7063 -0.3254  0.4250
  153MOL    H9830802   5.758   7.138   4.685  0.5144  1.7197 -0.1849
  153MOL    H9930803   5.548   7.064   4.818  0.1041  3.6619 -1.1290
  153MOL   H10030804   5.455   7.068   4.671 -0.4226  0.1807 -0.8142
  153MOL   H10130805   5.531   6.870   4.608  0.5453 -1.0487 -0.2201
  153MOL   C10230806   5.704   6.848   4.704  0.4016  0.2481  0.3919
  153MOL   O10330807   5.804   6.890   4.760  0.2016 -0.0348  0.2055
  153MOL   C10430808   5.695   6.701   4.674  0.0689 -0.3934 -0.0594
  153MOL   C10530809   5.643   6.618   4.795  0.1245  0.0668 -0.0164
  153MOL   N10630810   5.566   6.492   4.757  0.0221 -0.2772  0.5394
  153MOL   H10730811   5.789   6.662   4.634  0.6549  0.8696  0.0574
  153MOL   H10830812   5.620   6.687   4.597 -1.0662  0.9772  0.7702
  153MOL   H10930813   5.730   6.600   4.859  1.2436 -2.8109 -2.2290
  153MOL   H11030814   5.577   6.690   4.843 -0.3397 -0.2483 -0.1791
  153MOL   H11130815   5.470   6.495   4.787 -0.6506 -1.0610 -1.4453
  153MOL   C11230816   5.606   6.382   4.698  0.0906  0.0170 -0.1814
  153MOL   O11330817   5.725   6.374   4.658 -0.0073  0.4078 -0.9483
  153MOL   C11430818   5.505   6.270   4.687 -0.1712  0.6709 -0.4174
  153MOL   C11530819   5.368   6.307   4.615  0.7172 -0.4559 -0.7850
  153MOL   N11630820   5.241   6.300   4.695 -0.1018 -0.2151 -0.3780
  153MOL   H11730821   5.485   6.239   4.790  1.3694  0.0024 -0.3122
  153MOL   H11830822   5.549   6.178   4.649 -2.2766 -1.2440  1.5790
  153MOL   H11930823   5.375   6.412   4.589 -0.7579 -0.3146 -0.6929
  153MOL   H12030824   5.352   6.252   4.522 -1.5303  1.4307 -1.5660
  153MOL   H12130825   5.197   6.208   4.694 -0.1183 -0.2241  0.3938
  153MOL   C12230826   5.189   6.402   4.767 -0.4481  0.2766  0.8956
  153MOL   O12330827   5.255   6.503   4.786  0.2823  0.7849  0.4447
  153MOL   C12430828   5.041   6.382   4.811 -0.4889 -1.4586 -0.5801
  153MOL   C12530829   4.971   6.516   4.840  0.0571  0.1959 -0.0448
  153MOL   N12630830   4.836   6.476   4.873 -0.6531  0.3284 -0.1314
  153MOL   H12730831   5.048   6.333   4.909  1.6252  0.2346  0.1685
  153MOL   H12830832   4.993   6.320   4.736 -1.3083 -1.5255 -0.0059
  153MOL   H12930833   5.022   6.582   4.910 -0.0115  0.9957 -0.7495
  153MOL   H13030834   4.972   6.580   4.752 -0.3088 -0.6064 -0.6437
  153MOL   H13130835   4.799   6.386   4.845  1.4754 -1.3263  2.1016
  153MOL   C13230836   4.748   6.560   4.915  0.3102  0.1852  0.8034
  153MOL   O13330837   4.750   6.680   4.889  0.3125 -0.2528 -0.1603
  153MOL   C13430838   4.632   6.507   5.006 -0.7490  0.7569 -0.1231
  153MOL   C13530839   4.586   6.600   5.119  0.2035 -0.0384 -0.7055
  153MOL   N13630840   4.524   6.533   5.233  0.1056  0.1999  0.5135
  153MOL   H13730841   4.674   6.419   5.056  1.5351  1.4893 -0.6717
  153MOL   H13830842   4.551   6.461   4.949 -0.5636  0.2502  0.0142
  153MOL   H13930843   4.678   6.654   5.142 -0.0845  0.0831  0.1476
  153MOL   H14030844   4.519   6.676   5.077  0.1749 -0.0304 -0.6448
  153MOL   H14130845   4.425   6.549   5.239  0.2066  1.2345 -0.3949
  153MOL   C14230846   4.579   6.479   5.340 -0.6315 -0.5452 -0.5995
  153MOL   O14330847   4.703   6.492   5.357  0.4969 -0.4607 -0.2257
  153MOL   C14430848   4.486   6.416   5.448  0.0788 -0.4321  0.4888
  153MOL   C14530849   4.554   6.393   5.583 -0.5893 -0.3315 -0.0732
  153MOL   N14630850   4.647   6.285   5.570  0.5254  0.4346 -0.0097
  153MOL   H14730851   4.458   6.325   5.394 -0.3283 -1.1046  1.8118
  153MOL   H14830852   4.389   6.466   5.461  0.0456 -0.3389 -0.1196
  153MOL   H14930853   4.603   6.486   5.614 -0.3767  0.5667 -2.9617
  153MOL   H15030854   4.482   6.370   5.661 -1.0836  2.1364  0.2582
  153MOL   H15130855   4.652   6.216   5.496 -4.4088 -0.1015  0.0213
  153MOL   C15230856   4.727   6.258   5.674  0.4500 -0.5201  0.0773
  153MOL   O15330857   4.727   6.328   5.773  0.2583 -0.5137  0.4219
  153MOL   C15430858   4.830   6.148   5.648 -0.1440  0.4460 -0.5972
  153MOL   C15530859   4.797   6.011   5.711  0.0825  0.1958  0.0679
  153MOL   N15630860   4.659   5.959   5.672 -0.8904  0.1244  0.5060
  153MOL   H15730861   4.925   6.177   5.691 -0.6341  1.0743  0.0707
  153MOL   H15830862   4.858   6.133   5.544 -1.0524 -2.4050 -0.4880
  153MOL   H15930863   4.878   5.943   5.685  1.8033  3.4109 -3.5067
  153MOL   H16030864   4.787   6.022   5.819 -1.2481 -1.8123  0.1697
  153MOL   H16130865   4.599   6.015   5.613 -1.4574 -1.5531 -0.5479
  153MOL   C16230866   4.603   5.857   5.733  0.1432  0.0805 -0.7636
  153MOL   O16330867   4.671   5.785   5.806 -0.3383  0.5651  0.2055
  153MOL   C16430868   4.451   5.830   5.704 -0.2969  0.4679 -0.2768
  153MOL   C16530869   4.394   5.723   5.810 -0.5192 -0.4773 -0.2422
  153MOL   N16630870   4.258   5.662   5.777 -0.3071  0.5153 -0.1863
  153MOL   H16730871   4.436   5.793   5.603 -0.1459 -2.2746  0.6623
  153MOL   H16830872   4.396   5.923   5.719  1.1946  1.2512  0.4658
  153MOL   H16930873   4.470   5.646   5.818  0.0854  0.1709  0.3384
  153MOL   H17030874   4.387   5.758   5.913  0.9572 -1.8220  0.3271
  153MOL   H17130875   4.251   5.579   5.720 -0.1820 -0.7563  1.6225
  153MOL   C17230876   4.139   5.693   5.831 -0.3220  0.0132  0.3209
  153MOL   O17330877   4.126   5.788   5.908  0.1458  0.3926 -0.0572
  153MOL   C17430878   4.015   5.616   5.786 -0.2113 -0.4525  0.1410
  153MOL   C17530879   3.884   5.647   5.863 -0.2397 -0.1654  0.7130
  153MOL   N17630880   3.878   5.600   5.999  0.1989  0.0193 -0.9351
  153MOL   H17730881   4.035   5.509   5.796 -1.0499 -0.7808 -1.5367
  153MOL   H17830882   4.004   5.641   5.681 -4.3132 -0.0723  0.5619
  153MOL   H17930883   3.859   5.753   5.868  2.9890  0.6805  0.4031
  153MOL   H18030884   3.809   5.605   5.796  0.6795  2.0637 -1.7950
  153MOL   H18130885   3.885   5.666   6.075  1.9361 -1.0481 -0.1376
  153MOL   C18230886   3.886   5.471   6.031  0.2385  0.2600  0.3525
  153MOL   O18330887   3.872   5.377   5.955 -0.1594 -0.3981 -0.1601
  153MOL   C18430888   3.906   5.438   6.179  0.0778  0.0555 -0.7664
  153MOL   C18530889   4.036   5.358   6.205 -0.3531  0.0953  1.0909
  153MOL   N18630890   4.155   5.449   6.233 -0.1084 -0.4073 -0.0034
  153MOL   H18730891   3.822   5.380   6.218  1.1820  0.3144  2.1209
  153MOL   H18830892   3.888   5.519   6.250  1.6350 -1.1394  1.0573
  153MOL   H18930893   4.023   5.291   6.290 -0.4744  0.3731  1.2947
  153MOL   H19030894   4.070   5.292   6.125 -1.1458  0.6326  0.2989
  153MOL   H19130895   4.160   5.507   6.315 -0.8617  1.1313 -1.0392
  153MOL   C19230896   4.256   5.480   6.145  0.4010  0.4462 -0.5951
  153MOL   O19330897   4.265   5.427   6.035  0.0830 -0.3138  0.3357
  153MOL   C19430898   4.357   5.578   6.198 -0.1626  0.5479 -0.1691
  153MOL   C19530899   4.309   5.713   6.249 -0.2418  0.2329  0.3398
  153MOL   N19630900   4.229   5.710   6.369  0.8192  0.1494 -0.1182
  153MOL   H19730901   4.402   5.518   6.277  1.8668 -0.4040 -2.0046
  153MOL   H19830902   4.428   5.599   6.118  0.0528 -0.7508 -0.3237
  153MOL   H19930903   4.400   5.771   6.260  1.2864 -2.0925  0.3300
  153MOL   H20030904   4.248   5.755   6.169 -1.0033 -1.1697  0.1654
  153MOL   H20130905   4.299   5.703   6.442  1.8290 -1.3949 -1.2216
  153MOL   H20230906   4.178   5.798   6.376  1.1636  0.4634 -1.4637
  154MOL     C130907   2.881   1.681   6.455 -0.2524  0.0791 -0.6556
  154MOL     O230908   2.779   1.661   6.514  0.7435  0.0054  0.0858
  154MOL     C330909   2.902   1.705   6.304  0.1754  0.1796 -0.1267
  154MOL     C430910   2.796   1.793   6.232  0.0100  0.4311  0.5491
  154MOL     N530911   2.811   1.938   6.250 -0.4898 -0.7712  0.6264
  154MOL     H630912   2.904   1.602   6.271  0.8210 -0.6421  2.3916
  154MOL     H730913   2.993   1.765   6.305 -0.7674  1.6378  0.9416
  154MOL     H830914   2.700   1.760   6.272  0.7384 -1.1815  1.0083
  154MOL     H930915   2.771   1.763   6.130 -2.4952 -2.0693  1.8152
  154MOL    H1030916   2.773   1.977   6.336 -0.1060  1.6622 -0.2583
  154MOL    H1130917   2.980   1.665   6.499 -0.2392  0.9990 -0.3274
  154MOL    C1230918   2.866   2.021   6.165 -0.0440  0.4677  0.1471
  154MOL    O1330919   2.919   1.983   6.057  0.2632  0.1174  0.1819
  154MOL    C1430920   2.867   2.173   6.207 -1.0421  0.1976 -0.0054
  154MOL    C1530921   2.980   2.252   6.137  1.1127 -0.8923 -0.3087
  154MOL    N1630922   3.115   2.224   6.185  0.3197 -0.3794  0.1632
  154MOL    H1730923   2.878   2.193   6.314 -0.0485 -0.5803  0.0449
  154MOL    H1830924   2.770   2.210   6.176 -1.7529 -0.7403  1.0785
  154MOL    H1930925   2.978   2.251   6.028  0.1423 -2.1517 -0.2921
  154MOL    H2030926   2.962   2.352   6.176 -0.3338 -1.0758 -0.4775
  154MOL    H2130927   3.125   2.142   6.242 -1.6541  0.3494  1.6335
  154MOL    C2230928   3.225   2.302   6.170  0.0270  0.2257  0.2321
  154MOL    O2330929   3.332   2.263   6.218 -0.0751  0.6087  0.0477
  154MOL    C2430930   3.226   2.428   6.088  0.3246 -0.6022  0.4059
  154MOL    C2530931   3.259   2.392   5.940 -0.4079 -0.3973 -0.2582
  154MOL    N2630932   3.218   2.496   5.850  0.0669 -0.2641  0.2692
  154MOL    H2730933   3.297   2.502   6.128  0.0520  0.1291 -0.4348
  154MOL    H2830934   3.126   2.471   6.094 -0.3560 -2.2465  0.8690
  154MOL    H2930935   3.365   2.367   5.933 -0.0793  1.1953 -1.0361
  154MOL    H3030936   3.210   2.297   5.919 -0.2661 -0.8624  1.4250
  154MOL    H3130937   3.143   2.554   5.884 -0.2580 -0.7076  0.3149
  154MOL    C3230938   3.234   2.495   5.715  0.0173 -0.6211  0.1066
  154MOL    O3330939   3.306   2.410   5.666  0.7386 -0.6017 -0.4136
  154MOL    C3430940   3.163   2.594   5.628  0.0231 -0.3571 -0.2450
  154MOL    C3530941   3.044   2.524   5.539 -0.2288  0.5195 -0.3830
  154MOL    N3630942   2.952   2.461   5.626 -0.2197 -0.0408  0.1517
  154MOL    H3730943   3.234   2.646   5.563 -0.7317  0.6641 -0.2625
  154MOL    H3830944   3.121   2.677   5.684 -1.4487 -1.8975  0.9613
  154MOL    H3930945   2.986   2.601   5.488  0.7917  1.1885 -0.5427
  154MOL    H4030946   3.088   2.444   5.479 -0.6757 -1.6015  2.0304
  154MOL    H4130947   2.968   2.362   5.616 -0.5968 -0.2167  1.1715
  154MOL    C4230948   2.839   2.510   5.683  0.3175  0.6904 -0.0553
  154MOL    O4330949   2.823   2.634   5.694 -0.0735 -0.5651 -0.0211
  154MOL    C4430950   2.758   2.407   5.756 -0.0998  0.0281  0.2786
  154MOL    C4530951   2.701   2.469   5.890  0.0015  1.3578 -0.4328
  154MOL    N4630952   2.639   2.363   5.970  0.3630  0.0191  0.2136
  154MOL    H4730953   2.684   2.371   5.686 -0.1095 -0.7574  0.6896
  154MOL    H4830954   2.809   2.314   5.781 -0.6390 -0.4847 -0.5044
  154MOL    H4930955   2.762   2.539   5.947  1.0215  0.9488 -1.0307
  154MOL    H5030956   2.620   2.537   5.862  0.3309  1.7418 -0.4542
  154MOL    H5130957   2.637   2.269   5.933  2.2521  0.7045 -1.7273
  154MOL    C5230958   2.570   2.392   6.079  0.5260  0.2784  0.4275
  154MOL    O5330959   2.536   2.505   6.110  0.8299 -0.9377  0.4134
  154MOL    C5430960   2.524   2.269   6.160 -0.2130 -0.6390  0.0161
  154MOL    C5530961   2.367   2.251   6.167  0.0474  0.6021 -0.9646
  154MOL    N5630962   2.315   2.128   6.097  0.1448 -0.3681  0.0594
  154MOL    H5730963   2.579   2.178   6.136  0.6434  0.2615 -1.5106
  154MOL    H5830964   2.556   2.306   6.258 -0.5187  2.0284 -0.8471
  154MOL    H5930965   2.314   2.340   6.134 -4.1358 -1.1910  0.4992
  154MOL    H6030966   2.342   2.238   6.273  2.4300 -1.1291 -0.5601
  154MOL    H6130967   2.241   2.139   6.029 -0.4576  0.9807  0.9032
  154MOL    C6230968   2.342   2.005   6.140 -0.1167 -0.3611 -0.3639
  154MOL    O6330969   2.440   1.974   6.210  0.4052  0.6773 -0.1542
  154MOL    C6430970   2.249   1.902   6.079 -0.2684  0.3644  0.3219
  154MOL    C6530971   2.140   1.844   6.170 -0.6955  0.5073  0.3022
  154MOL    N6630972   2.048   1.941   6.225  0.1214  0.3756 -0.1753
  154MOL    H6730973   2.210   1.950   5.989 -0.7473  1.7508  1.2468
  154MOL    H6830974   2.320   1.826   6.046 -0.4168 -0.1910  1.2702
  154MOL    H6930975   2.079   1.774   6.113 -1.2063  1.4602 -0.3459
  154MOL    H7030976   2.192   1.779   6.240 -0.9752 -0.1770 -0.1258
  154MOL    H7130977   2.077   1.976   6.315 -0.4467  1.5861 -0.4614
  154MOL    C7230978   1.962   2.013   6.152  0.0558  0.3377  0.5754
  154MOL    O7330979   1.927   1.995   6.037 -0.1202  0.2850  0.0402
  154MOL    C7430980   1.912   2.131   6.234  0.5973 -0.5534 -0.2778
  154MOL    C7530981   1.826   2.233   6.157 -0.3052 -0.0051 -0.7769
  154MOL    N7630982   1.791   2.348   6.241  0.0740 -0.3395  0.3555
  154MOL    H7730983   1.854   2.091   6.317 -2.1359 -0.5895 -2.1250
  154MOL    H7830984   1.996   2.187   6.274  0.2374 -1.0809  1.2735
  154MOL    H7930985   1.888   2.282   6.082  1.1777 -1.1406 -0.3098
  154MOL    H8030986   1.741   2.189   6.105  1.7808 -2.1364 -2.5206
  154MOL    H8130987   1.871   2.383   6.291 -0.4755 -1.1031  1.7689
  154MOL    C8230988   1.666   2.384   6.269  0.3291 -0.3370  0.3259
  154MOL    O8330989   1.570   2.336   6.206  0.2706  0.0782  0.2915
  154MOL    C8430990   1.646   2.497   6.378  0.2989  1.0781 -0.0658
  154MOL    C8530991   1.525   2.586   6.364  0.1510 -0.0185 -0.0337
  154MOL    N8630992   1.542   2.705   6.280 -0.3423  0.0964 -0.2287
  154MOL    H8730993   1.654   2.447   6.475 -0.3501  1.4323  0.1690
  154MOL    H8830994   1.739   2.555   6.376  1.1421 -0.2544 -0.4923
  154MOL    H8930995   1.438   2.528   6.331 -0.4267  1.1907 -0.6775
  154MOL    H9030996   1.514   2.618   6.467  0.4583  1.5299 -0.4748
  154MOL    H9130997   1.632   2.724   6.238  0.2067 -0.9318  0.4464
  154MOL    C9230998   1.445   2.781   6.235  0.3132  0.1915 -0.5506
  154MOL    O9330999   1.328   2.761   6.268 -0.7048  0.5772 -0.1914
  154MOL    C9431000   1.482   2.892   6.133 -0.0667  0.3425  0.3529
  154MOL    C9531001   1.546   3.031   6.188  0.2210 -0.0615  0.3459
  154MOL    N9631002   1.690   3.048   6.187 -0.1620 -0.2116  0.5416
  154MOL    H9731003   1.540   2.854   6.050  0.8222 -0.0756  1.1485
  154MOL    H9831004   1.393   2.917   6.077 -1.4312 -1.5243  1.6238
  154MOL    H9931005   1.499   3.101   6.118 -1.0789 -1.1275  0.1490
  154MOL   H10031006   1.505   3.038   6.289  0.3481 -1.4124  0.4954
  154MOL   H10131007   1.729   3.039   6.094  0.5494  0.0965  0.8068
  154MOL   C10231008   1.769   3.067   6.295 -0.3556 -0.0729  0.5819
  154MOL   O10331009   1.731   3.057   6.412 -0.3774 -0.3584 -0.6347
  154MOL   C10431010   1.914   3.090   6.263  0.2546  0.1007 -0.2626
  154MOL   C10531011   2.004   2.966   6.256 -0.0826  0.6540  0.9790
  154MOL   N10631012   1.990   2.909   6.125  0.0359  0.4155  0.6242
  154MOL   H10731013   1.948   3.166   6.334  1.1399  0.6299 -1.2363
  154MOL   H10831014   1.930   3.151   6.174 -0.0640 -1.6765 -1.5644
  154MOL   H10931015   2.107   3.002   6.269  1.3262 -2.0736 -1.8489
  154MOL   H11031016   2.003   2.899   6.341 -1.5745  1.9227  1.9849
  154MOL   H11131017   2.045   2.952   6.052  0.4484 -0.9836  0.0731
  154MOL   C11231018   1.920   2.794   6.105 -0.0446 -0.2291 -0.8577
  154MOL   O11331019   1.851   2.738   6.197 -0.2853 -0.1870  0.1260
  154MOL   C11431020   1.941   2.732   5.966 -0.3967 -0.2341  0.0899
  154MOL   C11531021   1.863   2.603   5.946 -0.8529  0.1885 -0.4525
  154MOL   N11631022   1.722   2.636   5.940 -0.8906  0.3471  0.1053
  154MOL   H11731023   2.046   2.700   5.968  0.5019  2.7020  2.5276
  154MOL   H11831024   1.929   2.804   5.885 -2.9324  0.0254  0.6478
  154MOL   H11931025   1.905   2.558   5.856  0.5974  0.0745  0.2509
  154MOL   H12031026   1.892   2.545   6.034  0.5686  0.3677 -0.7786
  154MOL   H12131027   1.697   2.734   5.928 -1.6711  0.1021 -0.2844
  154MOL   C12231028   1.633   2.539   5.904 -0.2241  0.1373  0.1936
  154MOL   O12331029   1.660   2.419   5.890 -0.0862 -0.0886  0.1753
  154MOL   C12431030   1.488   2.589   5.891  0.0584  0.0620 -0.5593
  154MOL   C12531031   1.382   2.478   5.872 -0.0223  0.6014 -0.2342
  154MOL   N12631032   1.354   2.397   5.996  0.1739 -0.2688 -0.6114
  154MOL   H12731033   1.475   2.657   5.807 -2.3726 -2.2579 -2.1278
  154MOL   H12831034   1.451   2.646   5.977 -1.9474 -2.4216  0.2707
  154MOL   H12931035   1.295   2.528   5.830 -1.5614 -1.8592 -0.0158
  154MOL   H13031036   1.423   2.413   5.794  0.1053 -1.6492  1.6653
  154MOL   H13131037   1.417   2.319   6.011  1.2052  0.5617 -0.4939
  154MOL   C13231038   1.255   2.431   6.082 -0.0705  0.0097  0.6915
  154MOL   O13331039   1.182   2.532   6.066 -0.2666  0.4370  0.2358
  154MOL   C13431040   1.221   2.332   6.189  0.1239 -0.1911  0.4860
  154MOL   C13531041   1.114   2.385   6.288  0.3647  0.5706 -0.2923
  154MOL   N13631042   1.152   2.495   6.372  0.1897 -0.2353  0.3683
  154MOL   H13731043   1.312   2.319   6.248  0.9798  1.3809 -0.4705
  154MOL   H13831044   1.190   2.234   6.153  1.8776 -1.3893  2.0902
  154MOL   H13931045   1.022   2.416   6.240 -0.6544 -0.8640  0.6749
  154MOL   H14031046   1.084   2.304   6.356 -2.1521  2.6201  1.1390
  154MOL   H14131047   1.238   2.542   6.348  1.7699 -1.8283  2.6639
  154MOL   C14231048   1.088   2.520   6.485 -0.2614  0.2118 -0.9245
  154MOL   O14331049   0.987   2.464   6.537 -0.0554  0.4771  0.4205
  154MOL   C14431050   1.147   2.642   6.558  0.2778 -0.5997 -0.2065
  154MOL   C14531051   1.063   2.695   6.677  0.4963  0.2756  0.3539
  154MOL   N14631052   0.957   2.779   6.625 -0.7722 -0.2092  0.3559
  154MOL   H14731053   1.170   2.725   6.491 -3.9812  1.2322  0.4479
  154MOL   H14831054   1.244   2.608   6.596  0.8579  0.8525 -0.3444
  154MOL   H14931055   1.018   2.618   6.740  1.4720 -0.9719 -0.4574
  154MOL   H15031056   1.123   2.762   6.739 -2.0960  2.1365  0.9691
  154MOL   H15131057   0.871   2.732   6.599 -0.9516  0.2753  0.0625
  154MOL   C15231058   0.963   2.906   6.589  0.1738  0.4449  0.0704
  154MOL   O15331059   1.066   2.969   6.596  0.8372  0.1176 -0.2346
  154MOL   C15431060   0.844   2.981   6.529  0.2297 -0.3406 -0.3110
  154MOL   C15531061   0.851   3.134   6.563  0.3133  0.3398 -0.0163
  154MOL   N15631062   0.722   3.182   6.599 -0.2010 -0.6769 -0.0922
  154MOL   H15731063   0.748   2.937   6.556 -0.8191  2.0616 -0.0546
  154MOL   H15831064   0.861   2.958   6.423 -0.2361 -3.0278  0.1601
  154MOL   H15931065   0.936   3.168   6.623  0.5748  0.2461 -0.3314
  154MOL   H16031066   0.863   3.185   6.468 -0.2600 -1.5186 -1.1030
  154MOL   H16131067   0.648   3.114   6.592 -1.5813  0.8659 -0.6694
  154MOL   C16231068   0.708   3.310   6.637 -0.1601  0.2749  0.1756
  154MOL   O16331069   0.792   3.395   6.597  0.3189 -0.3567 -0.1126
  154MOL   C16431070   0.584   3.351   6.721  0.5585  0.0496 -0.2462
  154MOL   C16531071   0.624   3.420   6.853 -0.2242  1.1014 -0.5592
  154MOL   N16631072   0.666   3.556   6.831 -0.8014  0.0156 -0.4843
  154MOL   H16731073   0.529   3.259   6.739 -0.7558  0.8092 -0.3494
  154MOL   H16831074   0.521   3.417   6.662  0.0518 -1.1454 -1.0725
  154MOL   H16931075   0.544   3.411   6.927  1.9797  0.3134  1.8116
  154MOL   H17031076   0.701   3.364   6.906  0.1641  0.7768 -1.4604
  154MOL   H17131077   0.672   3.582   6.734 -0.5882 -0.6600 -0.6586
  154MOL   C17231078   0.729   3.641   6.916 -0.2806 -0.1936 -0.3129
  154MOL   O17331079   0.735   3.631   7.037 -0.5641 -0.1491 -0.1244
  154MOL   C17431080   0.780   3.764   6.853  0.4368  0.9038  0.2037
  154MOL   C17531081   0.923   3.741   6.803 -0.3106 -0.4307 -0.0093
  154MOL   N17631082   0.939   3.653   6.687  0.2351  0.7285  0.3520
  154MOL   H17731083   0.783   3.827   6.941 -1.0063  1.6092 -0.2276
  154MOL   H17831084   0.715   3.807   6.776 -0.8305  0.7436  1.1614
  154MOL   H17931085   0.968   3.840   6.799 -2.7098  0.6792 -0.2625
  154MOL   H18031086   0.980   3.687   6.878 -1.3783 -2.9454 -0.9641
  154MOL   H18131087   0.950   3.554   6.708  0.8628  0.7210 -0.0214
  154MOL   C18231088   0.975   3.708   6.574  0.0471  0.8690 -0.3141
  154MOL   O18331089   0.967   3.829   6.557  0.2360  0.7404 -0.5774
  154MOL   C18431090   1.038   3.610   6.470  0.0932  0.3764 -0.1572
  154MOL   C18531091   0.971   3.596   6.333 -0.0560 -0.1143 -0.6290
  154MOL   N18631092   0.853   3.505   6.335  0.2697  0.2059  0.3407
  154MOL   H18731093   1.058   3.515   6.520  0.7079 -0.0799 -1.2622
  154MOL   H18831094   1.134   3.656   6.448 -0.2358  2.1557  1.9296
  154MOL   H18931095   0.937   3.695   6.303 -0.4751  0.0005  0.2085
  154MOL   H19031096   1.044   3.578   6.254  0.5849 -1.4618  0.2447
  154MOL   H19131097   0.809   3.488   6.424 -1.5438  1.3317 -0.3176
  154MOL   C19231098   0.809   3.447   6.222  0.2544 -1.0810 -0.8070
  154MOL   O19331099   0.850   3.488   6.118 -0.1282  0.4029  0.2357
  154MOL   C19431100   0.705   3.329   6.240  0.1701 -0.1843 -0.5519
  154MOL   C19531101   0.754   3.184   6.189  0.3428 -0.2371 -0.0265
  154MOL   N19631102   0.758   3.160   6.040 -0.8089 -0.7692 -0.3160
  154MOL   H19731103   0.691   3.320   6.348  0.2137  0.8972 -0.4521
  154MOL   H19831104   0.606   3.365   6.212  0.1677  1.1990  1.1635
  154MOL   H19931105   0.852   3.163   6.233  0.1881 -1.6304 -0.3229
  154MOL   H20031106   0.684   3.112   6.230 -2.7623  0.1016 -4.3633
  154MOL   H20131107   0.795   3.069   6.017 -1.1050 -0.9173 -0.2089
  154MOL   H20231108   0.826   3.223   6.000  0.1783  1.5639  4.5863
  155MOL     C131109   1.061   1.116   6.108  0.7820 -0.1175 -0.1018
  155MOL     O231110   1.146   1.077   6.033 -0.0206  0.1665  0.7736
  155MOL     C331111   1.094   1.150   6.249 -0.4966 -0.9347  0.1611
  155MOL     C431112   0.962   1.166   6.330 -0.3746  0.2927  0.1963
  155MOL     N531113   0.937   1.061   6.426  0.5193  0.5064 -0.3789
  155MOL     H631114   1.149   1.244   6.248 -0.7241 -0.7758 -3.3322
  155MOL     H731115   1.160   1.074   6.291 -0.1599 -0.7221  0.0194
  155MOL     H831116   0.874   1.170   6.266 -0.4725  0.9674  0.3654
  155MOL     H931117   0.950   1.267   6.369 -2.0279  0.8172 -1.6115
  155MOL    H1031118   0.928   1.092   6.522  0.4590  1.8059 -0.7923
  155MOL    H1131119   0.958   1.138   6.079  0.6769 -1.9676 -1.1636
  155MOL    C1231120   0.915   0.931   6.396 -0.3845 -0.3778 -0.0247
  155MOL    O1331121   0.906   0.895   6.280  0.2163 -0.4291  0.6574
  155MOL    C1431122   0.881   0.827   6.507 -0.8078 -0.4836  0.6710
  155MOL    C1531123   0.971   0.703   6.484  0.3543 -0.0725 -1.0420
  155MOL    N1631124   0.948   0.620   6.603  0.1167  0.1437 -0.0977
  155MOL    H1731125   0.776   0.804   6.493 -0.4386 -2.3429  0.8443
  155MOL    H1831126   0.897   0.879   6.602 -2.3488  0.4963  0.4083
  155MOL    H1931127   0.945   0.652   6.391 -1.2883 -1.3122  0.0674
  155MOL    H2031128   1.075   0.736   6.477 -0.1767  2.2799  1.3010
  155MOL    H2131129   0.892   0.652   6.680 -0.9729 -1.8387 -0.0351
  155MOL    C2231130   1.029   0.517   6.628  0.3167 -0.5224 -0.2543
  155MOL    O2331131   1.124   0.492   6.553 -0.1809 -0.0360  0.9685
  155MOL    C2431132   0.999   0.422   6.744  0.6688 -0.0841  0.4192
  155MOL    C2531133   0.961   0.279   6.698  0.1047  0.6888 -0.9054
  155MOL    N2631134   0.841   0.268   6.609  0.3252  0.7374 -0.1655
  155MOL    H2731135   0.923   0.462   6.810 -0.5813 -0.0170 -1.0147
  155MOL    H2831136   1.087   0.424   6.808  0.8403 -0.1918  0.1871
  155MOL    H2931137   1.050   0.231   6.656  2.6911  1.6497  3.1801
  155MOL    H3031138   0.948   0.222   6.790  2.1813  1.8488  0.1534
  155MOL    H3131139   0.860   0.262   6.510 -1.2969  1.8507 -0.5558
  155MOL    C3231140   0.716   0.289   6.647  0.2921 -0.3194 -0.5011
  155MOL    O3331141   0.680   0.322   6.758 -0.0078 -0.4524 -0.3953
  155MOL    C3431142   0.622   0.279   6.527 -0.4267  0.1349 -0.1105
  155MOL    C3531143   0.495   0.201   6.562 -0.4787 -0.2773 -0.2700
  155MOL    N3631144   0.395   0.195   6.449  0.2789 -0.3234 -0.2620
  155MOL    H3731145   0.682   0.237   6.447 -0.6541 -1.8724  0.7337
  155MOL    H3831146   0.596   0.379   6.492  0.9608  0.2224 -0.9375
  155MOL    H3931147   0.515   0.095   6.575 -0.2012 -0.1272  0.5702
  155MOL    H4031148   0.451   0.237   6.655  1.0124 -0.5091  0.5269
  155MOL    H4131149   0.435   0.224   6.361  0.0971 -1.6729 -0.8008
  155MOL    C4231150   0.266   0.155   6.465  0.3876  0.5939  0.4070
  155MOL    O4331151   0.213   0.124   6.574 -0.5139 -0.2406  0.2282
  155MOL    C4431152   0.172   0.154   6.338 -0.2514  1.0821  0.4630
  155MOL    C4531153   0.154   0.007   6.290 -1.1728 -0.4790 -0.6123
  155MOL    N4631154   0.259   7.743   6.194  0.2117 -0.7593  0.9434
  155MOL    H4731155   0.080   0.206   6.367  0.3012  2.6983 -0.6114
  155MOL    H4831156   0.217   0.216   6.260  1.5124  0.7010  1.1511
  155MOL    H4931157   0.151   7.715   6.371  1.5850 -2.5147 -2.2270
  155MOL    H5031158   0.056   7.767   6.246  0.6388 -3.9105 -3.3337
  155MOL    H5131159   0.343   0.017   6.180 -0.3071 -0.4591 -1.0599
  155MOL    C5231160   0.237   7.638   6.113  0.2226 -0.1063 -0.3700
  155MOL    O5331161   0.129   7.571   6.122 -0.4072 -0.4047  0.1310
  155MOL    C5431162   0.346   7.590   6.022 -0.0281  0.0072  0.2913
  155MOL    C5531163   0.334   7.438   5.991 -1.4770  0.5845 -0.2399
  155MOL    N5631164   0.444   7.392   5.903 -0.2643  0.3778 -0.3789
  155MOL    H5731165   0.327   7.638   5.926 -0.1843 -1.5686 -0.4743
  155MOL    H5831166   0.442   7.630   6.056  1.2385 -2.7810  0.1117
  155MOL    H5931167   0.236   7.415   5.948 -0.4552 -1.4913 -1.5012
  155MOL    H6031168   0.330   7.377   6.081 -1.4437 -1.3636 -1.5327
  155MOL    H6131169   0.427   7.395   5.804  0.7539  0.1432 -0.5618
  155MOL    C6231170   0.552   7.322   5.947 -0.7232  0.2990  0.6350
  155MOL    O6331171   0.585   7.315   6.066 -0.0039  0.5490 -0.1498
  155MOL    C6431172   0.639   7.256   5.836  0.1858  0.3278 -0.5512
  155MOL    C6531173   0.738   7.149   5.896 -0.2863 -0.4870  0.3780
  155MOL    N6631174   0.803   7.069   5.789 -0.0179  0.0227  0.0700
  155MOL    H6731175   0.579   7.200   5.764  0.1390  1.3901 -1.3478
  155MOL    H6831176   0.678   7.332   5.768  3.9358 -0.6664  0.3647
  155MOL    H6931177   0.813   7.201   5.955  1.1876 -1.8010 -0.3049
  155MOL    H7031178   0.694   7.079   5.967  0.2304  0.1561  1.3359
  155MOL    H7131179   0.892   7.091   5.746  0.1538  0.4149  0.6130
  155MOL    C7231180   0.739   6.964   5.728  0.2234  0.0905 -0.0590
  155MOL    O7331181   0.624   6.929   5.767  0.5019  0.3202  0.0777
  155MOL    C7431182   0.805   6.882   5.626  0.0798 -0.2152  0.3765
  155MOL    C7531183   0.727   6.892   5.492 -0.0777  0.3228  0.7611
  155MOL    N7631184   0.784   6.804   5.389 -0.9268 -0.4526  0.6542
  155MOL    H7731185   0.903   6.924   5.606  0.9919 -2.7015 -0.5760
  155MOL    H7831186   0.807   6.776   5.651  0.1701 -0.3542 -0.2172
  155MOL    H7931187   0.626   6.858   5.514 -0.1130  0.2969  0.5605
  155MOL    H8031188   0.707   6.993   5.458  0.7376  0.1665 -0.2309
  155MOL    H8131189   0.842   6.845   5.317 -0.9732  2.0727  2.0171
  155MOL    C8231190   0.768   6.673   5.384  0.3144 -0.4117  0.1823
  155MOL    O8331191   0.711   6.610   5.472  0.4301  0.1180  0.4073
  155MOL    C8431192   0.825   6.596   5.259 -0.0428 -0.4966  0.1825
  155MOL    C8531193   0.890   6.464   5.297  0.1106 -0.1298 -0.0114
  155MOL    N8631194   1.027   6.498   5.335  0.0541  0.1453 -0.4060
  155MOL    H8731195   0.747   6.576   5.185 -1.3491  3.2712  0.4212
  155MOL    H8831196   0.891   6.664   5.205  0.2376 -2.0324 -1.4705
  155MOL    H8931197   0.830   6.407   5.367 -1.5473  2.4962  0.7534
  155MOL    H9031198   0.893   6.406   5.204  1.4505  0.5634 -0.4166
  155MOL    H9131199   1.079   6.564   5.279  1.2369 -0.4023  0.0379
  155MOL    C9231200   1.091   6.415   5.417  1.4372 -0.8401  0.4972
  155MOL    O9331201   1.029   6.335   5.486  0.6154  0.5359 -0.2921
  155MOL    C9431202   1.243   6.435   5.426  0.1666 -0.3804  0.6738
  155MOL    C9531203   1.324   6.321   5.366 -0.1084  0.5655 -0.6559
  155MOL    N9631204   1.473   6.344   5.365 -0.4032 -0.2473  0.1067
  155MOL    H9731205   1.284   6.526   5.382  1.1840  0.5304  3.3645
  155MOL    H9831206   1.274   6.441   5.531 -0.1133 -0.4103  0.7589
  155MOL    H9931207   1.305   6.228   5.418  0.3944 -0.4338 -2.2097
  155MOL   H10031208   1.292   6.310   5.262  2.8836  3.2857 -1.9681
  155MOL   H10131209   1.517   6.307   5.448  0.0481 -0.7555 -0.3534
  155MOL   C10231210   1.551   6.389   5.266 -0.2964 -0.1459 -0.5454
  155MOL   O10331211   1.507   6.431   5.155 -0.2963  0.3134 -0.0740
  155MOL   C10431212   1.696   6.392   5.288 -0.0480 -0.1645 -0.5730
  155MOL   C10531213   1.773   6.409   5.158 -0.0308  0.5310  0.0484
  155MOL   N10631214   1.918   6.396   5.187 -0.0038 -0.3224 -0.0019
  155MOL   H10731215   1.723   6.303   5.344  1.3481  0.0874 -0.8004
  155MOL   H10831216   1.720   6.481   5.347  0.1265 -1.5024  1.4230
  155MOL   H10931217   1.730   6.336   5.089  0.2547  0.6938 -0.3066
  155MOL   H11031218   1.744   6.507   5.120 -1.1582  0.6434  1.1615
  155MOL   H11131219   1.947   6.410   5.283  0.0672  0.7835 -0.1713
  155MOL   C11231220   2.005   6.374   5.091 -0.1969  0.1393 -0.1440
  155MOL   O11331221   1.983   6.397   4.976 -0.0425 -0.7958 -0.0970
  155MOL   C11431222   2.139   6.315   5.137 -0.5637 -0.1518  0.3925
  155MOL   C11531223   2.265   6.373   5.071 -0.5980  1.2366  0.1579
  155MOL   N11631224   2.387   6.317   5.132  0.8178  0.2547  0.6271
  155MOL   H11731225   2.121   6.210   5.112  2.3616 -0.5361 -0.3370
  155MOL   H11831226   2.154   6.332   5.244  1.6982  0.6387 -0.0068
  155MOL   H11931227   2.261   6.338   4.968  1.6179 -3.0225  1.3865
  155MOL   H12031228   2.254   6.482   5.069  0.6655  1.3757 -0.0786
  155MOL   H12131229   2.415   6.238   5.077 -1.3350 -1.1114  1.4157
  155MOL   C12231230   2.450   6.353   5.246 -0.0024  0.6930 -0.1282
  155MOL   O12331231   2.548   6.285   5.279  0.3163  0.8860 -0.1894
  155MOL   C12431232   2.397   6.466   5.331 -0.4373  0.0644 -0.2743
  155MOL   C12531233   2.471   6.498   5.466 -0.4339 -0.2011  0.3151
  155MOL   N12631234   2.454   6.384   5.550 -0.3087 -0.5757  0.1272
  155MOL   H12731235   2.289   6.463   5.342 -0.5790  1.1670 -1.2584
  155MOL   H12831236   2.412   6.552   5.266  0.4853 -1.0098 -1.5198
  155MOL   H12931237   2.578   6.504   5.450 -0.5193 -0.2423 -0.2647
  155MOL   H13031238   2.461   6.597   5.511  1.5462  0.6539 -1.0752
  155MOL   H13131239   2.429   6.298   5.504  0.0927 -1.2270  1.1442
  155MOL   C13231240   2.473   6.382   5.681  0.9884  0.8241 -0.2397
  155MOL   O13331241   2.479   6.488   5.749  0.0658  0.5855  0.7314
  155MOL   C13431242   2.488   6.250   5.753 -0.3185 -0.0287 -0.2833
  155MOL   C13531243   2.351   6.171   5.753  0.0140  0.4994 -0.0105
  155MOL   N13631244   2.339   6.076   5.647 -0.1429  0.3510 -0.1473
  155MOL   H13731245   2.514   6.271   5.857 -0.8540 -1.1204  0.0852
  155MOL   H13831246   2.569   6.196   5.704 -1.2503 -1.5563 -0.1833
  155MOL   H13931247   2.342   6.107   5.841 -0.6169  0.1348 -0.3416
  155MOL   H14031248   2.272   6.246   5.759  0.7975  1.2461  1.4477
  155MOL   H14131249   2.354   5.979   5.670  0.7579  0.4911 -0.1107
  155MOL   C14231250   2.284   6.099   5.527 -0.1381 -0.3253 -0.2114
  155MOL   O14331251   2.247   6.214   5.487  0.0756  0.5380  0.4441
  155MOL   C14431252   2.259   5.975   5.442  0.6757  0.0538 -0.3006
  155MOL   C14531253   2.176   6.006   5.320  0.0823 -0.4267  0.7675
  155MOL   N14631254   2.034   6.017   5.360  0.4088 -0.3802  0.2329
  155MOL   H14731255   2.206   5.907   5.508 -0.4795  1.3388  0.1165
  155MOL   H14831256   2.355   5.933   5.410 -1.0268 -2.0343 -2.8289
  155MOL   H14931257   2.212   6.101   5.280 -0.8293 -0.0564  0.8141
  155MOL   H15031258   2.183   5.937   5.236  0.5462  1.2949 -0.6522
  155MOL   H15131259   2.020   6.034   5.458  0.1434 -3.4542  0.7674
  155MOL   C15231260   1.927   5.990   5.285 -0.2635 -0.1423 -0.0145
  155MOL   O15331261   1.945   5.963   5.166 -0.1743 -0.5846 -0.8887
  155MOL   C15431262   1.800   6.004   5.355  0.0134  0.3197 -0.3291
  155MOL   C15531263   1.673   5.982   5.263  0.1545 -0.1489  0.1164
  155MOL   N15631264   1.551   5.960   5.339 -0.3199 -0.6826 -0.0343
  155MOL   H15731265   1.781   6.092   5.415 -2.4401 -0.8461  0.6942
  155MOL   H15831266   1.808   5.920   5.424  0.2465 -0.3723 -1.1837
  155MOL   H15931267   1.663   6.064   5.192 -0.0374 -1.0743 -0.9367
  155MOL   H16031268   1.692   5.902   5.192 -1.8499 -2.2578  1.8594
  155MOL   H16131269   1.469   6.012   5.311 -0.3503 -1.5457 -1.6430
  155MOL   C16231270   1.534   5.862   5.432  0.2745 -0.1414  0.1568
  155MOL   O16331271   1.618   5.792   5.480  0.4445  0.0671 -0.5362
  155MOL   C16431272   1.392   5.841   5.479 -0.2597 -0.0193 -0.0447
  155MOL   C16531273   1.382   5.750   5.599 -0.1115 -0.0286 -0.7837
  155MOL   N16631274   1.242   5.694   5.619 -0.0313  0.0151 -0.0725
  155MOL   H16731275   1.347   5.799   5.389 -2.1968  1.1721  0.3346
  155MOL   H16831276   1.335   5.926   5.517 -0.7524  0.1284 -1.1132
  155MOL   H16931277   1.448   5.664   5.609 -1.8537 -1.5304 -1.8412
  155MOL   H17031278   1.395   5.810   5.689  1.5327  1.0497 -1.7337
  155MOL   H17131279   1.198   5.720   5.706 -0.5305  2.3886 -1.0037
  155MOL   C17231280   1.191   5.579   5.575 -0.0245  0.8771  1.1009
  155MOL   O17331281   1.250   5.508   5.498  0.2501  0.3011  0.9387
  155MOL   C17431282   1.054   5.530   5.627 -0.2717 -0.0475 -0.2757
  155MOL   C17531283   0.949   5.488   5.521 -0.2628 -0.1003  0.0386
  155MOL   N17631284   0.891   5.595   5.439  0.0302  0.3042  0.5925
  155MOL   H17731285   1.012   5.596   5.703  0.4271 -1.1106  1.0573
  155MOL   H17831286   1.075   5.444   5.691 -1.5636 -1.7602 -2.1082
  155MOL   H17931287   0.994   5.416   5.454 -1.6806  0.6535 -1.7833
  155MOL   H18031288   0.866   5.445   5.577 -0.9033  2.2850  1.0339
  155MOL   H18131289   0.940   5.680   5.463  0.4098 -0.3630  2.2554
  155MOL   C18231290   0.796   5.573   5.345  1.3338  0.2764 -0.2741
  155MOL   O18331291   0.750   5.464   5.309  0.9325  0.3752  0.2143
  155MOL   C18431292   0.763   5.699   5.270  0.2138  0.5152 -0.2627
  155MOL   C18531293   0.662   5.785   5.343  0.2913 -0.5257 -0.1526
  155MOL   N18631294   0.532   5.722   5.359  0.4787  0.0034 -0.4873
  155MOL   H18731295   0.737   5.682   5.165  0.5848  0.0832 -0.2848
  155MOL   H18831296   0.862   5.745   5.264  0.8936 -0.6375  1.6561
  155MOL   H18931297   0.697   5.822   5.439  1.2387  1.6794 -1.3227
  155MOL   H19031298   0.655   5.880   5.291 -0.2414 -0.2836  0.3615
  155MOL   H19131299   0.518   5.622   5.364  1.6565 -0.0790  1.3887
  155MOL   C19231300   0.419   5.793   5.349 -0.0952  0.7012 -0.6381
  155MOL   O19331301   0.404   5.914   5.336  0.0402  0.1991  0.4816
  155MOL   C19431302   0.290   5.706   5.364 -0.6838  0.2717  0.0419
  155MOL   C19531303   0.149   5.768   5.344  0.1756  0.2377  0.5107
  155MOL   N19631304   0.123   5.867   5.448 -0.1531  0.9254  0.1774
  155MOL   H19731305   0.291   5.613   5.308 -0.9955 -1.3523  2.6303
  155MOL   H19831306   0.283   5.674   5.468 -1.2497 -1.1797 -0.4272
  155MOL   H19931307   0.158   5.813   5.245 -0.4069 -1.6848 -0.4383
  155MOL   H20031308   0.075   5.690   5.357  0.5848 -0.3940 -0.8852
  155MOL   H20131309   0.028   5.893   5.422  0.3092  2.3334 -0.1368
  155MOL   H20231310   0.179   5.943   5.414 -2.2519  2.2968 -0.3347
  156MOL     C131311   2.637   2.962   4.727  0.2829 -0.5490 -0.0630
  156MOL     O231312   2.563   2.872   4.760  0.7735  0.6753  0.6451
  156MOL     C331313   2.593   3.069   4.630  0.2989 -0.1363  0.2756
  156MOL     C431314   2.525   3.188   4.694  0.1571 -0.1247 -0.0217
  156MOL     N531315   2.607   3.265   4.784 -0.1893  0.0384 -0.6062
  156MOL     H631316   2.530   3.036   4.547  0.1760  2.1872 -0.6088
  156MOL     H731317   2.680   3.108   4.577  0.1522  0.0692  0.1834
  156MOL     H831318   2.435   3.161   4.749  1.8709 -1.4546  2.2253
  156MOL     H931319   2.508   3.265   4.619 -0.1272 -0.6064 -0.4606
  156MOL    H1031320   2.666   3.336   4.742  1.0962  0.2395  1.4914
  156MOL    H1131321   2.728   2.988   4.782 -1.6620  1.5959  2.2470
  156MOL    C1231322   2.587   3.284   4.923  0.4461 -0.1120  0.9988
  156MOL    O1331323   2.519   3.211   4.985  0.5123  0.4046  0.2829
  156MOL    C1431324   2.668   3.394   4.995 -0.5825  0.3443 -0.0774
  156MOL    C1531325   2.694   3.373   5.151 -0.1124  0.3887  0.5744
  156MOL    N1631326   2.723   3.491   5.223  0.0358 -0.1073  0.0985
  156MOL    H1731327   2.631   3.495   4.979 -1.6452 -0.0771 -0.3215
  156MOL    H1831328   2.767   3.415   4.955 -0.0913  0.4760  1.1691
  156MOL    H1931329   2.612   3.328   5.206 -0.8394  0.7356 -0.2079
  156MOL    H2031330   2.779   3.305   5.160 -0.2310  0.0829 -0.4786
  156MOL    H2131331   2.814   3.491   5.267 -0.3877 -1.1631  1.0042
  156MOL    C2231332   2.627   3.578   5.261 -0.7096 -0.3271  0.1752
  156MOL    O2331333   2.511   3.569   5.226  0.3838  0.2464 -0.4222
  156MOL    C2431334   2.669   3.691   5.351  0.6725 -0.1969 -0.4080
  156MOL    C2531335   2.729   3.815   5.280  0.1986 -0.6685  0.0119
  156MOL    N2631336   2.637   3.897   5.202  0.0703  0.1106  0.4394
  156MOL    H2731337   2.758   3.660   5.406  0.7072 -0.0109 -0.3588
  156MOL    H2831338   2.590   3.721   5.419  0.5044  3.2906 -2.0400
  156MOL    H2931339   2.758   3.878   5.364  1.1324 -0.6812 -0.2956
  156MOL    H3031340   2.806   3.776   5.214 -0.5182 -1.9931 -0.0564
  156MOL    H3131341   2.639   3.873   5.104  2.8057  0.7486  0.3171
  156MOL    C3231342   2.560   4.000   5.244 -0.0048  0.1203 -0.2727
  156MOL    O3331343   2.544   4.035   5.359  0.0612  0.0482  0.5967
  156MOL    C3431344   2.482   4.067   5.133  0.9920 -0.4330  0.0353
  156MOL    C3531345   2.422   4.211   5.169  0.3233 -0.1019 -0.6170
  156MOL    N3631346   2.496   4.327   5.129 -0.3468 -0.2813  0.1472
  156MOL    H3731347   2.406   3.990   5.115  1.4077 -0.4248 -1.8620
  156MOL    H3831348   2.542   4.077   5.042  2.5035 -0.2542  1.0389
  156MOL    H3931349   2.323   4.214   5.123  0.4400  1.1729 -0.8154
  156MOL    H4031350   2.399   4.209   5.275 -0.6824 -1.4201 -0.8531
  156MOL    H4131351   2.457   4.399   5.070 -2.1949 -0.8413  0.6696
  156MOL    C4231352   2.630   4.348   5.153 -0.0142 -0.4023 -0.2202
  156MOL    O4331353   2.702   4.262   5.204  0.0662  0.6492  0.1789
  156MOL    C4431354   2.689   4.479   5.117 -0.0614  0.2180  0.9540
  156MOL    C4531355   2.810   4.521   5.207  0.0159 -0.8042  0.2904
  156MOL    N4631356   2.863   4.653   5.169  0.9213 -0.8072  0.4409
  156MOL    H4731357   2.707   4.492   5.011  1.5357  0.7165  1.2706
  156MOL    H4831358   2.606   4.548   5.131  0.3539  1.4603 -2.4019
  156MOL    H4931359   2.776   4.516   5.310  0.7879 -0.1964  0.5855
  156MOL    H5031360   2.890   4.450   5.187  1.1895  0.3496  0.7772
  156MOL    H5131361   2.858   4.677   5.071 -1.8174  1.9880  1.1757
  156MOL    C5231362   2.917   4.748   5.250  0.3446  0.5789  0.2966
  156MOL    O5331363   2.932   4.726   5.368  0.0378 -0.2314  0.2298
  156MOL    C5431364   2.973   4.871   5.172  0.2157  0.0567 -0.2746
  156MOL    C5531365   3.092   4.925   5.255 -0.4085  0.1341  0.0474
  156MOL    N5631366   3.164   5.039   5.190 -0.2238  0.5410  0.2578
  156MOL    H5731367   3.024   4.825   5.088  2.6260  1.3165  0.4551
  156MOL    H5831368   2.891   4.940   5.150 -0.1946  0.7443  3.0210
  156MOL    H5931369   3.166   4.848   5.274  0.8503  1.2219 -0.4247
  156MOL    H6031370   3.055   4.959   5.352  0.8685 -1.1094  0.9718
  156MOL    H6131371   3.126   5.131   5.203 -1.2348  0.2484 -0.5284
  156MOL    C6231372   3.252   5.018   5.091 -0.9979  0.1108  0.6592
  156MOL    O6331373   3.309   4.907   5.075 -0.5324 -0.4602 -0.8740
  156MOL    C6431374   3.265   5.122   4.983  0.5728  0.1579  0.1926
  156MOL    C6531375   3.371   5.088   4.878  0.2225  0.3093 -0.1217
  156MOL    N6631376   3.510   5.112   4.922  0.1291  0.0384 -0.1167
  156MOL    H6731377   3.165   5.138   4.941  0.6994 -0.3064 -0.2877
  156MOL    H6831378   3.282   5.216   5.035 -1.4366 -0.2100  1.5760
  156MOL    H6931379   3.367   4.984   4.848  2.6985  0.5076 -1.2584
  156MOL    H7031380   3.353   5.149   4.789 -2.1749 -0.1078  0.0275
  156MOL    H7131381   3.535   5.084   5.016 -0.5222 -0.4208 -0.0823
  156MOL    C7231382   3.610   5.127   4.846 -0.1459 -0.1675  0.0380
  156MOL    O7331383   3.592   5.167   4.730 -0.5102 -0.3337  0.0234
  156MOL    C7431384   3.746   5.094   4.903 -0.2240  0.0547  0.4668
  156MOL    C7531385   3.847   5.056   4.795 -0.3208 -0.2516 -0.5376
  156MOL    N7631386   3.815   4.924   4.749  0.9560  0.3308  0.4581
  156MOL    H7731387   3.773   5.171   4.974 -1.5408 -0.1207  1.1730
  156MOL    H7831388   3.738   5.004   4.964  1.8890 -1.4599 -1.3837
  156MOL    H7931389   3.856   5.129   4.715  0.4241  3.7392  3.0498
  156MOL    H8031390   3.943   5.041   4.846 -0.9710 -1.3910  0.3724
  156MOL    H8131391   3.718   4.899   4.748  1.2467 -0.8529  0.5609
  156MOL    C8231392   3.905   4.842   4.692 -0.1475  0.1604  0.3010
  156MOL    O8331393   4.020   4.879   4.661  0.6202 -0.0662  0.2717
  156MOL    C8431394   3.863   4.695   4.675 -0.9861 -0.2430  0.4301
  156MOL    C8531395   3.974   4.595   4.698  0.5241  0.5175  0.2467
  156MOL    N8631396   3.931   4.454   4.678 -0.1150 -0.2499 -0.1197
  156MOL    H8731397   3.770   4.683   4.732 -1.0561  0.3648  0.4501
  156MOL    H8831398   3.831   4.689   4.571 -0.5908 -0.5588  0.3289
  156MOL    H8931399   4.058   4.619   4.632  0.9797 -1.0307  0.2434
  156MOL    H9031400   4.005   4.599   4.803 -0.7705 -0.0791  0.6595
  156MOL    H9131401   3.966   4.407   4.596  1.7532 -0.2566  0.6577
  156MOL    C9231402   3.862   4.374   4.759 -0.0684 -0.0730  0.2053
  156MOL    O9331403   3.835   4.415   4.873  0.5227 -0.3600 -0.0299
  156MOL    C9431404   3.817   4.242   4.705 -0.5357 -0.2452  0.8490
  156MOL    C9531405   3.762   4.152   4.811  0.0204  0.0360 -0.8185
  156MOL    N9631406   3.858   4.056   4.867  0.2592  0.6212  0.1541
  156MOL    H9731407   3.738   4.257   4.631  0.0485  0.6413  0.3976
  156MOL    H9831408   3.911   4.204   4.666  0.8604  2.2147  1.6879
  156MOL    H9931409   3.702   4.198   4.890 -0.1166  0.5023 -1.1867
  156MOL   H10031410   3.693   4.080   4.768  2.2506 -2.6976  0.0430
  156MOL   H10131411   3.885   3.968   4.824  0.6077 -0.9434  3.4198
  156MOL   C10231412   3.890   4.045   4.998  0.0677 -0.4979  0.2134
  156MOL   O10331413   3.844   4.116   5.087 -0.7648 -0.6576  0.0825
  156MOL   C10431414   3.976   3.923   5.030 -0.5871 -0.3004 -0.0116
  156MOL   C10531415   3.890   3.821   5.108 -0.5042 -0.1094 -0.4907
  156MOL   N10631416   3.777   3.761   5.034  0.0410  0.6212 -0.4353
  156MOL   H10731417   4.064   3.951   5.088  1.8036 -0.0893 -3.5722
  156MOL   H10831418   4.033   3.881   4.947 -1.2505  0.5552 -0.9037
  156MOL   H10931419   3.945   3.741   5.158 -1.0842 -0.5591 -0.5578
  156MOL   H11031420   3.839   3.870   5.192 -0.0351 -1.1852  0.4373
  156MOL   H11131421   3.689   3.761   5.084  0.6393  0.2089  0.6544
  156MOL   C11231422   3.770   3.714   4.906  0.4997 -0.6310 -0.5234
  156MOL   O11331423   3.859   3.733   4.825 -0.2017  0.1592 -0.1137
  156MOL   C11431424   3.636   3.665   4.850 -0.2403 -0.5462  0.3895
  156MOL   C11531425   3.644   3.527   4.776 -0.6027  0.6429  0.7257
  156MOL   N11631426   3.720   3.431   4.848 -0.7320  0.2425  0.8049
  156MOL   H11731427   3.591   3.749   4.796 -0.8030 -0.6582  0.6751
  156MOL   H11831428   3.567   3.660   4.934  1.7547 -3.1170  1.9293
  156MOL   H11931429   3.542   3.493   4.754 -0.6077  0.3331  1.2098
  156MOL   H12031430   3.689   3.545   4.678 -2.5859 -1.4297 -0.6378
  156MOL   H12131431   3.820   3.444   4.848 -0.7444  0.3935  1.4845
  156MOL   C12231432   3.663   3.328   4.912  0.0405 -0.6340 -0.2255
  156MOL   O12331433   3.539   3.313   4.923  0.1476 -0.1418 -0.0177
  156MOL   C12431434   3.760   3.230   4.982 -0.0356 -0.5326 -0.4402
  156MOL   C12531435   3.771   3.091   4.919 -0.1756  0.1423 -0.7659
  156MOL   N12631436   3.646   3.015   4.956 -0.2973  0.3659  0.4717
  156MOL   H12731437   3.729   3.216   5.085  0.1155 -1.5578 -0.5356
  156MOL   H12831438   3.854   3.286   4.986 -0.4300  0.0174  1.6009
  156MOL   H12931439   3.771   3.098   4.810 -0.2173  1.4118 -0.6913
  156MOL   H13031440   3.859   3.028   4.931 -0.6253 -0.1663  1.1441
  156MOL   H13131441   3.640   3.008   5.057  2.9762  1.0376  0.7723
  156MOL   C13231442   3.563   2.953   4.870 -0.6839  0.2790  0.2962
  156MOL   O13331443   3.571   2.961   4.750  0.3436  0.0034 -0.1439
  156MOL   C13431444   3.455   2.868   4.932  0.6361  0.5281  0.3087
  156MOL   C13531445   3.456   2.721   4.895 -0.0684  0.6516  0.4714
  156MOL   N13631446   3.551   2.649   4.976  0.5049  0.4062  0.1580
  156MOL   H13731447   3.359   2.908   4.900  0.8446  1.7667  1.1799
  156MOL   H13831448   3.450   2.862   5.041  2.6812 -0.4320  0.3661
  156MOL   H13931449   3.357   2.678   4.912  0.5152 -0.1774  1.7970
  156MOL   H14031450   3.476   2.704   4.789  0.4121  0.1721  0.6376
  156MOL   H14131451   3.628   2.694   5.024  1.9921 -1.7961 -0.0825
  156MOL   C14231452   3.538   2.512   4.989  0.1011  0.2628  0.1794
  156MOL   O14331453   3.457   2.449   4.923  0.6921  0.0982 -0.3184
  156MOL   C14431454   3.625   2.451   5.095 -0.0576  0.9760 -0.0139
  156MOL   C14531455   3.627   2.294   5.098  0.0076  0.3106 -0.1868
  156MOL   N14631456   3.745   2.235   5.155  0.5123  0.1218  0.2515
  156MOL   H14731457   3.598   2.495   5.191 -0.8706  0.6673 -0.0995
  156MOL   H14831458   3.726   2.483   5.068 -0.1133  1.4849  0.3757
  156MOL   H14931459   3.540   2.274   5.160  0.6067  2.2485  1.2945
  156MOL   H15031460   3.605   2.253   4.999  0.0497 -2.2874  0.8282
  156MOL   H15131461   3.827   2.287   5.130 -1.0328  2.7626  0.4536
  156MOL   C15231462   3.753   2.126   5.235 -0.3091  1.0363 -0.4650
  156MOL   O15331463   3.662   2.043   5.249  0.4939  0.0451  0.3030
  156MOL   C15431464   3.895   2.100   5.293  0.3855 -0.4157 -0.1908
  156MOL   C15531465   3.961   1.970   5.235  0.1666 -1.0227 -0.0952
  156MOL   N15631466   4.097   1.966   5.285 -0.0454  0.0081 -0.5028
  156MOL   H15731467   3.885   2.094   5.402  4.4179  0.1863  0.2744
  156MOL   H15831468   3.963   2.183   5.274  0.4433 -0.7654 -1.5069
  156MOL   H15931469   3.914   1.880   5.275 -0.7472 -0.1778  0.7543
  156MOL   H16031470   3.944   1.965   5.128  1.7287 -1.6012 -0.3383
  156MOL   H16131471   4.173   2.004   5.229  0.9405  1.9899  2.0981
  156MOL   C16231472   4.136   1.881   5.380 -0.1190  0.2415  0.1904
  156MOL   O16331473   4.055   1.818   5.445  0.7307  0.2249 -0.2694
  156MOL   C16431474   4.290   1.852   5.401  0.1080 -0.5147 -0.1694
  156MOL   C16531475   4.336   1.876   5.549  1.1605  0.5680  0.2275
  156MOL   N16631476   4.354   2.011   5.577  0.7124 -0.4395 -0.4289
  156MOL   H16731477   4.349   1.908   5.327  0.3986 -1.1035 -0.3863
  156MOL   H16831478   4.303   1.755   5.354 -0.4143 -0.1110 -1.1848
  156MOL   H16931479   4.253   1.848   5.615  1.3329 -0.0615  0.1777
  156MOL   H17031480   4.415   1.808   5.581  1.0383  0.4454  0.2702
  156MOL   H17131481   4.363   2.080   5.503  0.2588 -0.2450 -0.3050
  156MOL   C17231482   4.352   2.057   5.702 -0.0324 -0.1790  0.1919
  156MOL   O17331483   4.354   1.987   5.807  0.4509 -0.2103  0.3722
  156MOL   C17431484   4.363   2.207   5.720  0.5620 -0.2733 -0.0831
  156MOL   C17531485   4.474   2.230   5.824 -0.0917  0.1076  0.0411
  156MOL   N17631486   4.503   2.373   5.832 -0.2946  0.2644 -0.1757
  156MOL   H17731487   4.272   2.247   5.764 -0.5564  1.9724 -4.1464
  156MOL   H17831488   4.381   2.264   5.628  0.6931  0.9192  0.6620
  156MOL   H17931489   4.444   2.201   5.925 -0.3686  0.2950  0.0141
  156MOL   H18031490   4.562   2.167   5.812  1.1386  1.5374  1.3896
  156MOL   H18131491   4.466   2.434   5.903  1.0223  0.8856  0.0023
  156MOL   C18231492   4.584   2.445   5.750  0.5946 -0.5565 -0.1643
  156MOL   O18331493   4.652   2.392   5.660  0.1470  0.2351 -0.1377
  156MOL   C18431494   4.590   2.594   5.791  0.4079 -0.3912  0.5348
  156MOL   C18531495   4.489   2.682   5.715 -0.2565  0.0494  0.0526
  156MOL   N18631496   4.372   2.719   5.799 -0.7467 -0.2318  0.5481
  156MOL   H18731497   4.689   2.637   5.777 -0.6603  1.7090 -0.7871
  156MOL   H18831498   4.584   2.613   5.898  3.1222 -0.6614  0.7773
  156MOL   H18931499   4.535   2.773   5.675 -0.8138  0.0565 -0.5825
  156MOL   H19031500   4.455   2.630   5.625  0.5326  2.7440 -1.8751
  156MOL   H19131501   4.390   2.792   5.867  1.9787  0.6309 -0.9885
  156MOL   C19231502   4.252   2.664   5.798 -0.2806 -0.9844  0.6249
  156MOL   O19331503   4.235   2.566   5.728 -0.8376 -0.3931  0.0418
  156MOL   C19431504   4.143   2.742   5.869 -0.2108  0.4037  1.3407
  156MOL   C19531505   4.004   2.713   5.814 -0.0400  0.2481  0.2455
  156MOL   N19631506   3.990   2.760   5.675  0.0236  0.5206  0.0193
  156MOL   H19731507   4.140   2.713   5.974  0.2526  0.8391  1.4749
  156MOL   H19831508   4.169   2.847   5.869 -0.4135  0.4697 -0.7549
  156MOL   H19931509   3.973   2.608   5.814 -2.8299  1.0140 -1.3516
  156MOL   H20031510   3.938   2.763   5.885 -1.1392  2.0840 -1.9859
  156MOL   H20131511   4.015   2.673   5.630 -1.6507  0.1045 -0.1522
  156MOL   H20231512   3.890   2.760   5.664  0.1182  1.3921 -0.8707
  157MOL     C131513   2.261   4.838   3.996 -0.2143 -0.3688 -0.2467
  157MOL     O231514   2.295   4.952   4.034  0.3825  0.0997  0.3941
  157MOL     C331515   2.121   4.782   4.029 -0.3160 -0.3608  0.4269
  157MOL     C431516   2.004   4.835   3.943  0.3534  0.0770  0.4086
  157MOL     N531517   1.981   4.742   3.828  0.1853  0.3369 -0.7789
  157MOL     H631518   2.101   4.807   4.133 -0.3532  2.3590 -0.1987
  157MOL     H731519   2.120   4.673   4.035 -1.7074 -0.3419  0.8660
  157MOL     H831520   2.044   4.924   3.893 -0.4148  0.8844  1.2092
  157MOL     H931521   1.908   4.861   3.988  0.2221  3.6075 -1.6934
  157MOL    H1031522   2.056   4.686   3.790  1.1946  2.1271 -1.4931
  157MOL    H1131523   2.329   4.775   3.939  1.7524 -0.2214  1.8666
  157MOL    C1231524   1.866   4.741   3.758  0.6213  0.4364  0.0575
  157MOL    O1331525   1.765   4.804   3.791  0.2103  0.5161 -0.4923
  157MOL    C1431526   1.877   4.656   3.630  0.3371 -0.3218 -0.4605
  157MOL    C1531527   1.758   4.570   3.590  0.6882  0.1584 -0.5583
  157MOL    N1631528   1.744   4.451   3.670  0.1592 -1.0560 -0.1379
  157MOL    H1731529   1.957   4.583   3.631  0.8219  0.1966 -0.9195
  157MOL    H1831530   1.894   4.731   3.552 -0.9374  0.0745 -0.3809
  157MOL    H1931531   1.671   4.635   3.596 -0.7626 -1.7920 -0.0341
  157MOL    H2031532   1.782   4.549   3.486  1.3923  0.5836 -0.4866
  157MOL    H2131533   1.784   4.448   3.762  1.0876 -1.9320 -0.5610
  157MOL    C2231534   1.673   4.341   3.640 -0.6845 -0.3968 -0.3962
  157MOL    O2331535   1.618   4.316   3.529 -0.0982 -0.5108 -0.3132
  157MOL    C2431536   1.668   4.232   3.748 -0.1984  0.6138  0.9387
  157MOL    C2531537   1.539   4.142   3.763  0.2749 -0.1179 -0.0918
  157MOL    N2631538   1.437   4.196   3.853  0.0095  0.8814  0.3769
  157MOL    H2731539   1.702   4.272   3.843  1.5814  0.7044  0.2717
  157MOL    H2831540   1.753   4.169   3.722 -0.7497  0.5073 -0.6752
  157MOL    H2931541   1.500   4.132   3.662  1.7304  0.4808 -0.7282
  157MOL    H3031542   1.572   4.047   3.804 -0.8150 -0.7237 -0.5900
  157MOL    H3131543   1.458   4.217   3.949  1.0312 -0.2033  0.4131
  157MOL    C3231544   1.308   4.201   3.842  0.4338  0.6572 -0.2861
  157MOL    O3331545   1.240   4.185   3.742 -0.0446  0.3012 -0.0021
  157MOL    C3431546   1.229   4.229   3.971  0.2350  1.1922  0.8173
  157MOL    C3531547   1.083   4.282   3.941 -0.7469  0.3961  0.2740
  157MOL    N3631548   1.093   4.424   3.907 -0.4399 -0.5228 -0.5086
  157MOL    H3731549   1.274   4.306   4.034 -1.0592  1.1842  1.7764
  157MOL    H3831550   1.214   4.139   4.031  2.3595 -0.5405 -1.1503
  157MOL    H3931551   1.022   4.228   3.868 -2.9956  1.9264  1.0030
  157MOL    H4031552   1.017   4.277   4.027 -1.5491  2.2862 -0.2253
  157MOL    H4131553   1.169   4.479   3.943 -1.4703 -0.1534  1.2050
  157MOL    C4231554   0.988   4.486   3.850  0.2112 -1.1015 -0.2016
  157MOL    O4331555   0.883   4.425   3.831 -0.2678  0.2936 -0.2609
  157MOL    C4431556   0.997   4.640   3.829  0.3648  0.2692  0.0944
  157MOL    C4531557   0.866   4.693   3.759  0.2189 -0.2856 -0.5455
  157MOL    N4631558   0.876   4.836   3.727  0.2867 -0.6497  0.2888
  157MOL    H4731559   1.006   4.683   3.929  2.2454  2.1412 -0.8455
  157MOL    H4831560   1.083   4.677   3.774  0.3797  1.5628  0.9754
  157MOL    H4931561   0.854   4.647   3.661 -0.2384 -0.0438 -0.6039
  157MOL    H5031562   0.774   4.677   3.814 -1.1729  1.2101 -2.3630
  157MOL    H5131563   0.959   4.886   3.698 -2.0937  3.5002  0.1404
  157MOL    C5231564   0.774   4.925   3.742 -0.0971 -0.0436  0.1774
  157MOL    O5331565   0.665   4.889   3.785 -0.2374 -0.0134 -0.8342
  157MOL    C5431566   0.806   5.074   3.733  0.4962 -0.5870 -0.4092
  157MOL    C5531567   0.684   5.166   3.733 -0.0517  0.3027 -0.4096
  157MOL    N5631568   0.605   5.143   3.613  0.4885  0.2380 -0.1430
  157MOL    H5731569   0.879   5.105   3.808  1.6491 -1.6843 -1.0652
  157MOL    H5831570   0.856   5.082   3.636 -0.7148  1.2726 -0.9020
  157MOL    H5931571   0.711   5.270   3.753  1.0791 -0.1729  0.5917
  157MOL    H6031572   0.617   5.161   3.818  2.9487 -0.0518  2.0238
  157MOL    H6131573   0.632   5.064   3.557  2.3368  0.6417  0.1546
  157MOL    C6231574   0.510   5.222   3.574  0.3114  0.0679  0.3503
  157MOL    O6331575   0.489   5.331   3.626 -0.1577 -0.4740 -0.2879
  157MOL    C6431576   0.420   5.174   3.460 -0.4631  0.1664 -0.0894
  157MOL    C6531577   0.470   5.067   3.362 -0.2230  0.3218  0.3296
  157MOL    N6631578   0.440   4.928   3.407 -0.3304  0.0342 -0.7065
  157MOL    H6731579   0.331   5.142   3.513 -0.1744 -0.6105 -0.0788
  157MOL    H6831580   0.395   5.265   3.405 -3.3245 -0.6274 -0.2327
  157MOL    H6931581   0.430   5.097   3.265 -0.3156 -0.9667 -0.0473
  157MOL    H7031582   0.577   5.070   3.339 -0.1709 -0.6379  0.4148
  157MOL    H7131583   0.355   4.881   3.379  0.3043  0.3734 -3.2777
  157MOL    C7231584   0.533   4.849   3.470  0.2670 -0.0408 -0.0317
  157MOL    O7331585   0.648   4.880   3.475  0.5363 -0.3319  0.2536
  157MOL    C7431586   0.489   4.721   3.529 -0.4654  0.1263 -0.4398
  157MOL    C7531587   0.587   4.606   3.493 -0.2335 -0.6164 -0.1212
  157MOL    N7631588   0.540   4.478   3.537 -0.1041  0.0746  0.0607
  157MOL    H7731589   0.496   4.734   3.637 -0.7469 -1.3271 -0.2366
  157MOL    H7831590   0.386   4.692   3.507 -0.5908 -0.1830  0.5577
  157MOL    H7931591   0.608   4.605   3.386  0.6249  0.7102  0.0279
  157MOL    H8031592   0.686   4.613   3.538 -0.8994 -1.6222  1.5580
  157MOL    H8131593   0.542   4.457   3.635 -2.0198 -1.1744 -0.1424
  157MOL    C8231594   0.498   4.378   3.453 -0.3479 -0.3924  0.3355
  157MOL    O8331595   0.480   4.402   3.333  0.1259 -0.2139 -0.7487
  157MOL    C8431596   0.470   4.236   3.505 -0.4656  0.5699 -0.8050
  157MOL    C8531597   0.325   4.216   3.499  0.3268 -0.1544  0.8312
  157MOL    N8631598   0.284   4.198   3.354  0.0429  0.2069 -0.8095
  157MOL    H8731599   0.526   4.169   3.441  0.9055 -1.8035  2.7587
  157MOL    H8831600   0.510   4.220   3.605 -1.3611 -0.0886 -0.5359
  157MOL    H8931601   0.303   4.125   3.556  1.8991 -0.0541  1.6237
  157MOL    H9031602   0.271   4.297   3.547 -1.4241 -1.3930  1.0101
  157MOL    H9131603   0.352   4.187   3.281  2.5888  1.7327  1.2456
  157MOL    C9231604   0.155   4.199   3.312  0.9760  0.7721  0.2222
  157MOL    O9331605   0.052   4.217   3.383  0.3536 -0.3618 -0.7742
  157MOL    C9431606   0.146   4.159   3.164 -0.5440 -0.9272  0.1647
  157MOL    C9531607   0.007   4.116   3.119  0.1922 -0.4053 -0.0267
  157MOL    N9631608   7.733   3.987   3.169  0.1152 -0.3598  0.6122
  157MOL    H9731609   0.181   4.243   3.103 -1.0551 -1.1953 -0.5076
  157MOL    H9831610   0.216   4.080   3.133  0.6588 -0.5645  1.8699
  157MOL    H9931611   7.720   4.193   3.158  0.8502  0.1111  0.0913
  157MOL   H10031612   7.778   4.133   3.012  3.1451  0.0912 -0.2370
  157MOL   H10131613   7.642   3.990   3.211 -0.5825  0.5545 -0.9307
  157MOL   C10231614   7.778   3.866   3.130  0.6785  0.6233  0.5028
  157MOL   O10331615   0.100   3.850   3.065  0.2484 -0.2705  0.1169
  157MOL   C10431616   7.686   3.749   3.168  0.1471  0.6168  0.8652
  157MOL   C10531617   7.610   3.708   3.041  0.2156  0.3156  0.8350
  157MOL   N10631618   7.683   3.635   2.941 -0.0682  0.5382 -0.4832
  157MOL   H10731619   7.611   3.781   3.240  0.9845 -1.5925  2.7549
  157MOL   H10831620   7.743   3.666   3.209 -0.9424 -0.1716  0.7960
  157MOL   H10931621   7.523   3.650   3.069  1.5623 -3.0229 -1.5587
  157MOL   H11031622   7.581   3.800   2.990 -0.2269 -0.5855 -0.5636
  157MOL   H11131623   7.716   3.692   2.864 -2.1318  2.8947  0.3395
  157MOL   C11231624   7.676   3.502   2.924 -0.0744 -0.9231  0.4751
  157MOL   O11331625   7.637   3.427   3.016  0.7738  0.0681  0.3907
  157MOL   C11431626   7.734   3.448   2.793  0.4192 -0.0834 -0.0994
  157MOL   C11531627   7.713   3.295   2.776  0.2728  0.3336 -0.6841
  157MOL   N11631628   7.780   3.240   2.660 -0.0136  0.3513 -0.2110
  157MOL   H11731629   0.058   3.479   2.793  0.8102 -1.1810 -3.3076
  157MOL   H11831630   7.682   3.505   2.716  4.0032  1.7848 -1.2304
  157MOL   H11931631   7.741   3.248   2.870  0.7005  0.0910 -0.9312
  157MOL   H12031632   7.606   3.277   2.764  0.4831  0.1116 -2.3527
  157MOL   H12131633   7.707   3.231   2.591 -1.0323 -1.0310  1.0101
  157MOL   C12231634   0.129   3.200   2.654  0.0575  0.5764  0.0883
  157MOL   O12331635   0.169   3.141   2.555  0.3848  0.1471 -0.2243
  157MOL   C12431636   0.231   3.236   2.758 -0.0988  0.3564 -0.0599
  157MOL   C12531637   0.363   3.274   2.685  0.6090 -0.3991 -0.0481
  157MOL   N12631638   0.484   3.272   2.766  0.3075 -0.2878 -0.8238
  157MOL   H12731639   0.245   3.142   2.811  1.1850 -0.0987 -1.1720
  157MOL   H12831640   0.189   3.311   2.825  1.0051  0.6297  0.3482
  157MOL   H12931641   0.394   3.223   2.594  0.4640 -0.0653 -0.2829
  157MOL   H13031642   0.357   3.379   2.657  0.3097 -0.7927 -1.4655
  157MOL   H13131643   0.523   3.350   2.816  0.0741 -0.5170 -0.2733
  157MOL   C13231644   0.547   3.156   2.782  0.0895  0.3125  0.4336
  157MOL   O13331645   0.527   3.057   2.709  0.0138  0.5128 -0.3358
  157MOL   C13431646   0.636   3.132   2.902  0.4310 -0.1101  0.6476
  157MOL   C13531647   0.560   3.150   3.039  0.5882  0.1834 -0.4648
  157MOL   N13631648   0.571   3.278   3.109  0.0129  0.3805 -0.2935
  157MOL   H13731649   0.723   3.197   2.893 -0.0939  0.3562 -1.2976
  157MOL   H13831650   0.670   3.029   2.905 -1.6244 -0.9086 -2.0055
  157MOL   H13931651   0.454   3.129   3.022  0.3603  2.5294 -2.1354
  157MOL   H14031652   0.591   3.072   3.108  0.8237  0.3766 -0.3533
  157MOL   H14131653   0.493   3.342   3.104 -0.7087 -0.6030 -1.9612
  157MOL   C14231654   0.651   3.292   3.216  0.2218 -0.6769  0.5110
  157MOL   O14331655   0.744   3.219   3.241  0.8107 -0.1417  0.6311
  157MOL   C14431656   0.635   3.415   3.310  0.2060  0.2929  0.2236
  157MOL   C14531657   0.751   3.449   3.399  0.2266  0.3265 -0.3076
  157MOL   N14631658   0.713   3.555   3.492  0.1385 -0.0910  0.7298
  157MOL   H14731659   0.549   3.399   3.375 -1.0720  1.1840 -1.1930
  157MOL   H14831660   0.606   3.497   3.244 -0.8726 -1.9270 -2.1419
  157MOL   H14931661   0.804   3.366   3.447 -1.6110  0.7394  2.5692
  157MOL   H15031662   0.824   3.490   3.329  1.3956 -3.2555 -1.2936
  157MOL   H15131663   0.702   3.646   3.449 -1.3960 -1.1513 -1.1906
  157MOL   C15231664   0.698   3.550   3.625 -0.0687 -0.1284  0.5553
  157MOL   O15331665   0.727   3.454   3.692 -0.4071  0.0393  0.0135
  157MOL   C15431666   0.645   3.676   3.684 -0.4787  0.1832  0.5586
  157MOL   C15531667   0.727   3.737   3.810  0.7486  0.1033  0.4233
  157MOL   N15631668   0.834   3.825   3.769  0.2369 -0.4065 -0.1297
  157MOL   H15731669   0.546   3.642   3.714  0.8115 -2.2351  2.3467
  157MOL   H15831670   0.641   3.760   3.615 -0.9919  0.6873  1.1927
  157MOL   H15931671   0.644   3.793   3.854  0.2965 -0.2962  0.0868
  157MOL   H16031672   0.750   3.660   3.884 -1.0375  0.7830  1.7465
  157MOL   H16131673   0.814   3.915   3.726 -0.5304 -1.4300 -1.9632
  157MOL   C16231674   0.961   3.786   3.763  0.1036 -0.2674  0.3875
  157MOL   O16331675   1.005   3.674   3.796  0.2136 -0.1658  0.4100
  157MOL   C16431676   1.057   3.899   3.722  0.6554 -0.2831  0.1628
  157MOL   C16531677   1.178   3.860   3.652 -0.3025  0.6404 -0.7426
  157MOL   N16631678   1.234   3.966   3.575  0.6372  0.0565 -0.3618
  157MOL   H16731679   1.094   3.951   3.811 -2.4894  1.1091  0.7173
  157MOL   H16831680   1.009   3.979   3.666  0.4295 -1.1383 -0.8731
  157MOL   H16931681   1.250   3.832   3.729 -0.5604 -2.5799 -1.5857
  157MOL   H17031682   1.162   3.770   3.592  0.6525 -0.2290  0.2893
  157MOL   H17131683   1.232   4.058   3.617 -1.7540  0.0740 -0.4421
  157MOL   C17231684   1.287   3.957   3.456  0.6740  0.7433 -0.3109
  157MOL   O17331685   1.278   3.857   3.381  0.5971 -0.5468  0.3358
  157MOL   C17431686   1.348   4.087   3.397  0.5956 -0.3705 -0.4815
  157MOL   C17531687   1.374   4.080   3.247  0.0569  0.0035  0.3636
  157MOL   N17631688   1.511   4.031   3.213 -0.2096 -0.0013 -0.3824
  157MOL   H17731689   1.436   4.096   3.462 -0.7930  0.8811  1.2853
  157MOL   H17831690   1.272   4.161   3.423 -0.6856 -2.1472  1.0195
  157MOL   H17931691   1.301   4.012   3.203  1.9527 -2.0314  0.2246
  157MOL   H18031692   1.352   4.173   3.195  0.2425  0.4875  1.1509
  157MOL   H18131693   1.511   3.931   3.224 -2.0977 -0.1263 -1.3085
  157MOL   C18231694   1.607   4.098   3.142 -0.6379  0.8044 -0.7646
  157MOL   O18331695   1.605   4.220   3.120 -1.0756  0.1630 -0.1413
  157MOL   C18431696   1.723   4.018   3.093  0.3256  0.3047 -0.1640
  157MOL   C18531697   1.694   3.983   2.944 -0.2088  0.0362 -0.5894
  157MOL   N18631698   1.608   3.870   2.930 -0.0857 -0.4336 -0.2127
  157MOL   H18731699   1.748   3.927   3.147 -1.2650  0.2356  0.4846
  157MOL   H18831700   1.811   4.082   3.099  1.0616 -0.6531 -0.6482
  157MOL   H18931701   1.660   4.071   2.890 -0.8585 -1.2238 -2.2773
  157MOL   H19031702   1.785   3.955   2.890 -0.7364  1.5818 -2.3296
  157MOL   H19131703   1.587   3.814   3.011 -0.3631 -0.1111 -0.0596
  157MOL   C19231704   1.543   3.845   2.817 -0.2594 -0.4971 -0.7556
  157MOL   O19331705   1.562   3.909   2.710  0.2530 -0.4568  0.9578
  157MOL   C19431706   1.463   3.714   2.827 -0.0029 -0.1258 -0.2002
  157MOL   C19531707   1.312   3.735   2.835  0.7462 -0.0348 -0.7884
  157MOL   N19631708   1.273   3.783   2.961 -0.0189  0.5033  0.0697
  157MOL   H19731709   1.470   3.662   2.731  0.1787 -1.4258  0.5199
  157MOL   H19831710   1.494   3.650   2.909 -3.4612 -0.4418  0.9312
  157MOL   H19931711   1.272   3.805   2.761  1.4462  1.4240  0.1791
  157MOL   H20031712   1.263   3.640   2.812  2.5570 -1.4409  0.9552
  157MOL   H20131713   1.173   3.795   2.954  0.0173  0.9814  0.3697
  157MOL   H20231714   1.303   3.878   2.970 -0.2929  0.5650  0.3293
  158MOL     C131715   1.766   4.342   6.662  0.9344  0.0479 -0.1571
  158MOL     O231716   1.742   4.222   6.666 -0.7468  0.2379  0.2714
  158MOL     C331717   1.649   4.435   6.621 -0.0409  0.2144 -0.3420
  158MOL     C431718   1.681   4.536   6.521  0.1578 -0.3760 -0.3560
  158MOL     N531719   1.706   4.490   6.388 -0.4162 -0.3538  0.7964
  158MOL     H631720   1.618   4.478   6.716  0.6941  1.0386 -0.4688
  158MOL     H731721   1.581   4.363   6.576  0.5320 -0.2663 -0.4422
  158MOL     H831722   1.766   4.598   6.549  0.8585 -0.6609 -1.7778
  158MOL     H931723   1.597   4.606   6.519 -0.3713 -0.9450  1.4155
  158MOL    H1031724   1.692   4.391   6.373 -0.5781 -0.1287 -0.6539
  158MOL    H1131725   1.860   4.392   6.685  0.8234  0.9991 -1.7080
  158MOL    C1231726   1.770   4.554   6.297 -0.5611  0.5341 -0.7185
  158MOL    O1331727   1.794   4.671   6.305 -0.1133  0.1902 -0.3269
  158MOL    C1431728   1.802   4.476   6.169  0.4057  0.0860  0.4347
  158MOL    C1531729   1.696   4.457   6.066 -0.6931 -0.7458  0.1867
  158MOL    N1631730   1.578   4.394   6.112 -0.1896  0.3009 -0.6928
  158MOL    H1731731   1.842   4.377   6.190 -1.6504 -0.7938  0.2531
  158MOL    H1831732   1.888   4.528   6.126  0.1142 -0.8568 -1.3042
  158MOL    H1931733   1.681   4.561   6.037 -1.1910 -0.6261  0.8355
  158MOL    H2031734   1.736   4.410   5.977  0.2385 -1.1824  0.8241
  158MOL    H2131735   1.585   4.311   6.169 -0.0050 -0.6283 -2.0550
  158MOL    C2231736   1.456   4.437   6.108  0.5956  0.0687 -0.1423
  158MOL    O2331737   1.424   4.541   6.053  0.1004 -1.2492  0.3676
  158MOL    C2431738   1.348   4.350   6.174 -0.3092 -0.1854 -0.0361
  158MOL    C2531739   1.337   4.368   6.322 -0.0182 -0.2857 -0.4231
  158MOL    N2631740   1.244   4.270   6.376  0.0838 -0.2375  0.3734
  158MOL    H2731741   1.343   4.247   6.141  2.7993  0.3025 -2.1408
  158MOL    H2831742   1.252   4.366   6.124  1.3962 -0.5520 -3.5292
  158MOL    H2931743   1.438   4.367   6.364  0.0419  0.2259 -0.5477
  158MOL    H3031744   1.300   4.468   6.347 -0.9700 -0.1130 -2.4560
  158MOL    H3131745   1.169   4.241   6.316  2.1614  0.1423 -2.5155
  158MOL    C3231746   1.272   4.177   6.469  0.0438  0.2816  0.3066
  158MOL    O3331747   1.368   4.176   6.545 -0.3757 -0.2537  0.7940
  158MOL    C3431748   1.177   4.060   6.489 -0.3444  0.0419 -0.1512
  158MOL    C3531749   1.232   3.937   6.408  0.2586 -0.9033  0.1359
  158MOL    N3631750   1.215   3.952   6.263 -0.3812 -0.3460  0.3477
  158MOL    H3731751   1.078   4.093   6.458 -0.7051 -0.2663  0.6717
  158MOL    H3831752   1.168   4.030   6.593 -1.2150  1.2052  0.1232
  158MOL    H3931753   1.339   3.915   6.411  0.3370 -1.1178 -2.6766
  158MOL    H4031754   1.195   3.836   6.426 -0.6924 -0.6293 -0.2564
  158MOL    H4131755   1.135   4.007   6.236  1.2058  1.9862  0.1808
  158MOL    C4231756   1.271   3.885   6.167 -0.4422 -1.2239  0.6317
  158MOL    O4331757   1.367   3.810   6.192 -0.4709 -0.7591 -0.2515
  158MOL    C4431758   1.217   3.909   6.024 -1.0070  0.0378  0.0377
  158MOL    C4531759   1.312   3.969   5.919 -0.1471 -0.0592  0.5417
  158MOL    N4631760   1.241   4.004   5.797 -0.1532  0.4891 -0.3217
  158MOL    H4731761   1.176   3.815   5.987  1.8484 -2.2594  2.4097
  158MOL    H4831762   1.124   3.964   6.034 -0.0162  1.5061  1.4639
  158MOL    H4931763   1.352   4.059   5.966  0.9701  0.0600 -0.5976
  158MOL    H5031764   1.399   3.905   5.901 -0.8868 -0.6862 -0.8331
  158MOL    H5131765   1.163   3.946   5.770 -0.7735  0.0024  2.3067
  158MOL    C5231766   1.270   4.106   5.719 -0.0240  0.2245  0.0304
  158MOL    O5331767   1.356   4.188   5.750 -0.3145 -0.1417  0.6689
  158MOL    C5431768   1.188   4.118   5.596  0.3876  0.8460 -0.5263
  158MOL    C5531769   1.214   4.246   5.519  0.0226  0.4009  0.1856
  158MOL    N5631770   1.140   4.255   5.397  0.4936 -0.1213  0.2338
  158MOL    H5731771   1.208   4.027   5.539 -0.8810  1.1884 -1.5645
  158MOL    H5831772   1.088   4.116   5.639  1.7738 -0.5550  2.7801
  158MOL    H5931773   1.320   4.247   5.495 -0.0905  0.1378 -0.3182
  158MOL    H6031774   1.183   4.336   5.573  0.5664  0.9699 -0.4373
  158MOL    H6131775   1.070   4.328   5.395 -0.4299 -0.9845 -0.0988
  158MOL    C6231776   1.154   4.185   5.282 -1.1608  0.9106  0.1383
  158MOL    O6331777   1.251   4.109   5.259 -0.1730  0.6788  0.5102
  158MOL    C6431778   1.053   4.202   5.170 -0.0526 -0.1448  0.2920
  158MOL    C6531779   1.122   4.224   5.029 -0.2319  0.1008  0.4461
  158MOL    N6631780   1.022   4.234   4.927 -0.0211  0.2230  0.0585
  158MOL    H6731781   0.991   4.113   5.162  0.0316 -0.1167 -0.7927
  158MOL    H6831782   0.987   4.287   5.189  0.6251  0.5739 -0.4617
  158MOL    H6931783   1.170   4.322   5.036 -0.5573  0.4399 -1.8061
  158MOL    H7031784   1.193   4.150   4.995 -0.7379  0.2530 -0.9790
  158MOL    H7131785   0.927   4.221   4.960 -0.2880  1.8294 -0.0646
  158MOL    C7231786   1.046   4.244   4.797 -0.8584 -0.6092  0.1235
  158MOL    O7331787   1.157   4.280   4.758 -0.1700  0.4746 -0.2164
  158MOL    C7431788   0.934   4.228   4.693  0.0345  0.1351  0.5929
  158MOL    C7531789   0.858   4.360   4.661  0.6962  0.0062  0.7221
  158MOL    N7631790   0.897   4.436   4.542  0.4237  0.2469  0.3050
  158MOL    H7731791   0.980   4.181   4.606  0.3227 -2.4577  2.0970
  158MOL    H7831792   0.866   4.146   4.714  0.0866 -0.2690 -0.8038
  158MOL    H7931793   0.754   4.331   4.644  1.1091 -1.0969 -0.0176
  158MOL    H8031794   0.865   4.427   4.746  1.3264  1.2705 -0.3083
  158MOL    H8131795   0.943   4.386   4.468  0.4715  0.7919 -0.0409
  158MOL    C8231796   0.891   4.564   4.523 -0.4888  0.2094 -0.1986
  158MOL    O8331797   0.850   4.635   4.614 -0.1756  0.0622  0.2452
  158MOL    C8431798   0.932   4.616   4.385  0.3263 -0.3011  0.8609
  158MOL    C8531799   0.913   4.772   4.370 -0.1354 -0.3735  0.3994
  158MOL    N8631800   0.949   4.834   4.243  0.1388  0.4211  0.0906
  158MOL    H8731801   1.029   4.581   4.350 -0.3386 -0.6407 -0.6859
  158MOL    H8831802   0.872   4.584   4.300 -0.4821 -1.1198  1.7305
  158MOL    H8931803   0.807   4.797   4.374 -0.3896 -0.8516 -2.5308
  158MOL    H9031804   0.957   4.823   4.456 -2.2727  0.0936  1.2600
  158MOL    H9131805   0.877   4.895   4.209  0.0007 -0.5194 -1.3284
  158MOL    C9231806   1.067   4.834   4.187 -0.1230  0.2793 -0.2633
  158MOL    O9331807   1.172   4.789   4.234 -0.0694  0.4952  0.5770
  158MOL    C9431808   1.065   4.933   4.063 -0.2874 -0.2063 -0.0026
  158MOL    C9531809   1.188   4.922   3.977 -0.1544 -0.0188  0.2578
  158MOL    N9631810   1.201   5.045   3.902 -0.0421  0.0894  0.1375
  158MOL    H9731811   0.973   4.912   4.007  0.4081 -1.8374 -0.5783
  158MOL    H9831812   1.043   5.030   4.108  3.3565  0.5920  0.1858
  158MOL    H9931813   1.275   4.912   4.043  1.2272  2.1116 -1.1976
  158MOL   H10031814   1.178   4.836   3.910  0.2721  1.0313 -1.1614
  158MOL   H10131815   1.226   5.123   3.961 -1.0255 -0.2719  1.0345
  158MOL   C10231816   1.193   5.064   3.770 -0.1383  0.8364  0.0336
  158MOL   O10331817   1.150   4.981   3.693  0.2263  0.4844 -0.1809
  158MOL   C10431818   1.219   5.206   3.726 -1.3009  0.7672  0.2629
  158MOL   C10531819   1.357   5.211   3.660 -0.2868  0.0544  0.0788
  158MOL   N10631820   1.469   5.234   3.751  0.3213 -0.4018  0.1998
  158MOL   H10731821   1.203   5.273   3.810  0.6678  1.2664  0.2602
  158MOL   H10831822   1.128   5.223   3.667 -1.9238  0.4546  1.1257
  158MOL   H10931823   1.366   5.122   3.597 -2.5294 -1.2816  1.5520
  158MOL   H11031824   1.365   5.294   3.591  0.6474  1.0311  1.3361
  158MOL   H11131825   1.459   5.293   3.832  1.3205  1.4572 -0.9693
  158MOL   C11231826   1.590   5.179   3.718 -0.4995 -0.6561 -0.4722
  158MOL   O11331827   1.606   5.103   3.617 -0.1836  0.0857  0.4932
  158MOL   C11431828   1.709   5.207   3.803 -0.3559 -0.7834  0.0342
  158MOL   C11531829   1.846   5.247   3.744  0.3146  0.1140  0.2923
  158MOL   N11631830   1.916   5.151   3.657 -0.4799 -0.2000  0.3073
  158MOL   H11731831   1.721   5.116   3.861  1.5181 -1.0163 -0.6837
  158MOL   H11831832   1.673   5.291   3.862  0.2993  0.1142 -0.8280
  158MOL   H11931833   1.826   5.341   3.692  1.6589  0.9205  1.2108
  158MOL   H12031834   1.904   5.289   3.825  1.3171  2.0682 -1.4095
  158MOL   H12131835   1.871   5.082   3.598  0.2441 -1.0380  0.7124
  158MOL   C12231836   2.047   5.114   3.668  0.0925 -0.7768 -0.9686
  158MOL   O12331837   2.123   5.156   3.753 -0.1789  0.0055  0.1955
  158MOL   C12431838   2.090   5.004   3.573 -0.1456  0.3766  0.2196
  158MOL   C12531839   2.221   4.930   3.603  0.3259 -0.0569  0.3321
  158MOL   N12631840   2.238   4.808   3.531  1.0480 -0.4884  0.0728
  158MOL   H12731841   2.085   5.037   3.469 -0.4072 -0.0595  0.0931
  158MOL   H12831842   2.004   4.937   3.572  0.5619 -0.5553  0.5715
  158MOL   H12931843   2.307   4.996   3.598  0.6930 -0.4183  1.6513
  158MOL   H13031844   2.224   4.910   3.710  1.2665  2.2226  0.7642
  158MOL   H13131845   2.248   4.809   3.431  0.2241  0.1213 -0.0096
  158MOL   C13231846   2.243   4.687   3.586 -0.3154 -0.2421  0.0663
  158MOL   O13331847   2.231   4.667   3.706  0.4633 -0.3230  0.1787
  158MOL   C13431848   2.259   4.573   3.491 -0.9241 -0.6133  0.8796
  158MOL   C13531849   2.383   4.487   3.526 -0.0435 -0.0215  1.0499
  158MOL   N13631850   2.514   4.529   3.463 -0.3549 -0.0207 -0.3883
  158MOL   H13731851   2.270   4.607   3.388 -1.5172  2.4301  1.8013
  158MOL   H13831852   2.170   4.510   3.487 -0.6873 -0.8875 -0.5754
  158MOL   H13931853   2.394   4.484   3.634  0.1369 -2.8692  0.9774
  158MOL   H14031854   2.351   4.387   3.495  0.1983  0.4155 -0.7017
  158MOL   H14131855   2.547   4.471   3.387 -0.7917 -1.1316  0.2647
  158MOL   C14231856   2.612   4.589   3.529  0.3586 -0.2106  0.2753
  158MOL   O14331857   2.603   4.631   3.643 -0.1531 -0.4930 -0.5118
  158MOL   C14431858   2.750   4.581   3.461 -0.2292  0.3379 -0.5241
  158MOL   C14531859   2.865   4.530   3.553 -0.3521  0.4775  0.5987
  158MOL   N14631860   2.901   4.630   3.660 -0.7086  0.3094  0.0963
  158MOL   H14731861   2.780   4.682   3.432 -1.2403  0.7079 -0.3364
  158MOL   H14831862   2.747   4.534   3.363 -0.2378 -0.0364 -0.3451
  158MOL   H14931863   2.836   4.446   3.616  2.3212 -1.1041 -0.1779
  158MOL   H15031864   2.960   4.519   3.501  0.4132 -0.7646  2.2027
  158MOL   H15131865   2.830   4.640   3.731  0.8374 -0.9295  1.8812
  158MOL   C15231866   3.014   4.705   3.662  0.2659  0.7389 -0.0766
  158MOL   O15331867   3.107   4.686   3.591  0.2581  0.1567 -0.1361
  158MOL   C15431868   3.030   4.803   3.775 -0.4567 -0.1539  1.4112
  158MOL   C15531869   3.098   4.739   3.893 -0.5778  0.9137 -0.0321
  158MOL   N15631870   3.043   4.775   4.028 -0.0217  0.6754  0.3147
  158MOL   H15731871   2.940   4.857   3.805 -0.6306  0.4085 -0.0738
  158MOL   H15831872   3.100   4.876   3.734  0.4511 -1.5482  0.4554
  158MOL   H15931873   3.095   4.631   3.881  1.0945  0.8401  0.0640
  158MOL   H16031874   3.203   4.770   3.898 -0.9750  2.2819  0.0907
  158MOL   H16131875   2.980   4.854   4.022 -0.3144  0.3598 -0.9252
  158MOL   C16231876   3.063   4.694   4.136 -0.5503 -0.8313 -0.3567
  158MOL   O16331877   3.141   4.595   4.129 -0.1321  0.2244  0.1574
  158MOL   C16431878   2.989   4.735   4.258 -0.3475 -0.0504  0.0085
  158MOL   C16531879   2.982   4.622   4.360  0.1094  0.1802  0.1431
  158MOL   N16631880   3.109   4.596   4.422 -0.2085  0.6616  0.3605
  158MOL   H16731881   2.891   4.778   4.235  0.4585  1.7530 -0.1350
  158MOL   H16831882   3.045   4.817   4.302  0.0843 -0.7162  0.7015
  158MOL   H16931883   2.911   4.635   4.442  0.7873  1.4153  0.5453
  158MOL   H17031884   2.939   4.532   4.315 -0.1262 -1.2561  3.1265
  158MOL   H17131885   3.167   4.521   4.386  2.0703  2.4142  0.2921
  158MOL   C17231886   3.159   4.670   4.521  0.6244 -0.3162 -0.7121
  158MOL   O17331887   3.094   4.757   4.579 -0.3049  0.5965  0.2669
  158MOL   C17431888   3.300   4.627   4.573  0.3628  0.1742 -0.0367
  158MOL   C17531889   3.374   4.741   4.635 -0.2612 -0.8550 -0.0797
  158MOL   N17631890   3.382   4.868   4.555  0.0036 -0.5659  0.3018
  158MOL   H17731891   3.352   4.575   4.493  0.3573 -0.2160  0.2110
  158MOL   H17831892   3.287   4.554   4.653  1.0124  2.8925  2.6701
  158MOL   H17931893   3.321   4.777   4.723 -0.8410  2.3465 -1.6566
  158MOL   H18031894   3.473   4.714   4.670 -0.9754 -1.6491  1.3649
  158MOL   H18131895   3.295   4.900   4.513  1.7025  3.5236 -0.3321
  158MOL   C18231896   3.490   4.935   4.521  0.3360  0.5753 -0.3276
  158MOL   O18331897   3.598   4.916   4.571 -0.1267 -0.5717  0.1707
  158MOL   C18431898   3.475   5.040   4.408  0.1092  0.0632  0.1032
  158MOL   C18531899   3.352   5.135   4.414  0.4946 -0.2452  0.5933
  158MOL   N18631900   3.362   5.216   4.528  0.0874  0.2844  0.1646
  158MOL   H18731901   3.477   4.990   4.312  1.9033  0.8031 -0.2725
  158MOL   H18831902   3.566   5.099   4.395  1.1427 -1.7586 -1.1556
  158MOL   H18931903   3.345   5.193   4.321 -1.7193 -1.3654  0.0121
  158MOL   H19031904   3.268   5.066   4.400  1.7854 -1.1656 -3.2682
  158MOL   H19131905   3.442   5.204   4.588  1.5032 -0.2540 -1.7921
  158MOL   C19231906   3.258   5.302   4.563  0.1912  0.1818  0.2828
  158MOL   O19331907   3.151   5.304   4.500 -0.2901  0.0898  0.8284
  158MOL   C19431908   3.268   5.394   4.680  0.7884  0.0791 -0.7164
  158MOL   C19531909   3.211   5.534   4.669 -0.1035 -0.7807 -0.3682
  158MOL   N19631910   3.272   5.618   4.560  0.4011 -0.2301 -0.0835
  158MOL   H19731911   3.231   5.345   4.769  1.2015 -1.3174 -1.3064
  158MOL   H19831912   3.373   5.399   4.710  0.3440  0.8391  0.7318
  158MOL   H19931913   3.102   5.539   4.665 -0.1016  1.3731  1.2829
  158MOL   H20031914   3.229   5.579   4.766  0.3971 -2.0283  0.1338
  158MOL   H20131915   3.372   5.606   4.571  0.4557 -0.0216 -0.3452
  158MOL   H20231916   3.256   5.715   4.583  2.5453  0.8054 -2.6728
  159MOL     C131917   6.667   3.387   6.013 -0.1404 -0.7019 -0.1392
  159MOL     O231918   6.743   3.484   5.987 -0.1913 -0.1102  0.4543
  159MOL     C331919   6.518   3.395   5.985 -0.1698  0.3010  0.5102
  159MOL     C431920   6.482   3.519   5.910 -0.1662 -0.4443 -0.4695
  159MOL     N531921   6.533   3.515   5.770  0.1229 -0.3725 -0.0926
  159MOL     H631922   6.454   3.404   6.072 -2.1251  2.7032 -1.0721
  159MOL     H731923   6.491   3.305   5.930 -0.0629  0.8353 -0.4407
  159MOL     H831924   6.533   3.604   5.956 -2.3659  0.0630  1.1017
  159MOL     H931925   6.376   3.538   5.892 -0.5431 -0.6244  1.4671
  159MOL    H1031926   6.582   3.595   5.732  1.0604 -0.6106  0.6057
  159MOL    H1131927   6.709   3.292   6.047  0.9537 -0.1757  0.0159
  159MOL    C1231928   6.500   3.426   5.678  0.2289 -0.4164  0.1144
  159MOL    O1331929   6.415   3.337   5.694  0.2904 -0.1272 -0.5819
  159MOL    C1431930   6.590   3.422   5.554  0.0687  0.0801  0.2338
  159MOL    C1531931   6.529   3.493   5.433 -1.0932 -0.0490  0.0995
  159MOL    N1631932   6.389   3.476   5.405  0.2911  0.4791  0.3493
  159MOL    H1731933   6.595   3.315   5.533  0.7930  0.3539 -1.0414
  159MOL    H1831934   6.692   3.440   5.590 -0.5633  0.9252  1.6315
  159MOL    H1931935   6.543   3.601   5.443  1.1456 -0.4313  1.4714
  159MOL    H2031936   6.586   3.464   5.345 -0.9786  0.2289  0.0808
  159MOL    H2131937   6.322   3.502   5.477 -0.4367  1.1145 -0.5517
  159MOL    C2231938   6.332   3.454   5.293  0.9306  0.3328  0.5965
  159MOL    O2331939   6.399   3.427   5.190 -0.2503  0.3535  0.0731
  159MOL    C2431940   6.179   3.459   5.302 -0.1840  0.2593 -0.2511
  159MOL    C2531941   6.109   3.454   5.161 -0.4330  0.5765 -0.1238
  159MOL    N2631942   5.976   3.516   5.166 -0.0470 -0.1666  0.3198
  159MOL    H2731943   6.160   3.551   5.358  0.5561  1.4907 -1.9505
  159MOL    H2831944   6.135   3.387   5.371 -2.7506  1.8285 -0.1859
  159MOL    H2931945   6.164   3.508   5.084 -0.2368  0.8697  0.2192
  159MOL    H3031946   6.115   3.355   5.116  0.7128  1.9661 -3.0893
  159MOL    H3131947   5.982   3.609   5.204 -0.6531 -1.3992  3.6244
  159MOL    C3231948   5.875   3.482   5.087  0.3080  0.0926 -0.2531
  159MOL    O3331949   5.881   3.380   5.022 -0.2966  0.3830  0.0073
  159MOL    C3431950   5.753   3.572   5.077 -0.1163  0.4844 -0.2438
  159MOL    C3531951   5.713   3.638   4.945 -0.6281 -0.1800  0.2800
  159MOL    N3631952   5.822   3.724   4.894  0.2050  0.2693 -0.5446
  159MOL    H3731953   5.762   3.648   5.154  1.5161 -0.8320  0.8891
  159MOL    H3831954   5.663   3.511   5.087  0.1677 -0.1861 -1.6841
  159MOL    H3931955   5.686   3.563   4.871 -0.8075 -2.3212  2.4513
  159MOL    H4031956   5.619   3.692   4.957  0.0743  1.4052 -1.1304
  159MOL    H4131957   5.882   3.683   4.824 -0.9828 -1.7209 -0.4460
  159MOL    C4231958   5.856   3.844   4.944 -0.4034 -0.4944  0.4157
  159MOL    O4331959   5.800   3.897   5.043 -0.4741  0.5572 -0.1818
  159MOL    C4431960   5.975   3.910   4.871  0.1775  0.5794 -0.2439
  159MOL    C4531961   6.034   4.037   4.937  0.3156 -0.2996 -0.3431
  159MOL    N4631962   5.962   4.156   4.892  0.1041  0.8345  0.0046
  159MOL    H4731963   6.059   3.840   4.876  0.6917  1.1572 -0.7423
  159MOL    H4831964   5.942   3.911   4.767  3.3577  0.2700 -1.3149
  159MOL    H4931965   6.021   4.016   5.044 -0.1789  0.8591 -0.1689
  159MOL    H5031966   6.141   4.053   4.921  0.8629  0.0514  3.2174
  159MOL    H5131967   5.893   4.195   4.954 -0.4100 -0.7825  0.4604
  159MOL    C5231968   5.975   4.207   4.771  1.4983  0.0029  0.1428
  159MOL    O5331969   6.057   4.170   4.689  0.3835 -0.7372  0.1380
  159MOL    C5431970   5.876   4.313   4.732  0.3778  0.2109  0.0801
  159MOL    C5531971   5.924   4.404   4.617  0.0266  0.3645  0.3935
  159MOL    N5631972   6.003   4.516   4.668 -0.4472 -0.1963  0.1119
  159MOL    H5731973   5.788   4.255   4.701  0.9299 -1.1206  0.9557
  159MOL    H5831974   5.836   4.356   4.824  1.4961  0.0411  0.6543
  159MOL    H5931975   5.833   4.449   4.576 -0.1366  0.0151  0.3712
  159MOL    H6031976   5.984   4.360   4.537  1.4152  3.1319 -0.1536
  159MOL    H6131977   5.972   4.566   4.750  0.0337  1.1396 -0.4986
  159MOL    C6231978   6.111   4.571   4.604  0.2267  0.3015  0.2076
  159MOL    O6331979   6.151   4.532   4.496  0.9214  0.0831  0.2477
  159MOL    C6431980   6.192   4.677   4.679 -0.7400 -0.8028  0.5358
  159MOL    C6531981   6.322   4.720   4.610 -0.1849  0.3404  0.0083
  159MOL    N6631982   6.313   4.842   4.524  0.6244 -0.4222  0.5180
  159MOL    H6731983   6.134   4.769   4.681  0.0785 -0.2603 -0.3875
  159MOL    H6831984   6.217   4.645   4.780  1.8761  0.4574  0.3196
  159MOL    H6931985   6.398   4.736   4.686 -0.0975 -1.8358  0.3889
  159MOL    H7031986   6.363   4.637   4.553 -1.5535 -1.4574  1.5836
  159MOL    H7131987   6.225   4.871   4.485 -0.0432 -0.5358  1.8937
  159MOL    C7231988   6.416   4.923   4.496 -0.5806  1.3008  0.5668
  159MOL    O7331989   6.532   4.898   4.536  0.4804  0.3329  0.1966
  159MOL    C7431990   6.370   5.056   4.434  0.0329  0.1804 -0.4556
  159MOL    C7531991   6.485   5.161   4.413  0.0841  0.6855  0.6829
  159MOL    N7631992   6.564   5.117   4.298 -0.1832 -0.3252  0.0834
  159MOL    H7731993   6.328   5.033   4.336 -0.5038  2.6243 -0.8279
  159MOL    H7831994   6.292   5.102   4.495 -1.4502  0.8637 -2.8013
  159MOL    H7931995   6.448   5.262   4.399 -1.8517 -0.3258 -1.9470
  159MOL    H8031996   6.550   5.164   4.501  1.5544 -2.7872 -0.2104
  159MOL    H8131997   6.515   5.065   4.228 -2.1353 -0.2608  1.3591
  159MOL    C8231998   6.698   5.122   4.286 -0.2943  0.1900 -0.1270
  159MOL    O8331999   6.772   5.179   4.372  0.0036 -0.1677  0.0170
  159MOL    C8432000   6.768   5.049   4.175  0.0499  0.4171 -0.4167
  159MOL    C8532001   6.869   5.137   4.097 -0.1495 -0.2469 -0.3505
  159MOL    N8632002   6.959   5.042   4.032  0.0766  0.5324 -0.2760
  159MOL    H8732003   6.836   4.985   4.231  0.4736  0.4692 -0.8701
  159MOL    H8832004   6.701   4.993   4.109 -1.4616  1.1069  0.5081
  159MOL    H8932005   6.812   5.191   4.021  0.2923 -0.3733 -0.7757
  159MOL    H9032006   6.933   5.210   4.147  1.3450 -0.7366 -1.4929
  159MOL    H9132007   7.014   4.985   4.095 -2.3276  0.4735  1.8125
  159MOL    C9232008   6.990   5.041   3.906 -0.0769  0.0275 -0.7235
  159MOL    O9332009   6.948   5.117   3.814  0.7934 -0.6853 -0.9114
  159MOL    C9432010   7.107   4.945   3.876 -0.1225  0.1694 -0.5747
  159MOL    C9532011   7.069   4.796   3.872 -0.2226  0.1695  0.3979
  159MOL    N9632012   6.925   4.773   3.835 -0.3576 -0.4168  0.1595
  159MOL    H9732013   7.158   4.968   3.783  2.0062 -0.8404  0.3127
  159MOL    H9832014   7.180   4.961   3.956 -1.1440 -0.2662  0.4733
  159MOL    H9932015   7.127   4.740   3.798  0.6290 -0.9708  1.8832
  159MOL   H10032016   7.096   4.744   3.964 -0.5523 -0.3607  0.2054
  159MOL   H10132017   6.890   4.802   3.745 -1.4717 -1.2700  0.3015
  159MOL   C10232018   6.841   4.722   3.926  0.4679 -0.1370  0.9125
  159MOL   O10332019   6.870   4.701   4.046  0.7347 -0.3868 -0.3538
  159MOL   C10432020   6.699   4.690   3.867 -0.4723 -0.0851 -0.4429
  159MOL   C10532021   6.593   4.799   3.886 -0.2554  0.3784 -0.0093
  159MOL   N10632022   6.615   4.920   3.810 -0.3321 -0.8054  0.0096
  159MOL   H10732023   6.676   4.594   3.912 -2.2956  0.1013 -0.9473
  159MOL   H10832024   6.705   4.673   3.760  0.2405 -2.9398  0.0084
  159MOL   H10932025   6.492   4.769   3.856  0.3391 -2.5818  0.7061
  159MOL   H11032026   6.585   4.821   3.992 -0.6741 -0.2484  0.0971
  159MOL   H11132027   6.665   4.907   3.723 -1.4131  0.6654 -0.8472
  159MOL   C11232028   6.572   5.043   3.855 -0.0767  0.3046 -0.4725
  159MOL   O11332029   6.510   5.062   3.962 -0.3146  0.0783  0.4313
  159MOL   C11432030   6.603   5.156   3.761 -0.9917  0.0552  0.1219
  159MOL   C11532031   6.577   5.295   3.815 -0.2020 -0.1228 -0.6419
  159MOL   N11632032   6.610   5.416   3.734 -0.2367 -0.3140  0.0815
  159MOL   H11732033   6.550   5.136   3.668 -0.8479  1.0774 -0.1934
  159MOL   H11832034   6.707   5.154   3.729 -0.4081  2.6649  1.6849
  159MOL   H11932035   6.469   5.281   3.827  0.2568 -2.2283  1.4555
  159MOL   H12032036   6.610   5.319   3.917 -1.0230  1.3152 -0.6910
  159MOL   H12132037   6.698   5.439   3.692 -0.5628  0.2079 -0.3251
  159MOL   C12232038   6.520   5.504   3.696 -0.1751  0.2082  0.2851
  159MOL   O12332039   6.403   5.473   3.688  0.5587 -0.0337 -0.0994
  159MOL   C12432040   6.557   5.646   3.662 -0.2063  0.3801  0.1878
  159MOL   C12532041   6.471   5.754   3.734 -0.1134 -0.1019  0.2314
  159MOL   N12632042   6.326   5.745   3.707 -0.3145  0.3473  0.2568
  159MOL   H12732043   6.550   5.646   3.553 -1.4680 -1.0351  0.2449
  159MOL   H12832044   6.664   5.658   3.676  0.0110  0.6344 -1.5478
  159MOL   H12932045   6.483   5.730   3.839  1.1701 -0.2210  0.0600
  159MOL   H13032046   6.509   5.854   3.719 -0.7906  0.2702  0.9416
  159MOL   H13132047   6.289   5.654   3.730  2.2319 -0.5481  1.0396
  159MOL   C13232048   6.260   5.831   3.623  0.0697  1.0115 -0.3298
  159MOL   O13332049   6.307   5.938   3.596 -0.2656 -0.4971 -0.0339
  159MOL   C13432050   6.116   5.799   3.577 -0.2103 -0.0143  1.2261
  159MOL   C13532051   6.005   5.835   3.674  0.2298  0.0092  0.2027
  159MOL   N13632052   5.946   5.721   3.735 -0.1224 -0.5045 -0.3327
  159MOL   H13732053   6.103   5.693   3.555 -0.0556 -0.1000  1.5372
  159MOL   H13832054   6.092   5.846   3.482 -1.0167 -3.1262 -0.1807
  159MOL   H13932055   6.044   5.903   3.750  0.9680  0.5845 -0.6811
  159MOL   H14032056   5.927   5.887   3.619  0.5810  0.1157 -0.1932
  159MOL   H14132057   5.869   5.677   3.687  1.5903 -0.3563 -3.3979
  159MOL   C14232058   5.991   5.655   3.839  0.1045 -0.0121  0.0277
  159MOL   O14332059   6.086   5.696   3.906  0.3342  0.0661 -0.1878
  159MOL   C14432060   5.894   5.555   3.897 -0.4108  0.7826  0.4659
  159MOL   C14532061   5.882   5.431   3.815 -0.4729  0.6418  1.1306
  159MOL   N14632062   5.786   5.425   3.701 -0.4741 -0.3087 -0.1790
  159MOL   H14732063   5.794   5.592   3.923 -0.7719  0.4435 -0.4422
  159MOL   H14832064   5.939   5.528   3.993 -0.9302  1.7787  1.0002
  159MOL   H14932065   5.976   5.410   3.763 -0.6177 -0.0356  1.1489
  159MOL   H15032066   5.862   5.347   3.881 -0.4316 -1.0537 -0.9569
  159MOL   H15132067   5.703   5.371   3.722 -0.3304  0.3238  2.1174
  159MOL   C15232068   5.806   5.459   3.575 -0.2757  0.9820  0.1908
  159MOL   O15332069   5.917   5.503   3.546  0.4149 -0.4848 -0.3806
  159MOL   C15432070   5.700   5.415   3.479  0.0443  0.2786  0.2626
  159MOL   C15532071   5.753   5.338   3.355 -0.0861 -0.2314 -0.2422
  159MOL   N15632072   5.795   5.198   3.380 -0.0804  0.9494 -0.3836
  159MOL   H15732073   5.631   5.498   3.465  0.8766  0.6145 -2.0240
  159MOL   H15832074   5.640   5.340   3.531 -1.9155  0.4331 -1.6996
  159MOL   H15932075   5.676   5.348   3.278 -0.5464 -2.1192 -0.0608
  159MOL   H16032076   5.837   5.385   3.305 -0.1450 -1.4088 -1.4618
  159MOL   H16132077   5.754   5.149   3.458  0.1703  0.8871 -0.2880
  159MOL   C16232078   5.874   5.127   3.296  0.3637 -0.6669  0.3733
  159MOL   O16332079   5.935   5.183   3.201  0.3140  0.4547  0.0918
  159MOL   C16432080   5.897   4.978   3.324 -0.2046  0.4314  0.0186
  159MOL   C16532081   5.907   4.886   3.198  0.3805 -0.0937  0.3146
  159MOL   N16632082   5.780   4.893   3.123 -0.3043 -0.2139  0.2056
  159MOL   H16732083   5.814   4.935   3.381 -0.9996 -0.2527 -1.5964
  159MOL   H16832084   5.991   4.961   3.375 -0.1441  3.0949  0.8320
  159MOL   H16932085   5.994   4.917   3.139 -1.0290  0.6419 -1.4357
  159MOL   H17032086   5.929   4.782   3.221  1.1752  0.7424  3.4930
  159MOL   H17132087   5.693   4.902   3.173 -0.3537  2.1055 -0.2341
  159MOL   C17232088   5.772   4.923   2.992 -0.2590 -0.5070  0.0360
  159MOL   O17332089   5.869   4.928   2.915  0.4636 -0.2159  0.2589
  159MOL   C17432090   5.633   4.965   2.944  0.0133  1.0584 -0.4893
  159MOL   C17532091   5.634   5.037   2.815  0.0178  0.4339  0.1657
  159MOL   N17632092   5.495   5.100   2.801  0.0551  0.0844 -0.6662
  159MOL   H17732093   5.597   5.025   3.028  2.7196  0.5489  1.0788
  159MOL   H17832094   5.565   4.881   2.932  1.6147 -0.1919 -0.8933
  159MOL   H17932095   5.712   5.113   2.814  0.0819  0.3592 -0.7291
  159MOL   H18032096   5.655   4.969   2.732  1.6233  1.5255 -0.3282
  159MOL   H18132097   5.491   5.201   2.812 -1.7104  0.4012 -3.4770
  159MOL   C18232098   5.389   5.030   2.775  0.3464 -0.5569 -0.3863
  159MOL   O18332099   5.389   4.911   2.745  0.2330 -0.1917  0.2536
  159MOL   C18432100   5.255   5.099   2.774  0.1109  0.0452 -0.1161
  159MOL   C18532101   5.132   5.003   2.737  0.4284  0.0380 -0.5656
  159MOL   N18632102   5.011   5.070   2.775  0.4122 -0.6882  0.0719
  159MOL   H18732103   5.242   5.183   2.707 -1.2881  0.2436  0.3809
  159MOL   H18832104   5.226   5.154   2.864  1.0550  1.2336 -0.5297
  159MOL   H18932105   5.122   4.983   2.630  1.2678 -1.3885 -0.3878
  159MOL   H19032106   5.142   4.910   2.792 -0.5848  0.2511 -0.0194
  159MOL   H19132107   5.013   5.162   2.817 -2.6296 -1.5352  2.2512
  159MOL   C19232108   4.891   5.017   2.767 -0.2828  0.2942  0.3194
  159MOL   O19332109   4.871   4.900   2.725 -0.2996  0.1750 -0.0557
  159MOL   C19432110   4.783   5.100   2.832 -0.1516 -0.8177  0.4643
  159MOL   C19532111   4.716   5.010   2.938 -0.4332 -0.0964  0.0043
  159MOL   N19632112   4.635   5.091   3.022  0.4095  0.4846 -0.0901
  159MOL   H19732113   4.814   5.192   2.880 -0.4932 -0.9874  1.0121
  159MOL   H19832114   4.719   5.128   2.748  0.3640 -0.4680  0.1825
  159MOL   H19932115   4.642   4.938   2.902 -0.3985 -1.3998  2.4602
  159MOL   H20032116   4.797   4.960   2.992 -0.0690 -0.5462 -0.9239
  159MOL   H20132117   4.604   5.026   3.093 -1.8341  1.2284 -0.3351
  159MOL   H20232118   4.561   5.149   2.984 -1.3705  0.7270  3.4852
  160MOL     C132119   2.719   1.355   4.187 -0.2982 -0.2068  0.4239
  160MOL     O232120   2.705   1.349   4.306 -0.0404  0.3956  0.1714
  160MOL     C332121   2.606   1.407   4.102  0.0547 -0.7902 -0.0153
  160MOL     C432122   2.572   1.321   3.982  0.9251 -0.1175  0.1868
  160MOL     N532123   2.511   1.197   4.024  0.6437  0.0341  0.1700
  160MOL     H632124   2.639   1.501   4.058  1.9930 -0.9243  1.1068
  160MOL     H732125   2.520   1.421   4.167 -0.5657  0.8780 -1.1574
  160MOL     H832126   2.665   1.291   3.932  2.1203  1.5128  1.3822
  160MOL     H932127   2.504   1.377   3.918  2.1005 -0.2806 -1.2476
  160MOL    H1032128   2.533   1.168   4.118 -5.4541 -2.6058  1.0322
  160MOL    H1132129   2.814   1.338   4.137  0.5974  1.0350  1.6886
  160MOL    C1232130   2.442   1.118   3.935  0.2039  0.7634  0.1081
  160MOL    O1332131   2.425   1.154   3.816 -0.3942  0.6251  0.1239
  160MOL    C1432132   2.392   0.981   3.987  0.0177 -0.2529  0.2042
  160MOL    C1532133   2.278   0.921   3.898 -0.6920  0.3470  0.0073
  160MOL    N1632134   2.321   0.824   3.803  0.0465 -0.2336 -0.3146
  160MOL    H1732135   2.361   0.978   4.092 -5.0298 -0.5940 -1.1877
  160MOL    H1832136   2.475   0.911   3.984  1.7642  1.7911 -0.5588
  160MOL    H1932137   2.198   0.882   3.962 -0.6227 -0.0568 -0.1509
  160MOL    H2032138   2.228   0.997   3.838 -2.9468 -1.6912 -0.8101
  160MOL    H2132139   2.382   0.855   3.729 -0.5477  2.2454  0.1918
  160MOL    C2232140   2.305   0.692   3.819 -0.0541  0.4060  0.1103
  160MOL    O2332141   2.244   0.630   3.912 -0.4088 -0.0072 -0.1250
  160MOL    C2432142   2.360   0.614   3.698  0.0265  0.4155  0.2123
  160MOL    C2532143   2.367   0.463   3.720 -0.0591 -0.2915  0.3055
  160MOL    N2632144   2.429   0.401   3.601 -0.0157  0.5934  0.1230
  160MOL    H2732145   2.445   0.664   3.653 -1.3941  3.1962  0.5302
  160MOL    H2832146   2.279   0.625   3.626  0.6253  0.0072 -0.5200
  160MOL    H2932147   2.423   0.436   3.810  0.8952 -0.3483 -0.3037
  160MOL    H3032148   2.272   0.417   3.745 -1.9670  2.9309 -0.7722
  160MOL    H3132149   2.452   0.456   3.520  1.0679  0.2278  0.1742
  160MOL    C3232150   2.453   0.268   3.589  0.0378  0.1791 -0.1327
  160MOL    O3332151   2.451   0.194   3.691 -0.3384  0.3240 -0.2401
  160MOL    C3432152   2.486   0.214   3.447 -0.5603 -0.0751 -0.5287
  160MOL    C3532153   2.582   0.100   3.448 -0.6280  0.3804 -1.0366
  160MOL    N3632154   2.644   0.072   3.319  0.0946  0.5074  0.3061
  160MOL    H3732155   2.523   0.293   3.382 -0.4230 -1.1803 -1.8371
  160MOL    H3832156   2.388   0.194   3.403 -0.8533  2.1268 -0.9619
  160MOL    H3932157   2.664   0.131   3.513 -2.8138 -0.2272  2.1130
  160MOL    H4032158   2.538   0.013   3.496  0.9769 -1.0302 -2.0798
  160MOL    H4132159   2.588   0.044   3.240  0.3799 -2.1721  0.9904
  160MOL    C4232160   2.776   0.041   3.288  1.1365 -0.1164  0.2715
  160MOL    O4332161   2.858   0.068   3.367 -0.0697  0.3473  0.4291
  160MOL    C4432162   2.797   7.740   3.159  0.0217 -0.7552  0.0944
  160MOL    C4532163   2.919   7.657   3.156 -0.6327  0.6512 -0.0687
  160MOL    N4632164   2.926   7.581   3.034  0.2153  0.5751 -0.2102
  160MOL    H4732165   2.717   7.667   3.150  0.3580 -1.0372 -0.6778
  160MOL    H4832166   2.798   0.022   3.069 -1.8705 -1.5520 -0.4992
  160MOL    H4932167   3.004   7.724   3.166 -1.2461  1.1893  1.8598
  160MOL    H5032168   2.930   7.586   3.239  1.7742 -0.8946 -1.6360
  160MOL    H5132169   2.847   7.579   2.971  0.9151 -1.4149 -1.0841
  160MOL    C5232170   3.039   7.529   2.986  0.1115 -0.6741 -0.3778
  160MOL    O5332171   3.144   7.514   3.053 -0.2459 -0.0638 -0.2736
  160MOL    C5432172   3.035   7.473   2.849 -0.1193  0.5700  0.0811
  160MOL    C5532173   2.994   7.328   2.838  0.1773  0.1035  0.2613
  160MOL    N5632174   2.846   7.302   2.845 -0.6635  0.5262 -0.1171
  160MOL    H5732175   2.973   7.547   2.799  0.8086  1.4996  0.2741
  160MOL    H5832176   3.136   7.474   2.808  0.0609 -0.4617  0.4912
  160MOL    H5932177   3.046   7.267   2.911 -1.2185 -2.0896 -0.5155
  160MOL    H6032178   3.039   7.297   2.744  2.0081  1.6130  0.6173
  160MOL    H6132179   2.799   7.288   2.934  0.6872  0.3570  0.5846
  160MOL    C6232180   2.759   7.294   2.740 -0.1121 -0.8051  0.4248
  160MOL    O6332181   2.798   7.321   2.628  0.4896  0.4108 -0.2226
  160MOL    C6432182   2.625   7.247   2.771 -0.4303  0.5612  0.1434
  160MOL    C6532183   2.590   7.101   2.725  0.1037 -0.3482  0.1383
  160MOL    N6632184   2.454   7.056   2.766  0.1815 -0.2751  0.1139
  160MOL    H6732185   2.598   7.255   2.876 -2.0212 -0.7211 -0.1416
  160MOL    H6832186   2.557   7.315   2.721 -1.4387 -0.6155 -0.1197
  160MOL    H6932187   2.586   7.094   2.616 -0.7138 -2.2972  0.2676
  160MOL    H7032188   2.661   7.026   2.760 -1.8423 -0.2632  4.5906
  160MOL    H7132189   2.402   7.132   2.808 -1.0257 -0.5138 -0.9166
  160MOL    C7232190   2.405   6.937   2.745  0.1036  0.1572  0.1093
  160MOL    O7332191   2.469   6.857   2.675  0.5308  0.3645  0.0457
  160MOL    C7432192   2.267   6.895   2.807 -0.8829  0.5120  0.0153
  160MOL    C7532193   2.287   6.760   2.874  0.0065  1.1022  0.1346
  160MOL    N7632194   2.190   6.736   2.987 -0.2846  0.7093 -0.5188
  160MOL    H7732195   2.234   6.975   2.873 -0.3716  1.4137 -0.8041
  160MOL    H7832196   2.187   6.890   2.733 -0.4172 -1.0321 -0.4058
  160MOL    H7932197   2.273   6.681   2.799 -1.4347 -1.3441  2.8638
  160MOL    H8032198   2.387   6.737   2.910  0.1244 -0.8653 -1.3281
  160MOL    H8132199   2.223   6.758   3.079 -0.2265 -0.1531 -0.3232
  160MOL    C8232200   2.064   6.708   2.982  0.0977 -0.4415  0.5279
  160MOL    O8332201   2.007   6.714   2.867 -0.6962  0.0349  0.0563
  160MOL    C8432202   1.993   6.675   3.113  0.1399 -0.7985  0.2507
  160MOL    C8532203   2.059   6.575   3.209 -0.3296  0.0219 -0.0856
  160MOL    N8632204   2.141   6.646   3.309 -0.6952  0.0735  0.5006
  160MOL    H8732205   1.977   6.765   3.172  0.0174 -0.4949 -0.2422
  160MOL    H8832206   1.894   6.646   3.079  0.0371 -1.0253  0.7414
  160MOL    H8932207   1.989   6.515   3.266  0.3125  0.3175  1.0368
  160MOL    H9032208   2.134   6.514   3.158 -1.3991 -1.2295 -0.1616
  160MOL    H9132209   2.242   6.648   3.301 -0.5831 -0.2735  1.7788
  160MOL    C9232210   2.096   6.717   3.412 -0.3612 -0.9096  0.0332
  160MOL    O9332211   1.976   6.743   3.434 -0.1860 -0.7367 -0.2384
  160MOL    C9432212   2.207   6.758   3.507  0.3782  0.0100 -0.4809
  160MOL    C9532213   2.174   6.716   3.649 -0.1118  0.5637  0.5346
  160MOL    N9632214   2.221   6.589   3.694  0.3251 -0.4298 -0.5540
  160MOL    H9732215   2.299   6.717   3.467 -0.1737 -1.4862 -0.2496
  160MOL    H9832216   2.231   6.864   3.502  0.8369  0.0779  2.3098
  160MOL    H9932217   2.218   6.791   3.715 -0.6082  2.4356 -1.2047
  160MOL   H10032218   2.068   6.723   3.674 -0.1541 -2.4634  1.4078
  160MOL   H10132219   2.256   6.519   3.629  1.3993 -1.4725  1.0951
  160MOL   C10232220   2.234   6.549   3.824 -0.6729  0.5466  0.1695
  160MOL   O10332221   2.221   6.620   3.917  0.2192 -0.4000 -0.0953
  160MOL   C10432222   2.256   6.402   3.853  0.0648  0.4375  0.7095
  160MOL   C10532223   2.384   6.370   3.940  0.7366  0.4995  0.2454
  160MOL   N10632224   2.428   6.233   3.927 -0.0694  0.3945  0.0949
  160MOL   H10732225   2.259   6.340   3.763  0.6236  2.7720 -0.9339
  160MOL   H10832226   2.167   6.378   3.910 -1.0012  1.1093 -0.6464
  160MOL   H10932227   2.458   6.449   3.940  0.7234  0.5113 -0.0712
  160MOL   H11032228   2.341   6.371   4.040 -1.0703  0.8449 -0.5044
  160MOL   H11132229   2.353   6.167   3.912  0.2888  0.1413 -0.6340
  160MOL   C11232230   2.556   6.202   3.896 -0.4746 -0.3946 -0.3080
  160MOL   O11332231   2.651   6.276   3.931 -0.6384  0.2902  0.3920
  160MOL   C11432232   2.589   6.068   3.827 -0.3468 -0.3423 -0.0595
  160MOL   C11532233   2.729   6.012   3.845  0.2818  0.0064 -0.1104
  160MOL   N11632234   2.839   6.100   3.817 -0.2453 -0.6076  0.4683
  160MOL   H11732235   2.567   6.060   3.720 -0.3823 -0.2916 -0.0563
  160MOL   H11832236   2.516   6.003   3.876  0.9252 -1.8009 -0.0748
  160MOL   H11932237   2.728   5.993   3.952 -0.8995  1.8152  0.2283
  160MOL   H12032238   2.750   5.913   3.804 -2.3816 -0.3321 -0.7792
  160MOL   H12132239   2.847   6.174   3.884 -0.8830 -0.1017 -0.0086
  160MOL   C12232240   2.905   6.098   3.698  0.1544 -0.9490 -0.0951
  160MOL   O12332241   2.902   5.997   3.628 -0.6938  0.3493 -0.1211
  160MOL   C12432242   2.990   6.219   3.668  0.5772  0.3734  0.3866
  160MOL   C12532243   3.141   6.188   3.631  0.2086  0.1195 -0.0356
  160MOL   N12632244   3.202   6.296   3.549 -0.3266  0.1819  0.5747
  160MOL   H12732245   2.996   6.295   3.746  1.0655  0.1106  0.6065
  160MOL   H12832246   2.945   6.271   3.583 -1.4231 -0.0283  1.1821
  160MOL   H12932247   3.197   6.184   3.725 -0.4968  0.2917  0.3945
  160MOL   H13032248   3.144   6.090   3.586 -1.0756  0.2939 -0.4990
  160MOL   H13132249   3.189   6.288   3.449 -1.1017  0.9024  0.6049
  160MOL   C13232250   3.271   6.395   3.608 -0.1043 -0.2929  0.6408
  160MOL   O13332251   3.259   6.423   3.725 -0.1731 -0.3907 -0.3242
  160MOL   C13432252   3.357   6.477   3.518 -0.0686 -0.2322 -0.1442
  160MOL   C13532253   3.499   6.477   3.568  0.1541  0.4864 -0.1468
  160MOL   N13632254   3.571   6.354   3.593 -0.1691  0.0804  0.4520
  160MOL   H13732255   3.309   6.575   3.516 -0.2939 -0.3165  0.6745
  160MOL   H13832256   3.362   6.431   3.420  0.9510 -3.4830  1.3366
  160MOL   H13932257   3.562   6.525   3.492  0.8299  0.4425  0.3871
  160MOL   H14032258   3.496   6.523   3.666  0.0060 -3.5876  1.8586
  160MOL   H14132259   3.546   6.261   3.563 -0.2827  0.4272 -0.5472
  160MOL   C14232260   3.690   6.352   3.651  0.6624  0.0472 -0.1586
  160MOL   O14332261   3.741   6.453   3.699 -0.2627  0.5796 -0.0687
  160MOL   C14432262   3.762   6.223   3.656 -0.3232  0.1107 -0.2852
  160MOL   C14532263   3.911   6.214   3.631  0.2471  0.4237  0.5010
  160MOL   N14632264   3.938   6.214   3.489  0.9375 -0.0198 -0.0013
  160MOL   H14732265   3.713   6.145   3.597  0.4872 -1.4408  1.0685
  160MOL   H14832266   3.743   6.190   3.758  0.6820 -0.4934 -0.2888
  160MOL   H14932267   3.951   6.299   3.686  0.0087 -1.3772  3.5873
  160MOL   H15032268   3.965   6.134   3.682 -1.1877 -0.2176  1.0493
  160MOL   H15132269   3.987   6.300   3.470  1.8535 -0.3053  1.0545
  160MOL   C15232270   3.916   6.118   3.400 -0.2167 -0.4459 -0.4053
  160MOL   O15332271   3.861   6.012   3.430 -0.1441 -0.1123 -0.2503
  160MOL   C15432272   3.963   6.148   3.260 -0.6861 -0.1585 -0.0741
  160MOL   C15532273   3.850   6.130   3.161 -0.8454 -0.4198  0.6521
  160MOL   N15632274   3.765   6.246   3.165 -0.0206 -0.4072 -0.0821
  160MOL   H15732275   4.041   6.076   3.235 -0.8081  0.1291 -1.3086
  160MOL   H15832276   4.013   6.245   3.254 -0.7616  0.0073  1.7480
  160MOL   H15932277   3.888   6.125   3.059 -2.4518  1.6868 -0.0733
  160MOL   H16032278   3.798   6.035   3.148 -0.3635 -0.7434  1.0481
  160MOL   H16132279   3.813   6.335   3.174 -0.0353  0.0205 -3.5482
  160MOL   C16232280   3.629   6.256   3.137 -0.5810 -0.2090  0.0086
  160MOL   O16332281   3.565   6.161   3.096 -0.6124  0.0489  0.3608
  160MOL   C16432282   3.550   6.388   3.160 -0.3808 -0.2774  0.0638
  160MOL   C16532283   3.635   6.502   3.217  0.3266 -0.7027 -0.2285
  160MOL   N16632284   3.707   6.585   3.118  0.5358  0.7358  0.8450
  160MOL   H16732285   3.467   6.380   3.229 -0.0378 -2.3032  0.2674
  160MOL   H16832286   3.500   6.415   3.067 -0.7285  1.3706  0.7090
  160MOL   H16932287   3.561   6.570   3.258 -1.0566 -2.0027 -0.5132
  160MOL   H17032288   3.698   6.461   3.295 -1.5388 -2.4070  0.4365
  160MOL   H17132289   3.647   6.658   3.083 -0.5526 -0.8926 -0.7662
  160MOL   C17232290   3.839   6.580   3.096  0.1530  0.1838  0.1537
  160MOL   O17332291   3.913   6.483   3.149  0.4480 -0.0217  0.6765
  160MOL   C17432292   3.903   6.695   3.018  0.8542  0.1246  0.8792
  160MOL   C17532293   3.992   6.641   2.900  0.8611  0.4011  0.7757
  160MOL   N17632294   3.930   6.554   2.801  0.3531 -0.2093  0.5751
  160MOL   H17732295   3.952   6.759   3.092  0.7441  1.5978 -0.3025
  160MOL   H17832296   3.824   6.755   2.974  1.3306 -0.1301 -0.3544
  160MOL   H17932297   4.025   6.731   2.849  1.0792  0.7361  1.5030
  160MOL   H18032298   4.082   6.601   2.946 -0.8122 -2.4960  1.6615
  160MOL   H18132299   3.852   6.595   2.753  0.9184  1.3352  0.9555
  160MOL   C18232300   3.960   6.421   2.774 -0.4793 -0.0802 -0.2566
  160MOL   O18332301   4.036   6.354   2.842  0.6088  0.1329  0.3791
  160MOL   C18432302   3.880   6.360   2.658  0.0989 -0.0096  0.2842
  160MOL   C18532303   3.927   6.210   2.621 -0.2444  0.5247  0.3186
  160MOL   N18632304   4.052   6.217   2.544  0.7702 -0.0665 -0.6169
  160MOL   H18732305   3.872   6.418   2.566 -1.3013  0.3841  0.6556
  160MOL   H18832306   3.775   6.363   2.685 -0.1307 -0.9295 -0.4312
  160MOL   H18932307   3.943   6.157   2.715  0.6480 -0.8519 -0.5944
  160MOL   H19032308   3.843   6.165   2.568 -0.7501 -0.0437  1.5795
  160MOL   H19132309   4.093   6.306   2.517  0.1964 -0.1147 -1.6790
  160MOL   C19232310   4.119   6.117   2.495 -0.4664 -0.0172 -0.3948
  160MOL   O19332311   4.075   6.008   2.506 -0.4347  0.4448 -0.0897
  160MOL   C19432312   4.262   6.142   2.443  0.3547  0.0836  0.3963
  160MOL   C19532313   4.381   6.052   2.476 -0.0546 -0.0185  0.4767
  160MOL   N19632314   4.421   6.045   2.618 -0.4001  0.0541 -0.2093
  160MOL   H19732315   4.239   6.125   2.338  0.2236 -0.9220  0.5832
  160MOL   H19832316   4.279   6.250   2.447 -1.0214  0.3282 -0.0748
  160MOL   H19932317   4.356   5.952   2.440  0.7794 -0.7914  1.9631
  160MOL   H20032318   4.474   6.076   2.424  0.3614  0.3512  1.3773
  160MOL   H20132319   4.488   6.117   2.640 -0.2764 -0.5431  1.4703
  160MOL   H20232320   4.485   5.967   2.620  2.1677  2.1148  1.3508
  161MOL     C132321   1.103   2.242   1.867 -0.4958  0.6441 -0.3257
  161MOL     O232322   1.077   2.195   1.754  0.1588  0.7960 -0.1658
  161MOL     C332323   1.136   2.154   1.990  0.0674  0.0931 -0.2768
  161MOL     C432324   1.049   2.029   2.002  0.3471 -0.2822  0.1608
  161MOL     N532325   1.059   1.964   2.134  0.5367  0.6091 -0.1120
  161MOL     H632326   1.124   2.213   2.081 -0.3733  2.1526 -1.6169
  161MOL     H732327   1.243   2.135   1.981 -0.1569 -2.4728  2.0046
  161MOL     H832328   1.070   1.945   1.937  2.4229 -0.0519  0.5105
  161MOL     H932329   0.944   2.060   1.995  0.0172 -0.9612  1.6688
  161MOL    H1032330   1.123   1.886   2.133  0.2111  0.3175  1.5247
  161MOL    H1132331   1.101   2.349   1.889 -0.0471  0.3476  1.2172
  161MOL    C1232332   1.013   2.013   2.250  0.4812  0.2017  0.0999
  161MOL    O1332333   0.938   2.110   2.253  0.6157 -0.1848 -0.2883
  161MOL    C1432334   1.065   1.954   2.375 -0.8097  0.1365  0.7450
  161MOL    C1532335   0.984   1.983   2.499 -0.8471  0.0145  0.2173
  161MOL    N1632336   0.867   1.891   2.512 -0.4878 -0.3365 -0.0239
  161MOL    H1732337   1.160   2.007   2.382 -1.7310  1.7703  0.9846
  161MOL    H1832338   1.075   1.848   2.353 -0.3060  0.4045 -0.3721
  161MOL    H1932339   1.053   1.963   2.582  1.6711  1.9727 -1.3512
  161MOL    H2032340   0.965   2.090   2.508 -0.1544  0.3526 -2.1506
  161MOL    H2132341   0.781   1.926   2.473 -1.0721  0.0537  1.5492
  161MOL    C2232342   0.871   1.767   2.558  0.2025  0.1326  0.3880
  161MOL    O2332343   0.970   1.711   2.603 -0.1790 -0.2437 -0.0246
  161MOL    C2432344   0.741   1.691   2.556 -0.0139 -0.6932  0.3474
  161MOL    C2532345   0.733   1.573   2.657  0.1600 -0.0408  0.9078
  161MOL    N2632346   0.832   1.469   2.619 -0.4376 -0.0981 -0.2735
  161MOL    H2732347   0.723   1.653   2.455  0.0476 -0.2428  0.1658
  161MOL    H2832348   0.652   1.752   2.569  1.3697  2.0027 -2.2708
  161MOL    H2932349   0.740   1.601   2.762  0.1512  0.8896  0.6633
  161MOL    H3032350   0.636   1.524   2.654  1.1976 -2.1052  0.2993
  161MOL    H3132351   0.920   1.475   2.668 -1.5517 -1.5323  1.9681
  161MOL    C3232352   0.826   1.372   2.527  0.0430 -0.6737 -0.0960
  161MOL    O3332353   0.731   1.346   2.459 -0.3809  0.2448  0.8329
  161MOL    C3432354   0.961   1.298   2.499 -0.8948 -0.3019 -0.2872
  161MOL    C3532355   0.985   1.250   2.352 -0.2218  0.3076  0.0559
  161MOL    N3632356   1.068   1.136   2.338  0.1244 -0.1083 -0.2552
  161MOL    H3732357   0.964   1.216   2.571  1.5082 -0.4700 -0.5170
  161MOL    H3832358   1.046   1.362   2.523  1.0944 -1.6859 -3.2045
  161MOL    H3932359   0.890   1.214   2.314  0.6345 -1.5929 -0.3622
  161MOL    H4032360   1.026   1.328   2.288 -0.0034  0.2755  0.1556
  161MOL    H4132361   1.041   1.051   2.387  1.2081  0.1843  0.8657
  161MOL    C4232362   1.179   1.123   2.259  0.2443 -0.1745  0.6516
  161MOL    O4332363   1.216   1.213   2.189 -0.0896  0.4538 -0.8122
  161MOL    C4432364   1.255   0.994   2.272  0.3654  0.1091  0.0382
  161MOL    C4532365   1.394   0.998   2.237 -0.2005 -0.5511  0.3137
  161MOL    N4632366   1.438   0.859   2.210  0.5930 -0.5416 -0.4160
  161MOL    H4732367   1.258   0.974   2.379  3.1030 -0.7002 -0.1519
  161MOL    H4832368   1.185   0.929   2.219  1.0028  0.2958 -1.0579
  161MOL    H4932369   1.408   1.046   2.141  2.4613 -1.4023  0.2391
  161MOL    H5032370   1.451   1.057   2.309  0.1578 -0.9857  0.3903
  161MOL    H5132371   1.397   0.799   2.140 -0.8216 -2.4432  1.9899
  161MOL    C5232372   1.536   0.793   2.271 -0.1609  0.2923 -0.4562
  161MOL    O5332373   1.600   0.854   2.363 -0.7085 -0.3212  0.1493
  161MOL    C5432374   1.555   0.641   2.241 -0.4517 -0.9237  0.2117
  161MOL    C5532375   1.526   0.558   2.368 -0.0601  0.2864  0.6013
  161MOL    N5632376   1.528   0.410   2.353  0.5165  1.0039 -0.1452
  161MOL    H5732377   1.492   0.604   2.160  0.5333 -0.9898 -0.5400
  161MOL    H5832378   1.658   0.627   2.208 -0.9588  1.2921 -2.5344
  161MOL    H5932379   1.424   0.592   2.389 -0.3789 -0.1295 -0.2410
  161MOL    H6032380   1.590   0.591   2.449 -0.8548  1.1506  0.8844
  161MOL    H6132381   1.446   0.361   2.321  0.0973  0.6448  1.4478
  161MOL    C6232382   1.631   0.335   2.390  0.6973  0.5231 -0.8848
  161MOL    O6332383   1.735   0.379   2.437  0.3137  0.5222  0.3135
  161MOL    C6432384   1.606   0.181   2.391  0.1660  0.1735  0.3723
  161MOL    C6532385   1.731   0.101   2.343 -0.6911  0.7156  0.2997
  161MOL    N6632386   1.757   0.128   2.203 -0.4760  0.4137  0.3767
  161MOL    H6732387   1.562   0.147   2.485 -2.6737  2.0761 -0.1940
  161MOL    H6832388   1.523   0.159   2.324  0.7749 -1.7516  0.2105
  161MOL    H6932389   1.815   0.106   2.413 -1.9496  2.1580  1.7690
  161MOL    H7032390   1.706   7.776   2.334  0.1686  0.3887  1.5318
  161MOL    H7132391   1.674   0.131   2.146  0.2981  0.3959 -0.7550
  161MOL    C7232392   1.876   0.135   2.140  0.1908 -0.0154 -0.3847
  161MOL    O7332393   1.985   0.086   2.182  0.1110 -0.6940 -0.5698
  161MOL    C7432394   1.869   0.190   1.999 -0.4325  0.4506 -0.1200
  161MOL    C7532395   1.927   0.335   1.994 -1.0271 -0.0912  0.7341
  161MOL    N7632396   1.984   0.373   1.864  0.6292 -0.2146 -0.1846
  161MOL    H7732397   1.925   0.118   1.939 -0.5502 -0.2966  0.6564
  161MOL    H7832398   1.766   0.196   1.963 -0.4221  2.2095  0.1128
  161MOL    H7932399   1.846   0.404   2.020 -0.5415  0.7360  0.1023
  161MOL    H8032400   2.003   0.345   2.071  2.0187 -0.7727 -2.0290
  161MOL    H8132401   1.928   0.439   1.811  0.2057 -0.5645 -0.1736
  161MOL    C8232402   2.107   0.334   1.820  0.4756  0.4452  0.4385
  161MOL    O8332403   2.187   0.265   1.883 -0.3637 -0.2357  0.0800
  161MOL    C8432404   2.151   0.396   1.682  0.3630  0.1017 -0.5618
  161MOL    C8532405   2.288   0.343   1.637  0.0843  0.3522 -0.0269
  161MOL    N8632406   2.356   0.436   1.557 -0.1787 -0.1151 -0.2375
  161MOL    H8732407   2.073   0.374   1.609 -0.0093  0.5982 -0.3174
  161MOL    H8832408   2.172   0.501   1.703 -0.3500  0.3925 -1.2712
  161MOL    H8932409   2.346   0.332   1.728 -0.5093 -1.1447  0.1867
  161MOL    H9032410   2.279   0.242   1.597  2.7761  0.5799 -1.2589
  161MOL    H9132411   2.344   0.427   1.457  2.3253  1.5674 -0.7471
  161MOL    C9232412   2.435   0.532   1.601 -0.0767 -0.2442 -0.2180
  161MOL    O9332413   2.447   0.544   1.722 -0.1962  0.0868 -0.0496
  161MOL    C9432414   2.516   0.614   1.505 -0.0467 -0.1535 -0.1878
  161MOL    C9532415   2.444   0.690   1.391 -0.3504 -0.3548  0.4579
  161MOL    N9632416   2.387   0.817   1.436  0.5786  0.3200 -0.4044
  161MOL    H9732417   2.568   0.690   1.563 -0.1300  0.9128 -1.4952
  161MOL    H9832418   2.581   0.539   1.461 -0.0966 -1.0887  1.2968
  161MOL    H9932419   2.506   0.703   1.303  1.8439 -4.3023  1.2600
  161MOL   H10032420   2.376   0.626   1.335 -0.2944 -0.1310  0.1371
  161MOL   H10132421   2.415   0.855   1.525 -0.2248  0.2039 -0.0971
  161MOL   C10232422   2.286   0.882   1.380 -0.3640  0.0154 -0.2310
  161MOL   O10332423   2.225   0.840   1.279 -0.0100 -0.4256 -0.0852
  161MOL   C10432424   2.224   0.999   1.464  0.1767 -0.1307  0.0289
  161MOL   C10532425   2.086   1.053   1.410 -0.2764 -0.3136 -0.3037
  161MOL   N10632426   2.044   1.176   1.482  0.4153  0.4496  0.5893
  161MOL   H10732427   2.293   1.079   1.492  1.4719 -1.4266  0.6131
  161MOL   H10832428   2.193   0.950   1.556  1.4265  0.9877  1.0617
  161MOL   H10932429   2.081   1.070   1.303  0.6439  0.9907 -0.1453
  161MOL   H11032430   2.009   0.975   1.411  0.3401 -0.9204  1.1164
  161MOL   H11132431   2.050   1.266   1.437  2.8687 -0.0517 -0.1455
  161MOL   C11232432   1.988   1.161   1.604 -0.3026  0.4540 -0.2219
  161MOL   O11332433   1.974   1.048   1.653  0.0856 -0.6977 -0.2820
  161MOL   C11432434   1.942   1.287   1.676  0.1413 -0.3295  0.7054
  161MOL   C11532435   1.936   1.271   1.830 -0.0972  0.0882  0.3761
  161MOL   N11632436   2.076   1.261   1.872  0.0429 -0.2489  0.1473
  161MOL   H11732437   1.838   1.297   1.648  0.1381 -0.5864  0.6220
  161MOL   H11832438   1.993   1.373   1.632  1.4790 -0.5261  1.8401
  161MOL   H11932439   1.885   1.345   1.891 -2.6319 -0.0607 -1.5048
  161MOL   H12032440   1.892   1.176   1.859 -0.7357 -0.0059 -0.8781
  161MOL   H12132441   2.142   1.238   1.799  1.9068 -0.1322  1.7541
  161MOL   C12232442   2.125   1.295   1.993 -0.0352  1.1494  0.2694
  161MOL   O12332443   2.054   1.322   2.094  0.1204 -0.2408 -0.1927
  161MOL   C12432444   2.275   1.289   2.013 -0.2830  0.1038  0.3736
  161MOL   C12532445   2.320   1.241   2.149  0.5829 -0.0387 -0.4223
  161MOL   N12632446   2.317   1.335   2.265 -0.2173 -0.2823  0.2624
  161MOL   H12732447   2.331   1.379   1.986  1.3473 -0.9619  0.1586
  161MOL   H12832448   2.309   1.218   1.938 -0.8522 -1.5613  1.6752
  161MOL   H12932449   2.265   1.150   2.169 -1.4536  0.7435 -2.3398
  161MOL   H13032450   2.427   1.229   2.136  0.4040 -1.6697 -0.4230
  161MOL   H13132451   2.279   1.425   2.240  0.6782  0.5092  1.6010
  161MOL   C13232452   2.332   1.296   2.389 -0.7080  0.2420  0.8839
  161MOL   O13332453   2.322   1.381   2.476 -0.9536 -0.3082  0.4589
  161MOL   C13432454   2.370   1.149   2.428 -0.3942  0.3694 -0.0228
  161MOL   C13532455   2.410   1.134   2.567 -0.4096 -0.3098  0.6893
  161MOL   N13632456   2.508   1.029   2.584  0.4259  0.4415 -0.1089
  161MOL   H13732457   2.454   1.132   2.359 -1.0323  0.2856 -0.7868
  161MOL   H13832458   2.289   1.081   2.402 -0.4048  0.5957 -0.6016
  161MOL   H13932459   2.470   1.217   2.606  0.2982 -0.1109 -0.7569
  161MOL   H14032460   2.331   1.125   2.641  0.2361  0.2863  1.4688
  161MOL   H14132461   2.604   1.060   2.589 -0.0236  2.0699 -1.1022
  161MOL   C14232462   2.473   0.906   2.619 -0.3695  0.2934 -0.1657
  161MOL   O14332463   2.358   0.874   2.645  0.1378  0.0084 -0.0535
  161MOL   C14432464   2.592   0.802   2.633  0.3181 -0.4019  0.1391
  161MOL   C14532465   2.591   0.711   2.751 -0.4809  0.0064 -0.7852
  161MOL   N14632466   2.539   0.755   2.877  1.0349 -0.3737  0.3739
  161MOL   H14732467   2.686   0.856   2.636  0.3919 -0.6003  3.1219
  161MOL   H14832468   2.600   0.747   2.539  0.8180 -1.6812  0.9189
  161MOL   H14932469   2.540   0.619   2.724  0.2006 -1.3655  2.3144
  161MOL   H15032470   2.690   0.668   2.762 -0.7631 -0.0142  2.0793
  161MOL   H15132471   2.440   0.776   2.883  1.1106  0.2009 -0.3386
  161MOL   C15232472   2.621   0.802   2.975 -0.4640  0.1545 -0.5105
  161MOL   O15332473   2.739   0.796   2.965 -0.2444 -0.0925 -0.4369
  161MOL   C15432474   2.556   0.866   3.102 -0.5793  0.2576  0.0503
  161MOL   C15532475   2.540   0.769   3.223 -0.4751  0.2742  0.4139
  161MOL   N15632476   2.416   0.694   3.215 -0.3417  0.0263  0.0083
  161MOL   H15732477   2.461   0.918   3.087 -0.1444  0.8971 -0.5162
  161MOL   H15832478   2.637   0.939   3.108 -2.3271  2.1104  2.3529
  161MOL   H15932479   2.627   0.703   3.218 -0.2872  0.4180  1.7189
  161MOL   H16032480   2.551   0.837   3.307  1.0053  1.2531 -0.5515
  161MOL   H16132481   2.352   0.737   3.150  0.9022 -0.4473 -1.5586
  161MOL   C16232482   2.381   0.601   3.301  0.0574  0.0908 -1.0230
  161MOL   O16332483   2.460   0.552   3.378  0.4612  0.0602  0.6332
  161MOL   C16432484   2.226   0.567   3.297 -0.0161  0.1750  0.5083
  161MOL   C16532485   2.203   0.419   3.331  0.3124 -0.1303  0.3513
  161MOL   N16632486   2.060   0.384   3.330 -0.7165 -0.5576 -0.3773
  161MOL   H16732487   2.184   0.582   3.198  1.4031 -0.6469 -0.2401
  161MOL   H16832488   2.171   0.622   3.373 -1.9472 -1.0393  0.0322
  161MOL   H16932489   2.260   0.356   3.263 -1.0805 -0.1756 -0.7879
  161MOL   H17032490   2.234   0.404   3.435 -0.5903  0.8935  0.7895
  161MOL   H17132491   2.008   0.390   3.417 -1.5100 -2.9977 -0.6396
  161MOL   C17232492   1.997   0.380   3.216 -0.1203  0.1410  0.0940
  161MOL   O17332493   2.054   0.405   3.107 -0.3509  0.0433 -0.4962
  161MOL   C17432494   1.850   0.359   3.218  0.4825 -0.0984 -0.0233
  161MOL   C17532495   1.774   0.480   3.164 -0.2442  0.3975 -0.3699
  161MOL   N17632496   1.631   0.480   3.204 -0.3065 -0.5020 -0.2242
  161MOL   H17732497   1.813   0.322   3.313  0.3454 -1.1851 -0.5005
  161MOL   H17832498   1.820   0.281   3.148  0.8691 -0.7097  0.4904
  161MOL   H17932499   1.816   0.567   3.215 -0.0540  0.1038 -0.0168
  161MOL   H18032500   1.782   0.488   3.056  0.8147 -1.1427 -0.4210
  161MOL   H18132501   1.612   0.544   3.280  1.8541  0.8826 -0.8127
  161MOL   C18232502   1.531   0.410   3.158 -0.3817  0.3652  0.6270
  161MOL   O18332503   1.543   0.326   3.071  0.0605 -0.3199  0.2579
  161MOL   C18432504   1.384   0.454   3.193  1.0396  0.3041  0.1388
  161MOL   C18532505   1.294   0.496   3.079  0.2694 -0.5410 -0.0701
  161MOL   N18632506   1.296   0.642   3.048 -0.2444  0.1071 -0.3199
  161MOL   H18732507   1.377   0.522   3.278  1.3204 -1.3854  1.5532
  161MOL   H18832508   1.354   0.353   3.223 -0.3619  0.1544 -1.7280
  161MOL   H18932509   1.324   0.461   2.981  0.5350 -2.0561  0.5332
  161MOL   H19032510   1.190   0.474   3.102  0.2834 -0.6442 -0.1028
  161MOL   H19132511   1.362   0.675   2.979 -0.0172 -0.0937 -0.2003
  161MOL   C19232512   1.218   0.729   3.107 -0.6832 -0.2131 -0.1459
  161MOL   O19332513   1.118   0.699   3.173  0.4830 -0.6094  0.3751
  161MOL   C19432514   1.269   0.870   3.097 -0.1215 -0.0814 -0.4863
  161MOL   C19532515   1.156   0.974   3.116  0.5196 -0.1098 -0.1441
  161MOL   N19632516   1.059   0.960   3.008  0.9932  0.3645 -0.2997
  161MOL   H19732517   1.339   0.875   3.180  1.1135 -0.3364 -1.4947
  161MOL   H19832518   1.315   0.892   3.000 -0.7471  0.8483 -0.5808
  161MOL   H19932519   1.109   0.953   3.212 -1.4439 -0.5876 -1.1893
  161MOL   H20032520   1.202   1.073   3.123 -1.2944  0.6424  1.7616
  161MOL   H20132521   1.024   0.866   3.002 -0.0045  0.6848  0.3664
  161MOL   H20232522   0.971   1.003   3.034  1.0907  0.3302  0.0859
  162MOL     C132523   7.617   0.468   5.210 -0.2103  1.4224  0.1419
  162MOL     O232524   7.705   0.390   5.169  0.5991 -0.4480  0.3526
  162MOL     C332525   7.641   0.539   5.342  0.9861 -0.3171  0.6782
  162MOL     C432526   7.654   0.693   5.328  0.2725  0.7679  0.1321
  162MOL     N532527   7.764   0.718   5.240  0.3761  0.3403 -0.3473
  162MOL     H632528   7.727   0.495   5.393  1.2919  1.0889  1.3840
  162MOL     H732529   7.553   0.512   5.401  1.0859 -2.8070 -0.2369
  162MOL     H832530   7.678   0.738   5.425  0.9147 -3.1618  1.9011
  162MOL     H932531   7.562   0.745   5.298 -0.1758 -1.0821 -1.7979
  162MOL    H1032532   0.056   0.653   5.212  1.2159  0.0113  2.4421
  162MOL    H1132533   7.532   0.499   5.150 -0.0920 -0.5623 -1.0936
  162MOL    C1232534   7.773   0.829   5.170  0.0323 -0.7997  1.1458
  162MOL    O1332535   7.708   0.933   5.190  0.8844  0.5215 -0.1931
  162MOL    C1432536   0.097   0.826   5.054  0.0977  0.0101  0.8282
  162MOL    C1532537   0.027   0.791   4.920 -0.9726  0.5570  0.7652
  162MOL    N1632538   0.019   0.647   4.903  0.5168  0.8984  0.4581
  162MOL    H1732539   0.182   0.761   5.073 -0.2885 -0.7032  0.1979
  162MOL    H1832540   0.141   0.926   5.052  0.3259 -0.0070  3.4184
  162MOL    H1932541   7.703   0.821   4.918 -1.1577  0.0447  2.1576
  162MOL    H2032542   0.074   0.840   4.835 -0.1618  0.5625  1.2044
  162MOL    H2132543   7.734   0.597   4.964 -1.2859  1.5490 -0.8969
  162MOL    C2232544   0.076   0.587   4.799 -0.4428  0.0979 -0.3460
  162MOL    O2332545   0.149   0.649   4.718  0.1027  0.0062  0.7737
  162MOL    C2432546   0.044   0.448   4.773 -0.2908  0.7060  0.0696
  162MOL    C2532547   7.757   0.423   4.631 -0.0272  0.2527 -0.2178
  162MOL    N2632548   0.069   0.427   4.515  0.0513  0.4148  0.3031
  162MOL    H2732549   7.772   0.400   4.856  1.3959  0.5031  1.0345
  162MOL    H2832550   0.139   0.394   4.770 -1.0513 -0.5817 -2.0781
  162MOL    H2932551   7.730   0.317   4.628  1.4314 -0.1719  0.8260
  162MOL    H3032552   7.670   0.485   4.612 -0.8554 -0.4806  1.0306
  162MOL    H3132553   0.135   0.352   4.505 -0.3987 -0.5612  3.8068
  162MOL    C3232554   0.048   0.512   4.413 -0.4696  0.3668 -0.0594
  162MOL    O3332555   7.746   0.600   4.415  0.4105 -0.2303 -1.0750
  162MOL    C3432556   0.128   0.491   4.282 -0.2802  0.4244  0.6964
  162MOL    C3532557   0.099   0.599   4.180  0.4839  0.1628  0.3926
  162MOL    N3632558   0.158   0.727   4.215 -0.1010 -0.2994 -0.4030
  162MOL    H3732559   0.096   0.390   4.255 -0.1415  0.8494 -1.1151
  162MOL    H3832560   0.234   0.489   4.307 -0.5421  0.4949  1.8333
  162MOL    H3932561   0.120   0.575   4.076 -1.5349 -1.9641  0.4347
  162MOL    H4032562   7.771   0.611   4.169  0.4287  0.8869  1.6451
  162MOL    H4132563   0.203   0.739   4.305  0.1741  2.0103 -0.8194
  162MOL    C4232564   0.154   0.836   4.141 -0.1802  0.3922 -0.2628
  162MOL    O4332565   0.102   0.844   4.026 -0.4168 -0.6069  0.0025
  162MOL    C4432566   0.234   0.947   4.200 -0.6843 -0.4172 -0.5052
  162MOL    C4532567   0.249   1.081   4.121  0.0278  0.2344  0.0175
  162MOL    N4632568   0.372   1.083   4.038 -0.6717 -0.5092  0.0786
  162MOL    H4732569   0.181   0.962   4.294  1.0363 -0.1183  0.4387
  162MOL    H4832570   0.332   0.906   4.225 -0.2070 -0.0035 -1.6721
  162MOL    H4932571   0.165   1.107   4.057  1.2392 -0.0052 -1.7061
  162MOL    H5032572   0.261   1.150   4.204  0.3644  0.1910  0.0069
  162MOL    H5132573   0.413   0.991   4.026 -1.0962 -0.6766 -0.1326
  162MOL    C5232574   0.439   1.197   4.006  0.9827 -0.0118 -0.4070
  162MOL    O5332575   0.406   1.308   4.051 -0.5001 -0.5158  0.1226
  162MOL    C5432576   0.569   1.190   3.924 -0.0215 -0.1721  0.3357
  162MOL    C5532577   0.561   1.271   3.791  0.1490  0.0330  0.2896
  162MOL    N5632578   0.681   1.351   3.773  0.3250 -0.3793 -0.1106
  162MOL    H5732579   0.648   1.222   3.992  0.6500 -0.5284 -0.2721
  162MOL    H5832580   0.584   1.084   3.905 -0.8326 -0.8570  3.2364
  162MOL    H5932581   0.472   1.333   3.792  0.0116 -0.1570  2.0858
  162MOL    H6032582   0.552   1.199   3.709 -1.8973 -0.0478  0.5496
  162MOL    H6132583   0.753   1.354   3.844  0.4987 -0.5421 -0.2763
  162MOL    C6232584   0.686   1.446   3.676 -0.0380 -0.1164  0.4191
  162MOL    O6332585   0.598   1.445   3.587  0.0637 -0.2765 -0.4815
  162MOL    C6432586   0.790   1.559   3.683  0.5444 -0.2819 -0.0474
  162MOL    C6532587   0.861   1.601   3.546  0.2916 -0.5917 -0.1609
  162MOL    N6632588   0.769   1.650   3.446 -0.1746  0.7211  0.5799
  162MOL    H6732589   0.758   1.648   3.737  0.8158  1.0654 -2.0489
  162MOL    H6832590   0.874   1.521   3.742  1.0914 -1.2020 -1.3750
  162MOL    H6932591   0.931   1.682   3.566 -0.7241  0.5816 -1.2410
  162MOL    H7032592   0.923   1.519   3.512 -1.9948 -2.3031 -0.3446
  162MOL    H7132593   0.671   1.638   3.466  0.1299 -1.3983  0.9282
  162MOL    C7232594   0.792   1.624   3.321  0.6281  0.2292  0.5601
  162MOL    O7332595   0.901   1.589   3.278  0.2985  0.0029 -0.0756
  162MOL    C7432596   0.674   1.631   3.218 -0.2022 -0.0670 -0.1386
  162MOL    C7532597   0.684   1.535   3.099  0.3332 -0.1778 -0.5961
  162MOL    N7632598   0.559   1.544   3.026 -0.1708 -0.1445 -0.1571
  162MOL    H7732599   0.572   1.617   3.255 -0.0095  0.7444  0.7194
  162MOL    H7832600   0.675   1.733   3.180  0.0255  0.3661  1.0110
  162MOL    H7932601   0.770   1.558   3.037 -0.1448  1.3752 -0.7092
  162MOL    H8032602   0.685   1.432   3.135 -0.9417 -0.1646 -0.5030
  162MOL    H8132603   0.503   1.460   3.031 -0.0503 -0.2861 -1.1194
  162MOL    C8232604   0.517   1.645   2.947  0.3240  0.2794 -0.3024
  162MOL    O8332605   0.579   1.751   2.946  0.5884 -0.0146  0.5036
  162MOL    C8432606   0.392   1.626   2.865 -0.0714 -0.2868  0.6333
  162MOL    C8532607   0.396   1.708   2.737  0.0294  0.6408 -0.0973
  162MOL    N8632608   0.262   1.732   2.686 -0.3006 -0.6377  0.3813
  162MOL    H8732609   0.382   1.521   2.838 -0.4599 -0.1021  0.0540
  162MOL    H8832610   0.307   1.656   2.926 -0.8479  0.0498 -0.5838
  162MOL    H8932611   0.437   1.808   2.748  2.3237 -0.0664 -1.7352
  162MOL    H9032612   0.459   1.663   2.660  0.0942 -0.0832  0.3653
  162MOL    H9132613   0.188   1.669   2.714 -2.2916  1.1994 -0.6019
  162MOL    C9232614   0.234   1.826   2.603 -0.3323 -0.1785 -0.3170
  162MOL    O9332615   0.313   1.908   2.557  0.2196 -0.8854  0.0407
  162MOL    C9432616   0.086   1.822   2.550  0.0008  0.0608  0.2639
  162MOL    C9532617   0.074   1.855   2.400 -0.0650 -0.1505 -0.1029
  162MOL    N9632618   0.150   1.776   2.306 -0.4339 -0.1027  0.9060
  162MOL    H9732619   0.048   1.724   2.578  3.2997 -0.7962  2.0053
  162MOL    H9832620   0.029   1.897   2.606  1.3053  0.6200  0.8633
  162MOL    H9932621   7.746   1.854   2.389 -0.1750 -0.7417  0.9718
  162MOL   H10032622   0.107   1.959   2.404  0.6664 -0.3836 -0.0551
  162MOL   H10132623   0.250   1.785   2.316 -0.5163 -0.5053  2.2082
  162MOL   C10232624   0.093   1.723   2.195  0.3778  0.4468  0.2481
  162MOL   O10332625   7.752   1.746   2.175 -0.2622 -0.4474 -0.2146
  162MOL   C10432626   0.184   1.668   2.085 -0.4137 -0.0890 -0.2841
  162MOL   C10532627   0.222   1.514   2.103  0.4125 -0.2138  0.1978
  162MOL   N10632628   0.315   1.499   2.210 -0.4769 -0.1181  0.0884
  162MOL   H10732629   0.272   1.733   2.088 -0.3959 -0.1366  0.2729
  162MOL   H10832630   0.150   1.675   1.982  1.6267 -0.7832 -1.0131
  162MOL   H10932631   0.134   1.451   2.118 -0.8281  1.1657 -1.1157
  162MOL   H11032632   0.269   1.485   2.009  2.5484  1.9476  0.5647
  162MOL   H11132633   0.407   1.539   2.199 -0.2811 -0.4052  0.6491
  162MOL   C11232634   0.285   1.440   2.332  0.2706 -0.3601  0.0514
  162MOL   O11332635   0.174   1.402   2.362  0.3574  0.1869  0.0766
  162MOL   C11432636   0.398   1.418   2.433  0.0667 -0.6627  0.4400
  162MOL   C11532637   0.395   1.293   2.520  0.2284 -0.6290 -0.3590
  162MOL   N11632638   0.483   1.185   2.473 -0.4083 -0.1244  0.0091
  162MOL   H11732639   0.391   1.503   2.501  0.9373  0.2220 -0.5677
  162MOL   H11832640   0.492   1.433   2.381  0.2157 -2.8482  0.0338
  162MOL   H11932641   0.429   1.318   2.620 -0.4158 -0.1444 -0.2638
  162MOL   H12032642   0.294   1.252   2.525 -0.6335  1.4962  0.1198
  162MOL   H12132643   0.563   1.206   2.414 -1.0405 -0.5984 -1.0431
  162MOL   C12232644   0.477   1.063   2.520 -0.2145  0.3990 -0.1717
  162MOL   O12332645   0.389   1.031   2.602  0.0612 -0.2096  0.0463
  162MOL   C12432646   0.595   0.971   2.491  0.8057 -0.2202 -0.5395
  162MOL   C12532647   0.575   0.897   2.354 -0.8085 -0.7439 -0.0616
  162MOL   N12632648   0.696   0.879   2.277 -0.4833 -0.4453 -0.6524
  162MOL   H12732649   0.600   0.886   2.559 -1.8594 -0.6599 -0.8562
  162MOL   H12832650   0.688   1.026   2.502  2.6439 -3.0565 -1.1287
  162MOL   H12932651   0.539   0.795   2.369  2.0697 -1.4717  2.3320
  162MOL   H13032652   0.507   0.944   2.283  1.2915 -0.2755 -1.8003
  162MOL   H13132653   0.732   0.784   2.280 -0.5494 -0.4476  0.0535
  162MOL   C13232654   0.751   0.966   2.189 -0.2494  0.6263 -0.4298
  162MOL   O13332655   0.704   1.080   2.174  0.9385  0.2558  0.0685
  162MOL   C13432656   0.879   0.929   2.116 -0.3244 -0.4138 -0.3317
  162MOL   C13532657   0.930   1.039   2.017  0.0926  0.6809 -0.0709
  162MOL   N13632658   0.857   1.022   1.891 -0.0959 -0.2296  0.5173
  162MOL   H13732659   0.873   0.824   2.084 -0.5417 -1.2138  2.2214
  162MOL   H13832660   0.952   0.909   2.194 -1.8068 -1.1301  0.9225
  162MOL   H13932661   0.913   1.138   2.059 -3.4989  0.7015 -1.3755
  162MOL   H14032662   1.038   1.031   2.005  0.0710  0.2853 -0.0093
  162MOL   H14132663   0.804   0.937   1.891  1.6857 -1.3938 -1.9863
  162MOL   C14232664   0.825   1.122   1.808 -0.4006 -0.1507  0.2601
  162MOL   O14332665   0.860   1.239   1.824  0.6335  0.2712 -0.7076
  162MOL   C14432666   0.723   1.085   1.701 -1.8054  0.1456 -0.3290
  162MOL   C14532667   0.634   1.205   1.660 -0.2359  0.0503  0.3186
  162MOL   N14632668   0.717   1.311   1.608 -0.2720  0.1837 -0.0767
  162MOL   H14732669   0.656   1.005   1.736 -0.9540  0.5680  2.3588
  162MOL   H14832670   0.766   1.037   1.613  0.5285  1.5429  0.0325
  162MOL   H14932671   0.561   1.174   1.585  0.2839 -0.1163 -0.1191
  162MOL   H15032672   0.574   1.237   1.745 -0.7952  1.0147 -0.4311
  162MOL   H15132673   0.746   1.373   1.682 -2.8766 -1.9704  2.9036
  162MOL   C15232674   0.760   1.323   1.484  0.2368 -0.5281 -0.1010
  162MOL   O15332675   0.733   1.251   1.388 -0.8019 -0.4145  0.4208
  162MOL   C15432676   0.865   1.427   1.461  0.3128 -0.4401 -0.3806
  162MOL   C15532677   1.002   1.390   1.521  0.1979  0.0987  0.0394
  162MOL   N15632678   1.017   1.411   1.664 -0.3615  0.5072 -0.4495
  162MOL   H15732679   0.828   1.520   1.504  1.4633  0.9056 -2.2122
  162MOL   H15832680   0.890   1.440   1.356 -0.9305 -0.0343 -0.6297
  162MOL   H15932681   0.993   1.283   1.501 -2.0385  0.4951 -1.3452
  162MOL   H16032682   1.091   1.431   1.473  1.2357 -1.3093  0.7274
  162MOL   H16132683   0.973   1.336   1.716 -0.7987  0.2169 -1.2302
  162MOL   C16232684   1.070   1.513   1.726  0.0569  0.0238 -0.2200
  162MOL   O16332685   1.116   1.609   1.665  0.1918 -0.3231  0.3260
  162MOL   C16432686   1.064   1.507   1.877  0.2121 -0.2532 -0.0797
  162MOL   C16532687   1.185   1.568   1.950 -0.5278  0.2772  0.1164
  162MOL   N16632688   1.204   1.526   2.090 -0.7325  0.0531  0.4248
  162MOL   H16732689   1.053   1.403   1.908 -1.1809  0.4408  1.8941
  162MOL   H16832690   0.976   1.558   1.917 -0.5692 -0.5394 -1.4083
  162MOL   H16932691   1.276   1.551   1.893  0.9517  0.2935  2.4569
  162MOL   H17032692   1.173   1.676   1.944  2.4571  0.7441  1.9522
  162MOL   H17132693   1.188   1.429   2.112 -1.4916  0.3580  1.2541
  162MOL   C17232694   1.216   1.611   2.196  0.0121 -0.4204  0.1771
  162MOL   O17332695   1.210   1.732   2.177  0.2707  0.1397 -0.3297
  162MOL   C17432696   1.245   1.548   2.334  0.5416 -0.1649 -0.3450
  162MOL   C17532697   1.398   1.573   2.362 -0.2409 -0.8180  0.3876
  162MOL   N17632698   1.425   1.505   2.481 -0.2531  0.2060 -0.5360
  162MOL   H17732699   1.225   1.445   2.306  0.8274 -0.2360 -0.2933
  162MOL   H17832700   1.179   1.569   2.418  1.0722  1.3292 -0.2827
  162MOL   H17932701   1.453   1.548   2.271 -0.5142  0.1924 -0.0654
  162MOL   H18032702   1.408   1.680   2.384 -2.2083 -0.6669  0.6302
  162MOL   H18132703   1.402   1.558   2.563  3.4277  0.1282  0.6241
  162MOL   C18232704   1.465   1.377   2.483  0.0283  0.7184 -0.1110
  162MOL   O18332705   1.512   1.318   2.389 -0.0883  0.2172  0.3373
  162MOL   C18432706   1.452   1.297   2.615 -0.0070  0.7223 -0.0515
  162MOL   C18532707   1.529   1.160   2.613  0.4509  0.1984  0.1688
  162MOL   N18632708   1.673   1.173   2.590 -0.1934  0.0378 -0.0139
  162MOL   H18732709   1.351   1.286   2.653  0.8334 -2.6306  1.3637
  162MOL   H18832710   1.507   1.358   2.687  3.5530 -2.7095  0.3285
  162MOL   H18932711   1.506   1.116   2.710 -2.1068  2.4346  0.6421
  162MOL   H19032712   1.481   1.099   2.537 -1.1686  0.7745  0.7048
  162MOL   H19132713   1.709   1.162   2.496 -1.5138  2.8075 -0.8848
  162MOL   C19232714   1.773   1.173   2.675  0.5855 -0.3059 -0.0704
  162MOL   O19332715   1.756   1.210   2.795  0.3526 -0.0137 -0.3198
  162MOL   C19432716   1.906   1.106   2.646 -0.8721  0.1565 -0.0601
  162MOL   C19532717   2.012   1.195   2.576 -0.0524  0.4507  0.4056
  162MOL   N19632718   2.066   1.299   2.662  0.2234  0.0210  0.2473
  162MOL   H19732719   1.951   1.064   2.735 -0.0026 -1.2072 -1.1244
  162MOL   H19832720   1.894   1.012   2.592 -0.3215  1.3548 -2.3778
  162MOL   H19932721   2.094   1.132   2.540  0.8482  0.6198  2.0957
  162MOL   H20032722   1.956   1.237   2.493 -0.1213  0.7778  0.6170
  162MOL   H20132723   2.143   1.332   2.606  2.4356 -1.6956  2.1731
  162MOL   H20232724   2.005   1.380   2.668  0.3820  0.0303  2.4125
  163MOL     C132725   2.505   7.106   7.212 -0.2614  0.4663 -0.2547
  163MOL     O232726   2.493   7.073   7.328 -0.6219  0.3044  0.1925
  163MOL     C332727   2.552   7.249   7.176 -0.1438 -0.8618 -0.6848
  163MOL     C432728   2.442   7.336   7.114 -0.1569 -0.5698  0.4669
  163MOL     N532729   2.371   7.432   7.203 -0.3078  0.0585 -0.0824
  163MOL     H632730   2.643   7.235   7.117 -0.1544 -1.0968 -0.6481
  163MOL     H732731   2.591   7.296   7.266 -2.5312 -0.9348  0.4028
  163MOL     H832732   2.365   7.280   7.060 -0.8037  0.1881  0.5935
  163MOL     H932733   2.492   7.400   7.041 -2.9582  0.3912 -0.6878
  163MOL    H1032734   2.363   7.413   7.302  1.5099  1.6745  0.4089
  163MOL    H1132735   2.493   7.041   7.125 -2.7631 -1.0931  1.1946
  163MOL    C1232736   2.303   7.538   7.170 -0.1375 -0.4394  0.1663
  163MOL    O1332737   2.300   7.588   7.056  0.7915  0.0624 -0.4417
  163MOL    C1432738   2.241   7.598   7.295  0.3489  0.0399 -0.0826
  163MOL    C1532739   2.091   7.623   7.289 -0.1761  0.0278  0.3221
  163MOL    N1632740   2.020   7.501   7.341 -0.0274 -0.0169  0.0071
  163MOL    H1732741   2.300   7.690   7.296 -0.4288  0.5384  1.6798
  163MOL    H1832742   2.277   7.563   7.392 -0.6318  0.1535  0.3359
  163MOL    H1932743   2.062   7.718   7.333 -0.9862  0.8759 -2.0034
  163MOL    H2032744   2.056   7.635   7.187 -0.6966  2.6013  0.7712
  163MOL    H2132745   2.065   7.411   7.335  0.5428  0.2393  0.3949
  163MOL    C2232746   1.901   7.510   7.394 -0.6961 -0.2502  0.1274
  163MOL    O2332747   1.842   7.620   7.411  0.2153 -0.0656  0.2170
  163MOL    C2432748   1.850   7.375   7.444  0.6362  0.0068  0.1166
  163MOL    C2532749   1.741   7.389   7.553 -0.3001 -0.5014  0.0871
  163MOL    N2632750   1.790   7.403   7.684  0.8293 -0.0502  0.1629
  163MOL    H2732751   1.932   7.315   7.483  0.1868 -0.1336  0.8703
  163MOL    H2832752   1.822   7.319   7.355 -0.9108 -1.1480  1.2850
  163MOL    H2932753   1.667   7.461   7.518 -0.2209 -1.1321 -1.4189
  163MOL    H3032754   1.680   7.300   7.557  0.8224 -1.1843  2.7141
  163MOL    H3132755   1.769   7.487   7.736 -1.8898 -0.4484 -0.2443
  163MOL    C3232756   1.854   7.312   7.760 -0.1951  0.0555  0.9154
  163MOL    O3332757   1.886   7.192   7.726 -0.2491  0.1484 -0.0867
  163MOL    C3432758   1.889   7.367   0.122  0.2226  0.5425 -0.0408
  163MOL    C3532759   1.966   7.264   0.201 -0.0327  0.8179  0.0787
  163MOL    N3632760   1.972   7.289   0.346  0.5378 -0.0584  0.0384
  163MOL    H3732761   1.802   7.393   0.182  1.7613  0.0703  2.4637
  163MOL    H3832762   1.963   7.447   0.115  0.2120  0.9574  3.5411
  163MOL    H3932763   1.902   7.176   0.203  0.8194  0.2027  0.3094
  163MOL    H4032764   2.065   7.245   0.159 -0.5238  1.3962 -1.3653
  163MOL    H4132765   1.907   7.240   0.407  1.2487 -0.0078  0.8431
  163MOL    C4232766   2.074   7.362   0.401  0.3087 -0.0862 -0.5904
  163MOL    O4332767   2.157   7.423   0.341  0.1948  0.1796  0.8275
  163MOL    C4432768   2.077   7.361   0.555 -0.8656  0.0837  0.2240
  163MOL    C4532769   2.210   7.395   0.627  0.2517  0.2045 -0.4098
  163MOL    N4632770   2.229   7.532   0.657  0.1029  0.6659  0.5415
  163MOL    H4732771   1.992   7.415   0.597 -1.3752 -0.2514 -0.3608
  163MOL    H4832772   2.057   7.258   0.586 -2.7605  0.9889  2.1220
  163MOL    H4932773   2.221   7.347   0.724 -1.0969 -0.0987 -0.4046
  163MOL    H5032774   2.301   7.370   0.571  1.0765  1.5389  0.2993
  163MOL    H5132775   2.295   7.592   0.611  0.9250 -0.6943 -0.0691
  163MOL    C5232776   2.164   7.593   0.755 -0.0914 -0.3098 -0.6011
  163MOL    O5332777   2.095   7.536   0.842 -0.4387  0.3198  0.3044
  163MOL    C5432778   2.184   7.744   0.761  0.5197 -0.0286 -0.0591
  163MOL    C5532779   2.103   0.039   0.864 -0.4576 -0.7420  0.3366
  163MOL    N5632780   1.978   0.078   0.812  0.0459  0.0971  0.4143
  163MOL    H5732781   2.290   7.765   0.776  0.4430  0.2580  0.0965
  163MOL    H5832782   2.158   7.780   0.662 -0.2630  0.3449  0.2731
  163MOL    H5932783   2.160   0.129   0.886 -2.8908  1.0602 -0.5029
  163MOL    H6032784   2.087   7.764   0.956  2.1625 -1.3164  0.4981
  163MOL    H6132785   1.905   0.008   0.808  0.7536 -0.5402 -2.4177
  163MOL    C6232786   1.944   0.199   0.768  0.2659 -0.3617  0.4862
  163MOL    O6332787   2.021   0.289   0.741 -0.2312 -0.5883 -0.1750
  163MOL    C6432788   1.796   0.218   0.742 -0.1409  0.3830 -0.1132
  163MOL    C6532789   1.729   0.347   0.769  0.3396  0.0208  0.1699
  163MOL    N6632790   1.718   0.374   0.905  0.1274 -0.1520  0.3662
  163MOL    H6732791   1.788   0.189   0.637  0.8777 -0.6677  0.0839
  163MOL    H6832792   1.737   0.143   0.795 -0.9523  0.4931 -0.8480
  163MOL    H6932793   1.775   0.430   0.716  0.2266  1.4426  2.2087
  163MOL    H7032794   1.628   0.344   0.727 -0.4505  1.1051  1.9247
  163MOL    H7132795   1.801   0.368   0.962  0.3749 -0.7022 -0.0487
  163MOL    C7232796   1.615   0.426   0.969  0.2893 -0.1843  0.7903
  163MOL    O7332797   1.505   0.445   0.913  0.1830 -0.1213 -0.2186
  163MOL    C7432798   1.632   0.473   1.108  0.4654 -0.3426 -0.0601
  163MOL    C7532799   1.508   0.423   1.192  0.2384 -0.5761  0.4447
  163MOL    N7632800   1.548   0.408   1.327  0.2695 -0.0618 -0.7559
  163MOL    H7732801   1.716   0.411   1.139  0.2682 -2.0059 -2.6897
  163MOL    H7832802   1.659   0.578   1.112 -1.4306  0.1176  1.1635
  163MOL    H7932803   1.443   0.510   1.194  0.1205 -0.5379 -2.5766
  163MOL    H8032804   1.450   0.340   1.150  0.5172  0.5663 -2.3296
  163MOL    H8132805   1.540   0.495   1.378 -1.7048 -0.6752  0.0091
  163MOL    C8232806   1.593   0.295   1.391  0.4095 -0.1019  0.1413
  163MOL    O8332807   1.604   0.190   1.331  0.9699 -0.2186  0.2589
  163MOL    C8432808   1.615   0.302   1.546  0.2297  0.3314  0.0247
  163MOL    C8532809   1.734   0.218   1.590 -0.1340  0.2289 -0.1622
  163MOL    N8632810   1.712   0.076   1.565 -0.0614 -1.2983 -0.2065
  163MOL    H8732811   1.641   0.406   1.564 -3.5259  0.9052  2.6944
  163MOL    H8832812   1.526   0.286   1.607  1.7927 -1.6791  1.8581
  163MOL    H8932813   1.820   0.246   1.529 -1.4960  0.7703 -1.8784
  163MOL    H9032814   1.754   0.235   1.695 -0.1875  0.9907 -0.2682
  163MOL    H9132815   1.724   0.042   1.471  2.1055 -1.2331  0.0209
  163MOL    C9232816   1.626   7.777   1.631 -0.0197  0.4400 -0.0557
  163MOL    O9332817   1.591   0.015   1.749 -0.2586 -0.0892  0.1988
  163MOL    C9432818   1.557   7.663   1.545 -0.8085  0.1684 -0.5238
  163MOL    C9532819   1.532   7.526   1.614  0.3089 -0.6116  0.5369
  163MOL    N9632820   1.429   7.525   1.719 -0.3908 -0.3327  0.2187
  163MOL    H9732821   1.461   7.685   1.498 -1.0183 -2.1176 -1.2224
  163MOL    H9832822   1.625   7.637   1.463  0.7887  2.5089 -0.0007
  163MOL    H9932823   1.508   7.452   1.537  0.3253  0.9386 -1.0028
  163MOL   H10032824   1.630   7.496   1.649  0.9435  3.3125  2.3311
  163MOL   H10132825   1.404   7.618   1.748  0.7777  0.0509  0.0354
  163MOL   C10232826   1.371   7.420   1.780  0.1683  0.2724  0.5276
  163MOL   O10332827   1.405   7.304   1.751  0.2451 -0.4893  0.0907
  163MOL   C10432828   1.256   7.455   1.883 -0.1551 -0.2893  0.4631
  163MOL   C10532829   1.186   7.333   1.949 -0.2344 -0.0918 -0.2709
  163MOL   N10632830   1.240   7.288   2.078 -0.4785  0.1562  0.6539
  163MOL   H10732831   1.186   7.522   1.833 -0.7614 -0.8407  0.5681
  163MOL   H10832832   1.288   7.507   1.973 -0.5090  0.5455  0.1133
  163MOL   H10932833   1.083   7.363   1.969 -0.0634  0.2175  0.1759
  163MOL   H11032834   1.171   7.247   1.885 -2.3501  0.5736 -0.7039
  163MOL   H11132835   1.292   7.201   2.078 -1.3925 -0.4153 -1.0312
  163MOL   C11232836   1.221   7.349   2.193  0.3776 -0.5712 -0.3279
  163MOL   O11332837   1.147   7.447   2.199 -0.4015 -1.1070  0.0574
  163MOL   C11432838   1.272   7.283   2.318 -0.0944  0.7036 -0.3133
  163MOL   C11532839   1.284   7.380   2.438  0.2463 -0.2010 -0.0899
  163MOL   N11632840   1.400   7.471   2.437 -0.4962  0.5664  0.1458
  163MOL   H11732841   1.374   7.248   2.302 -0.2618 -0.8136  1.8240
  163MOL   H11832842   1.211   7.200   2.353 -1.3428  1.9168  0.4002
  163MOL   H11932843   1.191   7.436   2.445  1.1430  1.4529 -1.0438
  163MOL   H12032844   1.275   7.326   2.532  3.4879  0.1757  0.5098
  163MOL   H12132845   1.451   7.497   2.353  0.3707 -0.6652  0.2694
  163MOL   C12232846   1.453   7.517   2.554  0.0242 -0.3851  0.2706
  163MOL   O12332847   1.404   7.502   2.662  0.3478 -0.3776  0.4160
  163MOL   C12432848   1.578   7.598   2.525  0.5440  0.2453 -0.1791
  163MOL   C12532849   1.702   7.541   2.600  0.5958  0.0824 -0.6421
  163MOL   N12632850   1.769   7.451   2.501  0.7550  0.0550 -0.3743
  163MOL   H12732851   1.571   7.699   2.565  0.5750 -0.0579  0.6234
  163MOL   H12832852   1.602   7.612   2.420  0.4617 -2.1939 -0.5583
  163MOL   H12932853   1.772   7.621   2.624  1.2144 -0.3355 -1.0612
  163MOL   H13032854   1.687   7.492   2.697  0.2838  0.2473 -0.6074
  163MOL   H13132855   1.817   7.499   2.426  0.5353  3.2003  1.3767
  163MOL   C13232856   1.752   7.320   2.493 -0.2001 -0.5160 -0.6491
  163MOL   O13332857   1.717   7.259   2.595 -0.1072 -0.0758 -0.1662
  163MOL   C13432858   1.778   7.257   2.348 -0.4917 -0.5745 -0.1214
  163MOL   C13532859   1.891   7.163   2.341  0.1597  0.2247 -0.2224
  163MOL   N13632860   1.886   7.042   2.431  0.1465 -0.3387 -0.3185
  163MOL   H13732861   1.792   7.348   2.288 -2.2605 -0.3646 -0.2524
  163MOL   H13832862   1.686   7.209   2.316  0.9499 -1.2887 -3.3505
  163MOL   H13932863   1.922   7.139   2.239  3.3486  3.1491 -0.0169
  163MOL   H14032864   1.976   7.227   2.362 -0.0282  0.4749 -0.2175
  163MOL   H14132865   1.897   7.057   2.530  2.1994  1.3985 -0.7725
  163MOL   C14232866   1.829   6.927   2.393 -0.4611  0.0031  0.4016
  163MOL   O14332867   1.793   6.902   2.273 -0.3706 -0.2824  0.1638
  163MOL   C14432868   1.815   6.829   2.506 -0.3078  0.5253  0.6957
  163MOL   C14532869   1.726   6.711   2.481  0.0011 -0.2859 -0.1910
  163MOL   N14632870   1.806   6.605   2.423  0.5142 -0.1274 -0.4235
  163MOL   H14732871   1.789   6.892   2.590 -2.8968 -0.5697  0.7905
  163MOL   H14832872   1.915   6.787   2.522 -1.1381 -2.1270 -0.6558
  163MOL   H14932873   1.686   6.679   2.577 -0.9822  1.6647  0.0632
  163MOL   H15032874   1.652   6.739   2.405 -1.2054  0.5086  1.2497
  163MOL   H15132875   1.906   6.618   2.416  0.3247  0.3362 -2.6157
  163MOL   C15232876   1.769   6.477   2.426 -0.2125  0.4969 -0.5128
  163MOL   O15332877   1.648   6.446   2.440  0.4277 -0.2831 -0.8610
  163MOL   C15432878   1.884   6.369   2.422  0.1669  0.5077  0.2909
  163MOL   C15532879   1.870   6.256   2.527 -0.1344 -1.0617 -0.3204
  163MOL   N15632880   1.917   6.298   2.651  0.2156 -0.0436 -0.1476
  163MOL   H15732881   1.984   6.410   2.409  0.5460  0.1937  2.1386
  163MOL   H15832882   1.867   6.330   2.321 -0.3239 -0.5556  0.7740
  163MOL   H15932883   1.763   6.237   2.518 -0.3692  1.1602 -2.6317
  163MOL   H16032884   1.925   6.169   2.489  0.0490 -0.2430 -1.9754
  163MOL   H16132885   1.986   6.371   2.649  1.8235 -1.5291  0.2931
  163MOL   C16232886   1.882   6.250   2.769 -0.1322 -0.2478 -0.8171
  163MOL   O16332887   1.793   6.163   2.769  0.5322  0.8733  0.1640
  163MOL   C16432888   1.942   6.304   2.899  0.2644  0.1095 -0.6759
  163MOL   C16532889   2.041   6.205   2.957 -0.0229 -0.8270 -0.1757
  163MOL   N16632890   2.165   6.201   2.884 -0.6646 -0.1703 -0.0458
  163MOL   H16732891   1.859   6.315   2.968 -1.0921 -0.8656 -2.1393
  163MOL   H16832892   1.982   6.406   2.894  1.2874 -0.2455 -0.0390
  163MOL   H16932893   2.053   6.245   3.058 -3.3489  0.2521 -0.1357
  163MOL   H17032894   2.007   6.101   2.952  0.6677 -1.0811  0.3126
  163MOL   H17132895   2.171   6.136   2.807  0.8648 -0.1653  0.0350
  163MOL   C17232896   2.269   6.280   2.902  0.5479  0.3542  0.0651
  163MOL   O17332897   2.260   6.383   2.970  0.6269  0.5690  0.0171
  163MOL   C17432898   2.400   6.251   2.819  0.4430  0.1054 -0.0393
  163MOL   C17532899   2.508   6.366   2.831 -0.5938  0.7061  0.5764
  163MOL   N17632900   2.611   6.350   2.732 -0.3336 -0.7280  0.3931
  163MOL   H17732901   2.384   6.260   2.711  1.3290 -1.1695 -0.2912
  163MOL   H17832902   2.439   6.152   2.843  1.2229  0.4454  0.1064
  163MOL   H17932903   2.460   6.463   2.821 -2.6781  0.0458  3.5585
  163MOL   H18032904   2.541   6.367   2.935  0.8378 -2.2420  0.2013
  163MOL   H18132905   2.590   6.308   2.643  2.6623 -2.0599  0.2537
  163MOL   C18232906   2.720   6.430   2.745  0.6112 -0.7774  0.1842
  163MOL   O18332907   2.735   6.511   2.836 -0.3819  0.2850  0.4462
  163MOL   C18432908   2.814   6.429   2.621  0.0571  0.1715  0.2972
  163MOL   C18532909   2.916   6.545   2.623 -0.4380  0.6409  0.0276
  163MOL   N18632910   3.028   6.529   2.530  0.6699  0.0916 -0.4633
  163MOL   H18732911   2.753   6.433   2.530  0.1935  0.1539  0.2046
  163MOL   H18832912   2.867   6.334   2.620 -1.1357 -0.5113  0.0944
  163MOL   H18932913   2.863   6.640   2.609 -2.8194 -1.0330 -2.7566
  163MOL   H19032914   2.971   6.552   2.717  0.1862  2.7089 -0.4448
  163MOL   H19132915   3.061   6.434   2.520 -0.5085 -0.5855  1.6792
  163MOL   C19232916   3.074   6.621   2.450 -0.3997 -0.3952  0.3660
  163MOL   O19332917   3.013   6.726   2.425 -0.1025 -0.5620 -0.3616
  163MOL   C19432918   3.211   6.592   2.381  0.3975  0.3063  0.1624
  163MOL   C19532919   3.295   6.720   2.335  0.1458  0.3498  0.5135
  163MOL   N19632920   3.350   6.800   2.441  0.9158 -0.1949  0.2431
  163MOL   H19732921   3.274   6.528   2.444 -0.3363  0.2584  0.8520
  163MOL   H19832922   3.187   6.518   2.304  2.4099 -0.8373  0.5855
  163MOL   H19932923   3.376   6.683   2.271  0.5958  0.8566  0.7778
  163MOL   H20032924   3.233   6.774   2.263 -0.5141 -0.5222  0.4269
  163MOL   H20132925   3.400   6.876   2.397 -0.5405  1.4423  1.3819
  163MOL   H20232926   3.281   6.848   2.497  1.6478  0.2836  0.7455
  164MOL     C132927   3.523   0.197   7.596  0.3458 -0.0551  0.4460
  164MOL     O232928   3.526   0.120   7.498 -0.2725  0.4011 -0.3626
  164MOL     C332929   3.603   0.333   7.594 -0.1592 -0.2468  0.5721
  164MOL     C432930   3.730   0.333   7.682  0.0166  0.2171  0.1583
  164MOL     N532931   3.701   0.312   0.046  0.3499 -0.1953 -0.5861
  164MOL     H632932   3.527   0.401   7.633  0.1090 -0.0750  0.8008
  164MOL     H732933   3.624   0.346   7.488  2.4219 -1.9686  0.8243
  164MOL     H832934   3.793   0.421   7.668  0.6569 -0.4319 -1.1881
  164MOL     H932935   3.796   0.257   7.641 -0.0539 -0.9487  2.1562
  164MOL    H1032936   3.604   0.314   0.076  0.0682 -2.2436 -1.2623
  164MOL    H1132937   3.468   0.188   7.690 -2.9664  2.4986 -1.1333
  164MOL    C1232938   3.782   0.267   0.142  0.8549 -0.1450  0.3688
  164MOL    O1332939   3.904   0.246   0.119  0.8661 -0.3518  0.2063
  164MOL    C1432940   3.725   0.223   0.271  0.2769 -0.1378  0.0210
  164MOL    C1532941   3.767   0.319   0.383 -0.5410  0.1041 -0.3464
  164MOL    N1632942   3.681   0.438   0.389  0.1273 -0.8147 -0.8348
  164MOL    H1732943   3.768   0.124   0.286 -1.7587 -1.2931 -1.4434
  164MOL    H1832944   3.616   0.219   0.268  0.1893  1.9300 -0.3784
  164MOL    H1932945   3.770   0.270   0.480 -1.1846 -1.3537 -1.0492
  164MOL    H2032946   3.865   0.368   0.376 -0.5781  0.0251 -1.4431
  164MOL    H2132947   3.709   0.512   0.327 -1.4407 -0.2776 -0.9371
  164MOL    C2232948   3.555   0.454   0.428 -0.4514  0.2527 -0.6912
  164MOL    O2332949   3.496   0.373   0.489 -0.0745  0.3932  0.1122
  164MOL    C2432950   3.483   0.575   0.372  0.1624 -1.0542 -0.5221
  164MOL    C2532951   3.402   0.560   0.248 -0.0387 -1.0453  0.5390
  164MOL    N2632952   3.314   0.443   0.241 -0.0311 -0.1566  0.7023
  164MOL    H2732953   3.551   0.658   0.354 -0.1649 -0.1928  2.0973
  164MOL    H2832954   3.421   0.616   0.452 -0.1951  0.9186 -1.7701
  164MOL    H2932955   3.361   0.657   0.219  0.7252 -0.9407 -0.2056
  164MOL    H3032956   3.473   0.547   0.167  0.1851 -2.4499  0.9442
  164MOL    H3132957   3.230   0.467   0.291 -0.4055  0.2801 -0.1156
  164MOL    C3232958   3.338   0.328   0.173  0.4053  0.2068  0.0262
  164MOL    O3332959   3.431   0.316   0.101  0.2955 -0.3693 -0.5852
  164MOL    C3432960   3.242   0.206   0.186 -0.1306  0.3097 -0.4442
  164MOL    C3532961   3.181   0.175   0.050 -0.0233 -0.0235 -0.3880
  164MOL    N3632962   3.098   0.277   0.007 -0.9227  0.8009  0.2924
  164MOL    H3732963   3.160   0.244   0.248  1.9790  1.3876  1.8189
  164MOL    H3832964   3.283   0.117   0.233  1.5322  1.4014  0.2509
  164MOL    H3932965   3.258   0.148   7.757 -0.5654 -2.2718 -0.1906
  164MOL    H4032966   3.120   0.085   0.058 -0.7826  0.6226  1.3322
  164MOL    H4132967   3.020   0.308   0.064 -1.9393 -0.9213 -0.1495
  164MOL    C4232968   3.113   0.335   7.669 -0.2688 -0.0294  0.8071
  164MOL    O4332969   3.207   0.314   7.592 -0.1363  0.4166  0.2648
  164MOL    C4432970   3.007   0.436   7.635 -0.0290  0.0943 -0.4447
  164MOL    C4532971   3.015   0.489   7.492  0.0354  0.3419  0.0993
  164MOL    N4632972   2.946   0.411   7.385 -0.4144  0.4998  0.4751
  164MOL    H4732973   2.909   0.393   7.657  0.7735 -1.0820  0.9743
  164MOL    H4832974   3.022   0.515   7.708  1.8860 -2.0456  1.5977
  164MOL    H4932975   2.968   0.587   7.490 -2.4671 -0.7442  2.2826
  164MOL    H5032976   3.117   0.504   7.456 -0.0161 -1.3109 -0.8010
  164MOL    H5132977   2.882   0.341   7.420 -0.2877 -0.3938 -1.0088
  164MOL    C5232978   2.952   0.435   7.249  0.7366  0.3640  0.0652
  164MOL    O5332979   3.020   0.534   7.211  0.1876 -0.0168  0.0859
  164MOL    C5432980   2.876   0.358   7.145 -0.2635 -0.2238 -0.2014
  164MOL    C5532981   2.960   0.349   7.013 -0.1412  0.1442 -0.3088
  164MOL    N5632982   2.931   0.231   6.929 -0.7503 -0.2169  0.2210
  164MOL    H5732983   2.857   0.254   7.174 -1.5585  0.1917  0.4522
  164MOL    H5832984   2.784   0.407   7.115 -0.2257  0.9349  1.5535
  164MOL    H5932985   3.067   0.346   7.036 -0.1322 -0.4448 -0.4202
  164MOL    H6032986   2.949   0.442   6.956  3.3951  0.4774 -0.5563
  164MOL    H6132987   2.882   0.147   6.958 -0.2338 -1.0546 -1.2636
  164MOL    C6232988   2.974   0.227   6.798 -0.1549  0.3211  0.4087
  164MOL    O6332989   3.051   0.311   6.750  0.6260 -0.4002  0.1030
  164MOL    C6432990   2.931   0.108   6.717  0.8143 -0.1359  0.3229
  164MOL    C6532991   2.942   0.116   6.558 -0.6464 -0.1005  0.6506
  164MOL    N6632992   2.872   0.224   6.488 -0.1835 -0.3870 -0.1405
  164MOL    H6732993   2.987   0.025   6.761  1.5603  0.3528  0.2972
  164MOL    H6832994   2.826   0.098   6.744  0.2563  0.9767 -1.3586
  164MOL    H6932995   3.048   0.123   6.533 -0.6042 -0.3379  0.7638
  164MOL    H7032996   2.902   0.019   6.529 -1.6862  0.1294  1.2933
  164MOL    H7132997   2.934   0.267   6.421 -0.1320 -0.4396 -0.1265
  164MOL    C7232998   2.743   0.262   6.493  0.4179  0.0528 -0.5739
  164MOL    O7332999   2.655   0.221   6.565 -0.4828  0.3244  0.3583
  164MOL    C7433000   2.704   0.371   6.388  0.1057 -0.1811  1.0370
  164MOL    C7533001   2.660   0.506   6.460 -0.3227 -0.5937 -0.6630
  164MOL    N7633002   2.566   0.496   6.572  0.2275  0.3399  0.5122
  164MOL    H7733003   2.786   0.383   6.317 -0.5205 -0.5610  0.2470
  164MOL    H7833004   2.618   0.339   6.330  0.3223  0.7640  0.1794
  164MOL    H7933005   2.750   0.552   6.503 -1.7058  1.4117  0.1620
  164MOL    H8033006   2.628   0.578   6.385  1.8327 -1.1762 -2.2039
  164MOL    H8133007   2.569   0.411   6.626  2.4603  0.0098 -0.0970
  164MOL    C8233008   2.475   0.587   6.601  0.0732  0.6104  0.1905
  164MOL    O8333009   2.446   0.690   6.538 -0.3090  0.7334 -0.3026
  164MOL    C8433010   2.393   0.551   6.727  0.1860 -0.1090  0.3493
  164MOL    C8533011   2.243   0.530   6.702  0.1604  0.5769 -0.0443
  164MOL    N8633012   2.213   0.425   6.609  0.0041  0.0965  0.3064
  164MOL    H8733013   2.435   0.465   6.780 -2.1296 -1.1595  0.5405
  164MOL    H8833014   2.409   0.636   6.793  0.2316  1.0951 -1.1808
  164MOL    H8933015   2.192   0.510   6.796  0.9897 -1.3850  0.0123
  164MOL    H9033016   2.193   0.623   6.675  0.0894  1.3270  2.5283
  164MOL    H9133017   2.179   0.461   6.521  0.0721  2.2311  1.1445
  164MOL    C9233018   2.241   0.292   6.621 -0.2847  0.2272 -0.3589
  164MOL    O9333019   2.268   0.239   6.725 -0.1503 -0.5003  0.0177
  164MOL    C9433020   2.207   0.216   6.501  0.1551  0.7771  0.6700
  164MOL    C9533021   2.330   0.220   6.394  0.1649 -0.4806  0.6540
  164MOL    N9633022   2.312   0.126   6.281 -0.8137  0.6179  0.4689
  164MOL    H9733023   2.184   0.111   6.517  1.7025  0.7096  2.6247
  164MOL    H9833024   2.119   0.256   6.450  0.7175 -0.6142 -1.4366
  164MOL    H9933025   2.335   0.326   6.368  1.8762 -0.7457 -0.1033
  164MOL   H10033026   2.420   0.196   6.449  0.7264  1.5764  0.6916
  164MOL   H10133027   2.220   0.085   6.268 -0.3788 -0.3978  0.5742
  164MOL   C10233028   2.402   0.081   6.191 -0.5664 -0.0751 -0.5193
  164MOL   O10333029   2.519   0.117   6.199 -0.3478 -0.2537  0.3025
  164MOL   C10433030   2.360   7.754   6.100  0.5191  0.9024 -0.6051
  164MOL   C10533031   2.391   7.777   5.952 -0.6567  0.3337  0.1468
  164MOL   N10633032   2.338   7.671   5.871 -0.0891  0.2993  0.0655
  164MOL   H10733033   2.254   7.737   6.120  0.8919  0.0538  0.7554
  164MOL   H10833034   2.411   7.664   6.135 -2.6949 -0.7383  0.0724
  164MOL   H10933035   2.347   0.089   5.914 -2.6312  0.0384  1.6239
  164MOL   H11033036   2.499   7.775   5.937 -0.4451  0.9997  1.5098
  164MOL   H11133037   2.395   7.590   5.854  1.8722  1.9448 -1.4640
  164MOL   C11233038   2.206   7.654   5.837  0.5990  0.2042 -1.4071
  164MOL   O11333039   2.124   7.742   5.843 -0.1374  0.0885  0.1843
  164MOL   C11433040   2.170   7.507   5.793  0.1655 -0.2958 -0.2042
  164MOL   C11533041   2.020   7.478   5.781 -0.8019  0.0527 -0.0011
  164MOL   N11633042   1.948   7.504   5.902  0.0138 -0.1896 -0.4496
  164MOL   H11733043   2.223   7.447   5.868 -0.7338 -0.5295  0.2586
  164MOL   H11833044   2.226   7.478   5.705  0.2912 -3.8446  0.9546
  164MOL   H11933045   1.979   7.532   5.696 -0.3365 -0.5395 -0.6062
  164MOL   H12033046   2.018   7.374   5.749 -0.1806  0.2458 -0.6978
  164MOL   H12133047   1.971   7.590   5.950 -0.6774 -1.4236  2.1819
  164MOL   C12233048   1.885   7.411   5.979 -0.8282  0.0378 -0.0624
  164MOL   O12333049   1.865   7.297   5.936 -0.2928 -0.6065 -0.3799
  164MOL   C12433050   1.849   7.442   6.127 -0.4450 -0.5904  0.0179
  164MOL   C12533051   1.728   7.364   6.175  0.3052 -0.3794 -0.3213
  164MOL   N12633052   1.637   7.445   6.258 -0.1954  0.3192 -0.2587
  164MOL   H12733053   1.833   7.550   6.123  1.8710 -0.2209 -0.1027
  164MOL   H12833054   1.938   7.422   6.186 -0.3477 -1.2746 -0.3619
  164MOL   H12933055   1.666   7.330   6.092 -0.9888 -0.1208  0.5254
  164MOL   H13033056   1.757   7.284   6.242 -0.3263  0.3858  0.8764
  164MOL   H13133057   1.622   7.409   6.351 -1.4497  0.6567 -0.3286
  164MOL   C13233058   1.570   7.555   6.217 -0.0395 -0.0369 -0.1662
  164MOL   O13333059   1.600   7.612   6.110 -0.5479 -0.3238  0.6040
  164MOL   C13433060   1.472   7.615   6.313  0.6006  0.2245 -0.3917
  164MOL   C13533061   1.360   7.704   6.248  0.3493 -0.3438  0.0411
  164MOL   N13633062   1.278   7.625   6.151 -0.0626 -0.0852 -0.3296
  164MOL   H13733063   1.527   7.683   6.378  0.1437  1.4720 -1.2959
  164MOL   H13833064   1.422   7.541   6.376 -0.2104 -1.0560 -2.5215
  164MOL   H13933065   1.286   7.738   6.320  0.0406 -1.0546  0.0650
  164MOL   H14033066   1.406   0.006   6.194  0.2693  0.0461  0.5550
  164MOL   H14133067   1.311   7.532   6.131  0.9880 -0.2289  1.8983
  164MOL   C14233068   1.162   7.665   6.106 -0.2993  0.1561 -0.1377
  164MOL   O14333069   1.109   7.771   6.136 -0.2587 -0.0462 -0.2695
  164MOL   C14433070   1.102   7.563   6.003 -0.3393 -0.2963 -0.5205
  164MOL   C14533071   0.966   7.603   5.925 -0.4254 -0.1323 -0.5902
  164MOL   N14633072   0.984   7.723   5.845  0.3442 -0.0004  0.5904
  164MOL   H14733073   1.082   7.470   6.055 -0.3980 -0.7496 -1.3567
  164MOL   H14833074   1.181   7.539   5.932  1.8852 -1.9963  2.4214
  164MOL   H14933075   0.953   7.515   5.861 -2.1866  1.0792 -1.9357
  164MOL   H15033076   0.880   7.606   5.991 -0.8974 -2.4796 -1.0428
  164MOL   H15133077   1.079   7.754   5.829  0.5012 -0.5005  0.5684
  164MOL   C15233078   0.886   0.016   5.792 -1.0170  0.1276  0.2800
  164MOL   O15333079   0.771   7.762   5.791  1.0740  0.5334 -0.2938
  164MOL   C15433080   0.931   0.137   5.707 -0.0438  0.5449  0.6659
  164MOL   C15533081   1.008   0.251   5.777 -0.2148 -0.2165 -0.5952
  164MOL   N15633082   0.952   0.380   5.777  0.5672 -0.3431 -0.3323
  164MOL   H15733083   0.850   0.197   5.666  0.6349  1.0646  0.0690
  164MOL   H15833084   0.986   0.101   5.620  1.2173 -2.7179  2.7210
  164MOL   H15933085   1.012   0.216   5.880 -1.3179 -0.8571 -0.7599
  164MOL   H16033086   1.102   0.259   5.723 -1.1377 -2.9837 -2.7266
  164MOL   H16133087   1.012   0.455   5.746  0.7452 -1.0109 -1.6305
  164MOL   C16233088   0.836   0.419   5.828 -0.0506 -0.9172  0.7340
  164MOL   O16333089   0.757   0.342   5.879  0.1239 -0.5254 -0.3943
  164MOL   C16433090   0.810   0.566   5.809 -0.2178  0.3711  0.3108
  164MOL   C16533091   0.670   0.611   5.757  0.4268 -0.2041  0.3974
  164MOL   N16633092   0.674   0.753   5.731 -0.3747 -0.1246 -0.9273
  164MOL   H16733093   0.890   0.609   5.749 -0.6438  1.4953  0.5301
  164MOL   H16833094   0.826   0.603   5.910  0.3308 -0.1116  0.4082
  164MOL   H16933095   0.646   0.552   5.668  2.4624  0.4910 -0.6457
  164MOL   H17033096   0.596   0.584   5.832  2.2035  1.0592  2.6698
  164MOL   H17133097   0.635   0.804   5.809  0.8019 -0.6228  0.0131
  164MOL   C17233098   0.706   0.817   5.620 -0.3729  0.5910  0.0270
  164MOL   O17333099   0.755   0.754   5.521 -0.0253  0.3275 -0.2236
  164MOL   C17433100   0.672   0.966   5.608  0.9970 -0.4543 -0.6114
  164MOL   C17533101   0.678   1.028   5.465  0.5197 -0.4536  0.0098
  164MOL   N17633102   0.555   1.016   5.393 -0.5618  0.5281 -0.2164
  164MOL   H17733103   0.738   1.027   5.670 -0.7534 -0.3935  1.2160
  164MOL   H17833104   0.575   0.979   5.655  0.5640 -0.7968 -1.3924
  164MOL   H17933105   0.709   1.132   5.469  1.3417 -0.7304  0.8781
  164MOL   H18033106   0.753   0.983   5.400  1.3189 -1.0968  1.3504
  164MOL   H18133107   0.505   1.103   5.392 -1.4670  0.0033 -0.9546
  164MOL   C18233108   0.525   0.915   5.309  0.7595 -0.7331 -0.4373
  164MOL   O18333109   0.562   0.796   5.330  0.2497 -0.4574  0.0435
  164MOL   C18433110   0.444   0.954   5.182 -0.0744 -0.1746 -0.5801
  164MOL   C18533111   0.469   0.853   5.063  0.6645  0.2241  0.1548
  164MOL   N18633112   0.455   0.711   5.090 -0.1374  1.1467 -0.1922
  164MOL   H18733113   0.462   1.056   5.148 -2.3789 -0.2456 -2.0884
  164MOL   H18833114   0.338   0.957   5.206 -0.0310  0.6703 -0.4732
  164MOL   H18933115   0.397   0.880   4.985 -0.4182  1.1562  1.4534
  164MOL   H19033116   0.571   0.865   5.027  0.8345  0.5954  0.7733
  164MOL   H19133117   0.412   0.678   5.175 -0.9845 -0.2661 -1.1544
  164MOL   C19233118   0.466   0.613   4.996  0.2625 -0.1047  0.4971
  164MOL   O19333119   0.521   0.633   4.883 -0.0696  0.2901 -0.3983
  164MOL   C19433120   0.405   0.475   5.035  0.3836 -0.2213  0.1195
  164MOL   C19533121   0.457   0.346   4.967 -0.2145 -0.2445  0.3650
  164MOL   N19633122   0.599   0.329   4.975  0.0246  0.0825 -0.1662
  164MOL   H19733123   0.405   0.465   5.143 -0.6068 -0.6159  0.0832
  164MOL   H19833124   0.298   0.473   5.014 -0.2920  3.1881  2.7143
  164MOL   H19933125   0.415   0.259   5.017 -3.2676  0.9161 -0.0756
  164MOL   H20033126   0.430   0.336   4.862 -0.1514 -0.0947  0.3343
  164MOL   H20133127   0.630   0.337   5.071 -0.3225  0.5939 -0.0999
  164MOL   H20233128   0.624   0.240   4.934  0.5990  0.4175 -0.5431
  165MOL     C133129   6.849   0.805   6.390 -0.1057  1.0124 -0.0178
  165MOL     O233130   6.949   0.738   6.374  0.0649 -0.3617  0.3063
  165MOL     C333131   6.837   0.883   6.525 -0.5259 -0.3505  0.0293
  165MOL     C433132   6.695   0.950   6.529  0.4119  0.0623  0.1183
  165MOL     N533133   6.690   1.067   6.436  0.4195  0.9582 -0.2102
  165MOL     H633134   6.915   0.957   6.539 -0.9601  0.3928 -1.3931
  165MOL     H733135   6.834   0.820   6.614 -2.3485 -0.1428  0.1376
  165MOL     H833136   6.675   0.995   6.626  3.2308  0.0801  0.7417
  165MOL     H933137   6.615   0.882   6.501  0.1002  1.0149 -1.3800
  165MOL    H1033138   6.648   1.043   6.347  1.1043 -0.1688 -0.2363
  165MOL    H1133139   6.766   0.816   6.321  0.7502 -2.0525 -1.6544
  165MOL    C1233140   6.700   1.200   6.465  0.0294 -0.8917  0.0194
  165MOL    O1333141   6.741   1.245   6.572 -0.1434  0.0272 -0.4406
  165MOL    C1433142   6.657   1.298   6.358 -0.1790 -0.3822  0.9156
  165MOL    C1533143   6.774   1.325   6.260  0.0037 -0.4183  0.5564
  165MOL    N1633144   6.869   1.423   6.317 -0.1585 -0.2212  0.0649
  165MOL    H1733145   6.623   1.387   6.411  0.8191  0.3684  0.3150
  165MOL    H1833146   6.574   1.259   6.300  0.1074  0.5149 -0.1040
  165MOL    H1933147   6.823   1.229   6.242 -2.1203 -1.6098  1.0414
  165MOL    H2033148   6.742   1.354   6.160 -2.2470 -1.3135  0.9943
  165MOL    H2133149   6.876   1.439   6.416 -1.3418  0.9516 -0.0376
  165MOL    C2233150   6.967   1.465   6.236 -0.7670 -0.1182 -0.2291
  165MOL    O2333151   6.980   1.418   6.116  0.3258 -0.3453 -0.1321
  165MOL    C2433152   7.062   1.581   6.282  0.1727  0.1303  0.1764
  165MOL    C2533153   7.167   1.637   6.176 -0.1232 -0.4608  0.3347
  165MOL    N2633154   7.229   1.763   6.206  0.3963  1.1542  0.1073
  165MOL    H2733155   7.119   1.538   6.365 -0.4885 -2.2032 -0.5373
  165MOL    H2833156   6.997   1.665   6.307  0.3363  0.6506 -1.1150
  165MOL    H2933157   7.251   1.572   6.152 -0.2066 -0.4195 -0.0748
  165MOL    H3033158   7.118   1.660   6.081 -1.3623  0.0677  1.0993
  165MOL    H3133159   7.275   1.804   6.126  1.4185  1.5151  0.8758
  165MOL    C3233160   7.241   1.823   6.322 -0.6173  0.6799 -0.2871
  165MOL    O3333161   7.205   1.772   6.430 -0.4668  0.0360 -0.3243
  165MOL    C3433162   7.297   1.965   6.316  0.3913 -0.4332  0.6386
  165MOL    C3533163   7.415   1.990   6.405 -0.0157  0.1050 -0.4641
  165MOL    N3633164   7.394   1.966   6.544  0.1999  0.3007 -0.5296
  165MOL    H3733165   7.214   2.035   6.328 -1.1984 -2.0922 -0.4757
  165MOL    H3833166   7.329   1.989   6.214 -2.3469 -2.8620 -0.8479
  165MOL    H3933167   7.492   1.923   6.367 -1.4051 -1.2128 -0.9936
  165MOL    H4033168   7.459   2.089   6.388  1.4715 -0.3902  0.4684
  165MOL    H4133169   7.428   1.876   6.575 -0.0798  0.0228 -1.0280
  165MOL    C4233170   7.335   2.041   6.638 -0.3045  0.5499  0.3017
  165MOL    O4333171   7.299   2.156   6.607  0.3697 -0.5593  0.2251
  165MOL    C4433172   7.308   1.989   6.784  0.2902 -0.2034  0.9074
  165MOL    C4533173   7.161   1.985   6.827 -0.0744  0.4247 -0.6897
  165MOL    N4633174   7.132   1.969   6.973  1.1166  0.3293  1.0504
  165MOL    H4733175   7.347   1.887   6.782 -2.9084 -1.4545 -1.5361
  165MOL    H4833176   7.362   2.054   6.853  0.0171  2.7250 -1.5415
  165MOL    H4933177   7.094   2.064   6.793  0.6124  0.7801 -1.2297
  165MOL    H5033178   7.119   1.890   6.794  2.5641 -0.6618 -1.0957
  165MOL    H5133179   7.063   2.033   7.009  0.0036 -0.2444 -0.0257
  165MOL    C5233180   7.189   1.885   7.064  0.3366 -0.2742  0.6218
  165MOL    O5333181   7.272   1.797   7.028  1.0010  0.0314 -0.8349
  165MOL    C5433182   7.127   1.910   7.207 -0.1189 -0.1600 -0.4072
  165MOL    C5533183   7.214   1.854   7.323 -0.1314 -0.0434  0.3636
  165MOL    N5633184   7.231   1.712   7.324  0.4637  0.3774 -0.0424
  165MOL    H5733185   7.112   2.018   7.204  1.2185 -0.0014 -2.0899
  165MOL    H5833186   7.028   1.866   7.219  1.0326 -2.9185 -0.7077
  165MOL    H5933187   7.164   1.900   7.409 -1.9881 -1.1814 -0.0782
  165MOL    H6033188   7.310   1.902   7.303 -0.7915  1.4157  0.6082
  165MOL    H6133189   7.155   1.656   7.287  1.0757 -0.1605 -0.4898
  165MOL    C6233190   7.336   1.640   7.370  0.1157 -0.0278 -1.0758
  165MOL    O6333191   7.435   1.694   7.421  0.0098  0.2145 -0.1430
  165MOL    C6433192   7.316   1.486   7.363 -0.1515  0.1016  0.4226
  165MOL    C6533193   7.386   1.421   7.240  0.4650  0.3343  0.2110
  165MOL    N6633194   7.529   1.396   7.255 -0.1686 -0.2408 -0.5904
  165MOL    H6733195   7.355   1.447   7.457  0.7035  0.1566  0.0879
  165MOL    H6833196   7.212   1.457   7.346  1.3409 -2.7873 -4.9170
  165MOL    H6933197   7.335   1.331   7.204 -0.5532  0.3707  1.5584
  165MOL    H7033198   7.380   1.486   7.152 -2.8619  0.1835  0.2520
  165MOL    H7133199   7.559   1.389   7.351  1.7081 -1.0475 -1.2089
  165MOL    C7233200   7.627   1.404   7.156 -0.3464  1.1437 -0.1524
  165MOL    O7333201   7.595   1.436   7.046  0.3281  0.3562  0.1195
  165MOL    C7433202   7.775   1.379   7.194  0.1080 -0.0644 -0.4169
  165MOL    C7533203   0.101   1.411   7.087 -0.3873 -0.2218 -0.4793
  165MOL    N7633204   0.236   1.389   7.132  0.0613 -0.2934 -0.5479
  165MOL    H7733205   0.012   1.429   7.290  2.3605 -0.2070 -0.7222
  165MOL    H7833206   0.009   1.275   7.224  1.2044  0.5723  1.3239
  165MOL    H7933207   0.084   1.360   6.993 -0.3324 -2.3473  0.6207
  165MOL    H8033208   0.097   1.518   7.066  1.1529  0.0519  0.5341
  165MOL    H8133209   0.288   1.321   7.078  0.0599  0.0866 -1.0319
  165MOL    C8233210   0.304   1.447   7.229 -0.0633 -0.1528  0.2944
  165MOL    O8333211   0.252   1.522   7.304 -0.8842  0.3266  0.0918
  165MOL    C8433212   0.452   1.425   7.235  0.6156 -0.7675 -0.4489
  165MOL    C8533213   0.521   1.444   7.365  0.2414 -0.3212  0.1871
  165MOL    N8633214   0.522   1.585   7.408 -0.2008  0.5121  0.1719
  165MOL    H8733215   0.485   1.326   7.202  2.6753 -0.4482  0.5338
  165MOL    H8833216   0.499   1.492   7.163 -1.4635  1.4664  0.2291
  165MOL    H8933217   0.468   1.390   7.444 -0.4961 -0.4947 -0.4162
  165MOL    H9033218   0.615   1.390   7.365 -0.1528 -1.0456 -1.3076
  165MOL    H9133219   0.433   1.631   7.390 -0.7460 -0.6493 -0.1551
  165MOL    C9233220   0.617   1.652   7.470 -0.5239 -0.0582  0.2562
  165MOL    O9333221   0.723   1.596   7.501 -0.1010  0.7032  0.0225
  165MOL    C9433222   0.586   1.793   7.518  0.9497 -0.3147  0.5721
  165MOL    C9533223   0.599   1.900   7.412 -0.5727 -0.0721  0.3244
  165MOL    N9633224   0.476   1.940   7.350 -0.1211 -0.1926  0.3774
  165MOL    H9733225   0.492   1.792   7.573 -0.0987  1.1786 -1.1439
  165MOL    H9833226   0.661   1.823   7.591 -0.7212  3.0928  0.9999
  165MOL    H9933227   0.647   1.990   7.452  0.9430 -0.3972 -0.7039
  165MOL   H10033228   0.670   1.862   7.338  1.9248  1.5642  1.8025
  165MOL   H10133229   0.440   2.028   7.384  0.2916  0.3184 -0.4959
  165MOL   C10233230   0.399   1.875   7.263 -0.2664  0.3295  0.5811
  165MOL   O10333231   0.442   1.775   7.211  0.3838 -0.1757  0.2479
  165MOL   C10433232   0.267   1.935   7.212  0.5492  0.5019 -0.0657
  165MOL   C10533233   0.165   1.828   7.177  0.5356  0.8379 -0.4564
  165MOL   N10633234   0.109   1.749   7.289  0.0549 -0.9665  0.2753
  165MOL   H10733235   0.282   1.997   7.123 -0.4718 -0.7576 -1.1261
  165MOL   H10833236   0.217   1.991   7.291  0.3942 -1.2642  1.1141
  165MOL   H10933237   0.083   1.875   7.122 -0.1081 -0.3664 -0.5404
  165MOL   H11033238   0.209   1.759   7.105  1.1311 -1.3401  1.9384
  165MOL   H11133239   0.169   1.672   7.312  4.2333  1.7394 -1.0504
  165MOL   C11233240   0.004   1.778   7.362  0.1246  0.9946 -0.3294
  165MOL   O11333241   7.716   1.878   7.351 -0.5203 -0.8891  0.7293
  165MOL   C11433242   7.757   1.675   7.473 -0.4409  0.0007 -0.0138
  165MOL   C11533243   7.722   1.728   7.615 -0.3629  0.0753 -0.4139
  165MOL   N11633244   7.597   1.798   7.605  0.0054  0.1760  0.3562
  165MOL   H11733245   0.057   1.602   7.483 -0.4145  0.2373  1.8147
  165MOL   H11833246   7.669   1.621   7.437 -1.7694  1.4950  0.8849
  165MOL   H11933247   7.703   1.639   7.675  2.0676 -0.0568  0.1845
  165MOL   H12033248   0.027   1.772   7.665 -0.5321 -0.0627 -0.0029
  165MOL   H12133249   7.523   1.770   7.541  1.2059 -2.1012 -0.0907
  165MOL   C12233250   7.576   1.908   7.686 -0.6946  0.6047 -0.4253
  165MOL   O12333251   7.651   1.941   0.001 -0.3143 -0.0247  0.1013
  165MOL   C12433252   7.435   1.985   7.668 -0.3159  0.0003 -0.0942
  165MOL   C12533253   7.434   2.138   7.686  0.5277  0.7625 -0.5971
  165MOL   N12633254   7.301   2.191   7.718 -0.1387 -0.3958 -0.1874
  165MOL   H12733255   7.383   1.936   7.751 -3.0186  2.0203 -0.4857
  165MOL   H12833256   7.384   1.956   7.576 -1.1827  1.0439  0.0327
  165MOL   H12933257   7.507   2.160   7.764 -1.5635  0.5332  1.4825
  165MOL   H13033258   7.472   2.179   7.592 -0.8276 -0.2517 -1.6114
  165MOL   H13133259   7.230   2.187   7.647  2.1436  0.1892 -2.5910
  165MOL   C13233260   7.270   2.246   0.060  0.4726 -0.1184 -0.0671
  165MOL   O13333261   7.352   2.251   0.150 -0.5580 -0.0063  0.6026
  165MOL   C13433262   7.126   2.291   0.077  0.0797 -0.3288 -0.0937
  165MOL   C13533263   7.068   2.309   0.217  0.0103  0.1534  0.0078
  165MOL   N13633264   7.033   2.178   0.280  0.1922 -0.4952  0.1452
  165MOL   H13733265   7.060   2.225   0.020 -0.9767 -0.9802  1.8397
  165MOL   H13833266   7.124   2.392   0.036 -0.3809 -0.2384  0.1508
  165MOL   H13933267   7.138   2.361   0.283 -0.7717  1.1016  0.0975
  165MOL   H14033268   6.979   2.371   0.211 -0.1087 -0.1854 -2.2808
  165MOL   H14133269   7.010   2.106   0.212  0.3674 -0.2032 -0.2271
  165MOL   C14233270   7.007   2.160   0.413  0.8865 -0.2028 -0.1315
  165MOL   O14333271   7.009   2.254   0.491 -0.6634  0.6121 -0.4363
  165MOL   C14433272   6.969   2.023   0.457 -0.2984 -0.6844 -0.6507
  165MOL   C14533273   7.060   1.965   0.569  0.2162 -0.0623 -0.6182
  165MOL   N14633274   7.073   1.817   0.568 -0.0889  1.0032 -0.3625
  165MOL   H14733275   6.985   1.956   0.373 -0.9218 -2.3539  0.5498
  165MOL   H14833276   6.866   2.012   0.491  0.1365 -1.6205  0.3616
  165MOL   H14933277   7.160   2.007   0.567  1.0840 -2.0975 -2.0596
  165MOL   H15033278   7.010   1.994   0.661  0.7078  1.1177 -0.7163
  165MOL   H15133279   7.024   1.770   0.642 -0.7121  0.2994 -1.2171
  165MOL   C15233280   7.137   1.745   0.473 -0.1914  0.5705  0.2271
  165MOL   O15333281   7.193   1.801   0.378 -0.8006 -0.6074 -0.3186
  165MOL   C15433282   7.168   1.593   0.498 -0.6263 -0.8752  1.0416
  165MOL   C15533283   7.311   1.546   0.450  0.3738 -0.0966 -0.5546
  165MOL   N15633284   7.424   1.567   0.546  0.0606  0.2669  0.1330
  165MOL   H15733285   7.093   1.549   0.432  0.2632  0.1663 -0.7169
  165MOL   H15833286   7.146   1.558   0.598 -0.8292 -1.7163  0.7094
  165MOL   H15933287   7.315   1.440   0.422  2.9190  0.0286 -0.8189
  165MOL   H16033288   7.350   1.599   0.364 -1.0605  1.6966 -0.1144
  165MOL   H16133289   7.507   1.608   0.505  0.1217 -0.5331 -0.5705
  165MOL   C16233290   7.429   1.498   0.666  1.0236  0.8758  0.9942
  165MOL   O16333291   7.335   1.435   0.706  0.5601  0.3407  0.2021
  165MOL   C16433292   7.554   1.508   0.744  0.6016 -0.1674 -0.3456
  165MOL   C16533293   7.539   1.604   0.863 -0.2061  0.0980 -0.0842
  165MOL   N16633294   7.669   1.628   0.930  0.6299 -0.1518 -0.3764
  165MOL   H16733295   7.634   1.540   0.678 -0.9704  1.7723 -1.3615
  165MOL   H16833296   7.593   1.408   0.764  1.0974  0.1020  0.0363
  165MOL   H16933297   7.495   1.698   0.829  0.5783  0.1466 -0.9835
  165MOL   H17033298   7.458   1.572   0.929  1.1695  1.4404  2.2973
  165MOL   H17133299   7.733   1.695   0.889  1.0204  0.2647  0.8667
  165MOL   C17233300   7.710   1.576   1.043 -0.5655  0.1190 -0.1952
  165MOL   O17333301   7.648   1.485   1.101 -0.2831 -0.3632 -0.1982
  165MOL   C17433302   0.070   1.610   1.092 -0.2194  0.2985  0.6518
  165MOL   C17533303   0.089   1.701   1.216 -0.7579  0.0354 -0.3342
  165MOL   N17633304   0.019   1.834   1.213 -0.5898 -0.4221  0.1366
  165MOL   H17733305   0.113   1.662   1.007 -0.1098 -0.0652  0.4843
  165MOL   H17833306   0.121   1.514   1.105  0.3675  0.8573  2.7338
  165MOL   H17933307   0.050   1.644   1.300 -1.1081 -0.9967 -1.1963
  165MOL   H18033308   0.194   1.717   1.242 -0.4582 -0.2228 -1.3856
  165MOL   H18133309   7.766   1.858   1.305 -0.2878  0.9848 -0.1209
  165MOL   C18233310   0.006   1.921   1.115  0.2808 -0.2205  0.1650
  165MOL   O18333311   0.068   1.921   1.011  0.0051  0.1823 -0.3944
  165MOL   C18433312   7.700   2.044   1.153 -0.8017  0.0048  0.3420
  165MOL   C18533313   7.668   2.140   1.035 -0.4945  0.0394 -0.2386
  165MOL   N18633314   7.561   2.091   0.951  0.2418  0.0768  0.0282
  165MOL   H18733315   7.753   2.096   1.233 -2.0720  3.0239 -0.7218
  165MOL   H18833316   7.604   2.013   1.195 -0.5950  0.3035  1.0352
  165MOL   H18933317   7.651   2.244   1.064  1.2682  1.1301 -2.8908
  165MOL   H19033318   7.759   2.168   0.983 -0.9941 -1.3131 -1.8720
  165MOL   H19133319   7.560   1.991   0.941  0.1029 -0.0419  1.2046
  165MOL   C19233320   7.469   2.159   0.882 -0.3420 -0.3876  0.2165
  165MOL   O19333321   7.472   2.283   0.869 -0.3611  0.0644  0.1445
  165MOL   C19433322   7.344   2.077   0.846  0.5867 -0.3546 -0.0908
  165MOL   C19533323   7.223   2.094   0.944 -0.1131  0.4259  0.0036
  165MOL   N19633324   7.246   2.050   1.076 -0.3289 -0.3436 -0.3377
  165MOL   H19733325   7.310   2.096   0.744  0.5018 -2.0476 -0.3921
  165MOL   H19833326   7.381   1.975   0.853  2.4336  0.0054 -3.4737
  165MOL   H19933327   7.177   2.193   0.942 -0.1178  0.3996 -1.7565
  165MOL   H20033328   7.152   2.025   0.899  0.3663 -0.1768  0.1526
  165MOL   H20133329   7.312   1.973   1.081  1.0628  0.8446  0.0560
  165MOL   H20233330   7.292   2.119   1.134 -0.1909 -0.7074 -0.0150
  166MOL     C133331   4.204   6.777   5.639  0.5003 -0.5314 -0.1885
  166MOL     O233332   4.146   6.856   5.716  0.0443 -0.1646 -0.7621
  166MOL     C333333   4.197   6.624   5.661 -0.7493 -0.1324  0.2109
  166MOL     C433334   4.113   6.585   5.783  0.0317 -0.5134  0.0644
  166MOL     N533335   3.977   6.547   5.747 -0.1822 -0.0155 -0.0834
  166MOL     H633336   4.295   6.577   5.668 -1.0708 -1.2686 -2.4480
  166MOL     H733337   4.144   6.579   5.577 -0.0143 -1.3693  0.3975
  166MOL     H833338   4.118   6.652   5.869 -2.2452 -1.8140  1.2362
  166MOL     H933339   4.166   6.499   5.823  1.4715  1.0840  1.7100
  166MOL    H1033340   3.961   6.509   5.655 -0.0906 -1.0031  0.3017
  166MOL    H1133341   4.260   6.809   5.552  0.4309  2.2509  0.7429
  166MOL    C1233342   3.876   6.535   5.836 -0.0671  0.2563 -0.2172
  166MOL    O1333343   3.894   6.570   5.944 -0.6395  0.5273 -0.0086
  166MOL    C1433344   3.743   6.488   5.781 -0.1297 -0.5458  0.0016
  166MOL    C1533345   3.624   6.513   5.870  0.6497 -0.2994  0.2528
  166MOL    N1633346   3.617   6.421   5.986 -0.0789  0.0612 -0.7499
  166MOL    H1733347   3.755   6.386   5.744  0.2358 -0.7706  0.7304
  166MOL    H1833348   3.726   6.543   5.689 -0.2659 -0.3814  0.1250
  166MOL    H1933349   3.621   6.619   5.896 -0.6778  0.0797 -1.3448
  166MOL    H2033350   3.526   6.496   5.825 -0.1094  0.7884  1.4455
  166MOL    H2133351   3.677   6.341   5.969 -1.0544 -1.3591  2.1245
  166MOL    C2233352   3.579   6.453   6.111 -0.5472  0.4369 -0.4886
  166MOL    O2333353   3.508   6.551   6.134  0.0740 -0.3874 -0.2558
  166MOL    C2433354   3.622   6.350   6.220  0.3357 -0.8517  0.5524
  166MOL    C2533355   3.598   6.386   6.368  0.3915 -0.2562  0.9085
  166MOL    N2633356   3.461   6.335   6.400 -0.3789 -0.2547 -0.8248
  166MOL    H2733357   3.731   6.351   6.212  0.2901  1.4028 -0.1857
  166MOL    H2833358   3.588   6.249   6.200  0.6574 -0.9304  0.3924
  166MOL    H2933359   3.682   6.355   6.429 -0.4641 -1.5418  1.4549
  166MOL    H3033360   3.575   6.492   6.379 -2.7212 -1.0945  3.1526
  166MOL    H3133361   3.388   6.373   6.342  0.0702  0.9700 -0.5967
  166MOL    C3233362   3.431   6.233   6.477 -0.4908 -0.4878 -0.3883
  166MOL    O3333363   3.515   6.174   6.543  0.6921 -0.5751 -0.4278
  166MOL    C3433364   3.286   6.182   6.469 -0.3902  0.1796 -0.4376
  166MOL    C3533365   3.275   6.029   6.506  0.7549  0.8379  0.0935
  166MOL    N3633366   3.327   5.948   6.396  0.7251 -0.7829 -0.4654
  166MOL    H3733367   3.254   6.199   6.366 -1.7292  0.6331  0.0312
  166MOL    H3833368   3.222   6.239   6.537 -0.3913 -1.1991  0.7430
  166MOL    H3933369   3.324   6.009   6.602 -1.0958 -1.2162  0.6424
  166MOL    H4033370   3.170   6.002   6.517  1.4804 -1.3154  2.0290
  166MOL    H4133371   3.312   5.988   6.305 -0.4802  2.3855  1.0331
  166MOL    C4233372   3.398   5.832   6.401  0.7102  0.2882 -0.7201
  166MOL    O4333373   3.418   5.778   6.506  0.8305  0.0758  0.1577
  166MOL    C4433374   3.444   5.772   6.271  0.0168  1.1580  0.4351
  166MOL    C4533375   3.595   5.754   6.246 -0.0773  0.2829  0.0229
  166MOL    N4633376   3.673   5.873   6.252 -0.0011  0.5955 -0.0318
  166MOL    H4733377   3.403   5.671   6.266 -0.0619  1.2047  0.1238
  166MOL    H4833378   3.404   5.834   6.191 -0.4049  1.8266  1.1698
  166MOL    H4933379   3.631   5.695   6.330 -0.8080  0.6031  0.5785
  166MOL    H5033380   3.615   5.688   6.162 -0.5831 -2.0470  1.6935
  166MOL    H5133381   3.634   5.965   6.237  0.7974  1.3069  2.0447
  166MOL    C5233382   3.805   5.873   6.257 -0.6090  0.3691  0.0465
  166MOL    O5333383   3.875   5.777   6.263  0.3480 -0.1473  0.4328
  166MOL    C5433384   3.864   6.014   6.248 -0.4344 -0.4888 -0.0923
  166MOL    C5533385   3.995   6.029   6.171  0.0303  1.1983 -0.8401
  166MOL    N5633386   3.978   6.009   6.023 -0.0377  0.3572 -0.4300
  166MOL    H5733387   3.789   6.084   6.209  0.3591 -0.4774 -1.6331
  166MOL    H5833388   3.883   6.052   6.348 -1.1059 -0.2548 -0.0477
  166MOL    H5933389   4.080   5.970   6.206 -0.0799  1.9366  0.6791
  166MOL    H6033390   4.031   6.131   6.190 -1.2159  1.4085  0.4413
  166MOL    H6133391   4.021   5.929   5.978  1.8788  0.3954  1.2481
  166MOL    C6233392   3.922   6.092   5.943  0.2153  0.5144  0.0400
  166MOL    O6333393   3.877   6.199   5.971  0.2108  0.1467  0.2690
  166MOL    C6433394   3.905   6.046   5.799 -0.0333 -0.0666  0.3562
  166MOL    C6533395   3.775   6.076   5.726 -0.4436 -0.1859  0.2097
  166MOL    N6633396   3.682   5.961   5.735  0.1019 -0.2221  0.5336
  166MOL    H6733397   3.986   6.095   5.744 -2.1360  0.8059 -2.0621
  166MOL    H6833398   3.929   5.940   5.794  2.4419  0.4344  1.0037
  166MOL    H6933399   3.724   6.168   5.756 -1.2132 -0.1930 -1.0084
  166MOL    H7033400   3.803   6.100   5.623 -1.4138  0.8034  0.1658
  166MOL    H7133401   3.692   5.894   5.660 -2.5607 -1.0117  0.8165
  166MOL    C7233402   3.588   5.944   5.826 -0.2178 -0.1926  0.6370
  166MOL    O7333403   3.578   6.013   5.928  0.0379  0.1937 -0.3916
  166MOL    C7433404   3.490   5.830   5.800 -0.5564 -0.0613  0.4457
  166MOL    C7533405   3.352   5.860   5.864  0.7662  0.9547  0.0055
  166MOL    N7633406   3.252   5.757   5.840  0.2934 -0.3883  0.4428
  166MOL    H7733407   3.491   5.802   5.694  0.9050  0.4983  0.2984
  166MOL    H7833408   3.541   5.749   5.851  0.4808  0.0492 -0.4020
  166MOL    H7933409   3.383   5.864   5.968  1.8190  1.9690 -0.3485
  166MOL    H8033410   3.308   5.954   5.832  0.5485  0.1596 -2.1606
  166MOL    H8133411   3.202   5.761   5.752  0.1026  0.4163  0.5761
  166MOL    C8233412   3.187   5.693   5.943 -0.4843  0.4716 -0.0168
  166MOL    O8333413   3.219   5.708   6.064 -0.7609  0.2301 -0.0352
  166MOL    C8433414   3.072   5.606   5.902 -0.3039 -0.0440  0.3931
  166MOL    C8533415   3.002   5.539   6.020 -0.1297  0.5246 -0.0846
  166MOL    N8633416   3.074   5.421   6.077 -0.1393  0.2301 -0.3038
  166MOL    H8733417   3.006   5.656   5.831  0.1175  1.0430  0.7727
  166MOL    H8833418   3.121   5.527   5.845 -0.3266 -0.5606  1.0892
  166MOL    H8933419   2.984   5.601   6.108  0.8287 -0.3787  0.7649
  166MOL    H9033420   2.901   5.507   5.994 -0.1583 -0.7919  1.5264
  166MOL    H9133421   3.173   5.412   6.058 -0.7669 -2.8075 -2.4596
  166MOL    C9233422   3.009   5.324   6.143  0.8181  0.3309 -1.0594
  166MOL    O9333423   2.888   5.330   6.167  0.5706 -0.1332  0.6664
  166MOL    C9433424   3.089   5.202   6.198 -0.0867 -0.4383  0.1507
  166MOL    C9533425   3.022   5.067   6.157  0.1286  0.3225 -0.1202
  166MOL    N9633426   2.890   5.038   6.217 -0.1069 -0.2672  0.4306
  166MOL    H9733427   3.191   5.207   6.159 -0.3252  1.3779 -0.2643
  166MOL    H9833428   3.097   5.227   6.304 -0.9188 -4.0222  1.1325
  166MOL    H9933429   3.013   5.060   6.049 -0.3481 -0.8647 -0.0057
  166MOL   H10033430   3.092   4.989   6.185  0.4098  1.0009  1.1535
  166MOL   H10133431   2.806   5.075   6.174 -0.1880 -0.8499  0.0825
  166MOL   C10233432   2.870   5.006   6.343 -0.6252 -0.0721 -0.5512
  166MOL   O10333433   2.966   4.961   6.411  0.2279  0.4455  0.1625
  166MOL   C10433434   2.736   5.028   6.409  0.6631 -0.7425  0.1667
  166MOL   C10533435   2.688   5.174   6.401 -0.1274  0.1069 -0.9722
  166MOL   N10633436   2.559   5.204   6.457  0.9905 -0.0344  0.7840
  166MOL   H10733437   2.748   4.996   6.513  0.4828 -0.8733  0.1491
  166MOL   H10833438   2.662   4.961   6.364  0.0043  1.6590 -2.4688
  166MOL   H10933439   2.763   5.236   6.450 -0.2218 -0.9764  0.5625
  166MOL   H11033440   2.689   5.201   6.296  0.9648  2.5858 -0.3678
  166MOL   H11133441   2.554   5.216   6.557  0.0360 -1.9030  0.9741
  166MOL   C11233442   2.442   5.190   6.389 -0.0233  0.4962 -0.2837
  166MOL   O11333443   2.428   5.149   6.276 -0.0096  0.0849  0.7322
  166MOL   C11433444   2.317   5.245   6.455  0.6608 -0.4982 -0.1211
  166MOL   C11533445   2.287   5.383   6.404 -0.2102 -0.1866 -0.3009
  166MOL   N11633446   2.224   5.388   6.271  0.2961  0.1282 -0.1680
  166MOL   H11733447   2.323   5.248   6.564  0.9295  1.4466 -0.1767
  166MOL   H11833448   2.233   5.178   6.439 -1.3257  1.7417  0.5991
  166MOL   H11933449   2.219   5.433   6.472  2.1835  1.0617  1.2615
  166MOL   H12033450   2.380   5.438   6.416 -0.5859  0.1766  1.0361
  166MOL   H12133451   2.289   5.404   6.196 -0.3524  1.1356 -0.5125
  166MOL   C12233452   2.094   5.354   6.233 -0.8594 -0.9433 -0.5214
  166MOL   O12333453   2.015   5.327   6.322 -0.1225 -0.0342 -0.1761
  166MOL   C12433454   2.057   5.340   6.085  0.4634 -0.2358 -0.8254
  166MOL   C12533455   1.908   5.310   6.064  0.1536 -0.5367  0.0322
  166MOL   N12633456   1.890   5.266   5.931 -0.1763  0.1978  0.1924
  166MOL   H12733457   2.126   5.268   6.042 -1.2357 -1.3053 -1.8164
  166MOL   H12833458   2.069   5.443   6.051 -0.2642 -0.3670 -1.4926
  166MOL   H12933459   1.885   5.224   6.126  1.1337 -0.7272  0.1364
  166MOL   H13033460   1.840   5.389   6.093  0.3384 -0.7376  1.0108
  166MOL   H13133461   1.817   5.196   5.924  1.1015 -1.4876  2.8672
  166MOL   C13233462   1.947   5.306   5.816 -0.0475 -0.9009 -0.0108
  166MOL   O13333463   2.041   5.388   5.806 -0.4939  0.4060  0.2308
  166MOL   C13433464   1.885   5.246   5.698  0.4823 -0.0509  0.2623
  166MOL   C13533465   1.918   5.308   5.561 -1.0679  0.1807  0.1275
  166MOL   N13633466   1.813   5.399   5.507 -0.0199 -0.5271 -0.3372
  166MOL   H13733467   1.777   5.238   5.709  0.4039  0.0012 -0.4490
  166MOL   H13833468   1.916   5.142   5.685 -0.9390 -0.4951  0.4139
  166MOL   H13933469   2.021   5.342   5.556 -0.6769 -1.1213 -0.6327
  166MOL   H14033470   1.922   5.226   5.490 -0.5143  0.2654  0.0607
  166MOL   H14133471   1.755   5.453   5.570  0.8019  0.7291 -0.6264
  166MOL   C14233472   1.786   5.422   5.377  0.3397  0.5456 -0.0258
  166MOL   O14333473   1.857   5.385   5.287  0.2062  0.0669  0.2557
  166MOL   C14433474   1.671   5.521   5.342  0.3960 -0.1058  0.2034
  166MOL   C14533475   1.565   5.451   5.256 -0.9403  0.0313  0.2880
  166MOL   N14633476   1.445   5.538   5.247 -0.4024  0.1250 -0.0845
  166MOL   H14733477   1.703   5.610   5.289 -1.3700  1.4107  1.6219
  166MOL   H14833478   1.633   5.558   5.437  0.7362 -0.3204  0.4238
  166MOL   H14933479   1.614   5.420   5.163 -0.4819  2.3569 -0.2754
  166MOL   H15033480   1.536   5.357   5.303  0.1607  0.7330  2.3897
  166MOL   H15133481   1.446   5.621   5.305 -0.7195  0.0537  0.0222
  166MOL   C15233482   1.349   5.523   5.164  0.2651 -0.5635  0.3393
  166MOL   O15333483   1.345   5.429   5.087 -0.1501 -0.2909  0.0856
  166MOL   C15433484   1.246   5.632   5.172  0.3700 -0.1868 -0.3129
  166MOL   C15533485   1.139   5.628   5.060 -0.1540  0.2224 -0.3157
  166MOL   N15633486   1.033   5.530   5.076 -0.6174  0.4106  0.2975
  166MOL   H15733487   1.297   5.728   5.165 -2.4013  1.5105  1.2775
  166MOL   H15833488   1.185   5.640   5.263 -4.2143  4.0395 -3.4391
  166MOL   H15933489   1.086   5.723   5.070 -0.8543 -0.2557  0.5491
  166MOL   H16033490   1.181   5.624   4.959 -0.4237  2.8842 -0.5745
  166MOL   H16133491   1.041   5.467   5.154 -0.5863  0.9652  0.7385
  166MOL   C16233492   0.940   5.509   4.983 -0.5805 -0.4925  0.7691
  166MOL   O16333493   0.918   5.586   4.885  0.1342  0.4358  0.4872
  166MOL   C16433494   0.859   5.379   4.993 -0.3263  0.3756 -0.1586
  166MOL   C16533495   0.735   5.382   4.899 -0.1625  0.7923 -0.3682
  166MOL   N16633496   0.613   5.430   4.965  0.7887 -0.2395 -0.2499
  166MOL   H16733497   0.828   5.365   5.096 -0.2231  0.5099 -0.1100
  166MOL   H16833498   0.922   5.296   4.961  0.1715  0.2064  1.2554
  166MOL   H16933499   0.750   5.441   4.809  0.4523  1.4311  0.1491
  166MOL   H17033500   0.714   5.285   4.855  2.7162 -0.5130  0.9486
  166MOL   H17133501   0.610   5.527   4.992 -1.0967 -0.7672  1.5267
  166MOL   C17233502   0.513   5.357   5.005 -0.7203  0.1486 -0.4484
  166MOL   O17333503   0.510   5.235   4.995 -0.4493 -0.6091 -0.2252
  166MOL   C17433504   0.403   5.421   5.086  1.0493  0.5240  0.1383
  166MOL   C17533505   0.256   5.381   5.036 -0.4815  0.0042  0.2202
  166MOL   N17633506   0.224   5.425   4.898 -0.0546 -0.0287 -0.1511
  166MOL   H17733507   0.415   5.528   5.104  1.5637  0.3081  1.1490
  166MOL   H17833508   0.410   5.374   5.185 -0.8175  0.6333  0.3409
  166MOL   H17933509   0.255   5.272   5.034  0.8464 -0.0153 -0.1685
  166MOL   H18033510   0.181   5.406   5.110 -0.8993  1.1345 -0.5722
  166MOL   H18133511   0.219   5.349   4.831 -2.0942 -0.7821  0.7987
  166MOL   C18233512   0.191   5.547   4.862  0.9483 -1.2686  0.0760
  166MOL   O18333513   0.188   5.640   4.940 -0.0643  0.1569 -0.2949
  166MOL   C18433514   0.138   5.565   4.723 -0.4054 -0.4762 -0.2154
  166MOL   C18533515   0.150   5.712   4.663 -0.0200 -0.3768 -0.4059
  166MOL   N18633516   0.043   5.740   4.572  0.2399  0.5985  0.5402
  166MOL   H18733517   0.033   5.540   4.738 -0.6808  1.0668  0.5136
  166MOL   H18833518   0.181   5.492   4.655 -1.6941 -1.8691  0.4270
  166MOL   H18933519   0.130   5.789   4.737  2.2083 -0.4920  0.3512
  166MOL   H19033520   0.250   5.725   4.621 -0.2911 -1.8874 -1.5768
  166MOL   H19133521   7.753   5.668   4.574 -0.9958  1.7584 -0.5412
  166MOL   C19233522   0.035   5.852   4.503  0.0457  0.1741 -0.1024
  166MOL   O19333523   0.130   5.930   4.496  0.2299 -0.9192  0.1561
  166MOL   C19433524   7.681   5.874   4.438 -0.6678  0.3497 -0.1327
  166MOL   C19533525   7.574   5.948   4.524 -0.2631 -0.5505  0.3026
  166MOL   N19633526   7.600   6.084   4.547 -0.4195 -0.2998 -0.2065
  166MOL   H19733527   7.695   5.924   4.342 -0.8119 -1.3581 -1.0520
  166MOL   H19833528   7.647   5.773   4.416 -0.1984 -0.9402  4.4256
  166MOL   H19933529   7.477   5.937   4.477 -0.4351 -0.8516  0.7233
  166MOL   H20033530   7.545   5.902   4.619 -2.6810 -0.3724 -0.3407
  166MOL   H20133531   7.691   6.103   4.584  1.1392 -0.9718 -3.4885
  166MOL   H20233532   7.594   6.140   4.463 -0.5390  1.2982  0.8495
  167MOL     C133533   4.006   2.485   3.160 -0.2954  0.1713  0.2797
  167MOL     O233534   3.941   2.379   3.142  0.3210 -0.0902 -0.8518
  167MOL     C333535   4.104   2.499   3.277  0.2351 -0.2511  1.0814
  167MOL     C433536   4.253   2.490   3.257  1.0397  0.3642  0.1196
  167MOL     N533537   4.319   2.373   3.307 -0.5548 -0.4095 -0.6338
  167MOL     H633538   4.069   2.421   3.345 -1.6327 -1.8815 -1.6283
  167MOL     H733539   4.102   2.599   3.320  2.7040 -0.1565  1.0343
  167MOL     H833540   4.304   2.567   3.315  2.3893 -1.2233  1.0758
  167MOL     H933541   4.277   2.511   3.152  0.6960 -1.1309 -0.2704
  167MOL    H1033542   4.399   2.395   3.364  0.5410 -1.1778 -1.8518
  167MOL    H1133543   3.992   2.570   3.093 -0.8350 -0.5471 -0.5363
  167MOL    C1233544   4.304   2.244   3.274  1.6033 -0.0979  0.0291
  167MOL    O1333545   4.205   2.208   3.204  0.3050  0.3402  0.0465
  167MOL    C1433546   4.414   2.143   3.317  0.6755 -0.4930  0.2418
  167MOL    C1533547   4.360   2.008   3.361  0.2733  0.1313  0.5419
  167MOL    N1633548   4.304   2.006   3.496 -0.1953  0.5199  0.5833
  167MOL    H1733549   4.460   2.193   3.402 -1.7576  0.6026  0.9626
  167MOL    H1833550   4.488   2.131   3.238  0.1091  1.7656 -0.6662
  167MOL    H1933551   4.282   1.963   3.299 -0.7649  1.3504  0.9386
  167MOL    H2033552   4.445   1.940   3.364  0.4608  0.3520  0.1817
  167MOL    H2133553   4.273   2.092   3.539  1.0531  1.7719 -0.9778
  167MOL    C2233554   4.265   1.888   3.555 -0.7015 -1.1727 -0.8508
  167MOL    O2333555   4.300   1.774   3.516 -0.6352 -0.4535 -0.0465
  167MOL    C2433556   4.188   1.899   3.685  0.3896 -0.5666  0.4079
  167MOL    C2533557   4.035   1.914   3.662 -0.2141  0.0509  0.0925
  167MOL    N2633558   3.992   2.041   3.604  0.1118  0.4651  0.2830
  167MOL    H2733559   4.223   1.987   3.738  3.0048 -2.0949  1.3112
  167MOL    H2833560   4.200   1.814   3.753  0.2615 -1.8936 -1.1824
  167MOL    H2933561   4.001   1.837   3.593 -0.1460 -0.2210  0.3593
  167MOL    H3033562   3.980   1.890   3.754  0.7422  0.7113  0.8386
  167MOL    H3133563   4.042   2.121   3.641 -1.4985  1.9813 -0.7860
  167MOL    C3233564   3.906   2.065   3.506 -0.1125  0.2032 -0.3100
  167MOL    O3333565   3.850   1.973   3.448 -0.8186 -0.4304 -0.0959
  167MOL    C3433566   3.871   2.211   3.459  0.0531  0.6266  0.3937
  167MOL    C3533567   3.728   2.232   3.405  0.3325  0.5473  0.0619
  167MOL    N3633568   3.716   2.225   3.262 -0.0502 -1.0062  0.5224
  167MOL    H3733569   3.943   2.228   3.378 -0.4969  1.3764  0.0579
  167MOL    H3833570   3.892   2.275   3.545 -0.0410 -1.0533  1.6928
  167MOL    H3933571   3.664   2.157   3.451 -0.6912  0.3145 -1.7267
  167MOL    H4033572   3.689   2.332   3.424 -0.7099  0.2903 -0.6894
  167MOL    H4133573   3.782   2.286   3.217 -0.9265 -0.4733 -0.0682
  167MOL    C4233574   3.606   2.172   3.199 -0.0797  1.1199 -0.8130
  167MOL    O4333575   3.513   2.116   3.264 -0.1014 -0.0781  0.1756
  167MOL    C4433576   3.597   2.193   3.050 -0.1445 -0.2339  0.1608
  167MOL    C4533577   3.535   2.077   2.975 -0.1936 -0.6875  0.5391
  167MOL    N4633578   3.518   2.110   2.834  0.4209 -0.2377  0.5343
  167MOL    H4733579   3.527   2.276   3.046 -0.5428 -0.6278 -1.3416
  167MOL    H4833580   3.685   2.237   3.003 -0.7685  0.1277 -0.6842
  167MOL    H4933581   3.593   1.986   2.991  0.9521  0.1931  1.4374
  167MOL    H5033582   3.431   2.068   3.009  0.1941  0.5902  2.1126
  167MOL    H5133583   3.430   2.154   2.813  0.3754 -1.3448 -1.7183
  167MOL    C5233584   3.615   2.109   2.737  0.6424  0.6654  0.4663
  167MOL    O5333585   3.730   2.067   2.748 -0.1025  0.5809  0.3737
  167MOL    C5433586   3.586   2.180   2.600  0.2379  0.2264  0.1674
  167MOL    C5533587   3.702   2.272   2.549  0.8526 -0.5584  0.7965
  167MOL    N5633588   3.808   2.198   2.486  0.0651  0.3274 -0.0813
  167MOL    H5733589   3.555   2.108   2.524  2.0280 -1.0808  0.6366
  167MOL    H5833590   3.501   2.243   2.624 -0.9794 -0.6792 -1.6782
  167MOL    H5933591   3.743   2.305   2.645  2.7689 -2.2164  0.5957
  167MOL    H6033592   3.662   2.358   2.496 -0.3086 -2.5852 -1.6869
  167MOL    H6133593   3.780   2.113   2.440 -0.1211  0.2184  0.2320
  167MOL    C6233594   3.939   2.224   2.497 -0.0785 -0.2743  0.3414
  167MOL    O6333595   3.982   2.322   2.554  0.4922  0.2632 -0.0400
  167MOL    C6433596   4.034   2.111   2.444 -0.7629  0.4652  0.8637
  167MOL    C6533597   4.104   2.012   2.538  0.3094  0.5864  0.5532
  167MOL    N6633598   4.014   1.917   2.592 -0.1085 -0.2085 -0.0562
  167MOL    H6733599   3.977   2.057   2.368  1.9336  0.3919 -1.1860
  167MOL    H6833600   4.115   2.167   2.397 -1.0353 -0.5439 -0.8363
  167MOL    H6933601   4.189   1.978   2.479  0.1524  0.3047  0.4864
  167MOL    H7033602   4.157   2.048   2.626  1.7130  0.9505 -0.4218
  167MOL    H7133603   3.955   1.949   2.668 -1.0437  0.3976 -1.0254
  167MOL    C7233604   4.008   1.788   2.568 -0.1098 -0.1993 -0.3227
  167MOL    O7333605   4.088   1.730   2.489  0.2792 -0.4547 -0.6951
  167MOL    C7433606   3.908   1.712   2.657  0.4728 -0.6334 -0.6479
  167MOL    C7533607   3.941   1.564   2.662  0.5576  0.3464  0.2190
  167MOL    N7633608   4.040   1.521   2.759  0.1275 -0.3073  0.0768
  167MOL    H7733609   3.907   1.765   2.753 -1.8416 -1.3805 -0.2131
  167MOL    H7833610   3.812   1.738   2.613 -0.2247 -2.8298 -0.5186
  167MOL    H7933611   3.847   1.516   2.687  0.0531  1.6303  0.8292
  167MOL    H8033612   3.969   1.528   2.563 -1.1239 -0.7389  0.1244
  167MOL    H8133613   4.070   1.581   2.835 -0.1018  0.3156 -0.3226
  167MOL    C8233614   4.067   1.389   2.768 -0.4187  0.8148  0.5116
  167MOL    O8333615   4.010   1.305   2.700  0.3461  0.2086  0.4922
  167MOL    C8433616   4.184   1.354   2.863 -0.6719 -0.3889 -0.0287
  167MOL    C8533617   4.132   1.300   2.998 -0.4559  0.1605 -0.5331
  167MOL    N8633618   4.241   1.238   3.077 -0.1692  0.3424 -0.3850
  167MOL    H8733619   4.248   1.279   2.817  0.0684 -0.3362  0.9065
  167MOL    H8833620   4.244   1.443   2.881  1.0081 -0.9291 -2.7303
  167MOL    H8933621   4.065   1.358   3.062  0.1210 -3.2953  3.4850
  167MOL    H9033622   4.064   1.221   2.965  0.7113 -1.1338  0.0935
  167MOL    H9133623   4.308   1.301   3.118 -0.2380 -0.4596  0.9934
  167MOL    C9233624   4.245   1.111   3.115 -0.1687  0.2500  0.7024
  167MOL    O9333625   4.156   1.035   3.089 -0.1310 -0.1474  0.1256
  167MOL    C9433626   4.376   1.066   3.188  0.1065  0.3556  0.2602
  167MOL    C9533627   4.355   0.954   3.289 -0.2179  0.5696 -0.3559
  167MOL    N9633628   4.269   0.975   3.404 -0.2377  0.1157  0.5494
  167MOL    H9733629   4.448   1.036   3.111 -0.5492  0.6128 -0.4596
  167MOL    H9833630   4.433   1.145   3.235 -0.2118  0.9943 -0.4136
  167MOL    H9933631   4.321   0.865   3.236  0.4146 -0.8659  1.5779
  167MOL   H10033632   4.454   0.939   3.331 -0.7777  1.1453  1.1989
  167MOL   H10133633   4.314   0.992   3.493  1.1900  2.4462 -0.5785
  167MOL   C10233634   4.150   0.917   3.420 -0.7622 -0.7466 -0.3663
  167MOL   O10333635   4.089   0.856   3.333 -0.5641  0.3844  0.0179
  167MOL   C10433636   4.096   0.915   3.567  0.1057  0.0211  0.3425
  167MOL   C10533637   3.956   0.854   3.585 -0.1421 -0.2593 -0.2426
  167MOL   N10633638   3.943   0.709   3.548 -0.3873  0.1988  0.4139
  167MOL   H10733639   4.100   1.017   3.606 -1.4274 -0.5444  2.0673
  167MOL   H10833640   4.172   0.855   3.617  0.9582 -1.3319 -2.5049
  167MOL   H10933641   3.913   0.867   3.684 -0.5116  0.4845 -0.4944
  167MOL   H11033642   3.887   0.905   3.516 -1.1630 -1.2170  0.0597
  167MOL   H11133643   3.898   0.693   3.459 -0.9622  1.5860  0.4480
  167MOL   C11233644   4.003   0.606   3.621  1.3311 -0.1296 -0.5253
  167MOL   O11333645   4.063   0.623   3.727  0.4747 -0.4674 -0.3200
  167MOL   C11433646   3.995   0.462   3.574  0.4916  0.8775  0.1229
  167MOL   C11533647   4.061   0.363   3.675 -0.3046 -0.5643  0.6241
  167MOL   N11633648   4.075   0.233   3.602  0.7711 -0.6987 -0.1423
  167MOL   H11733649   4.022   0.462   3.468 -1.5267  1.7968 -0.4067
  167MOL   H11833650   3.889   0.439   3.572  0.9666 -1.6382  1.0441
  167MOL   H11933651   4.162   0.392   3.702  0.2903 -3.1273  1.2843
  167MOL   H12033652   4.007   0.365   3.769  0.9603 -2.1886  1.4176
  167MOL   H12133653   3.990   0.178   3.600 -0.6687  1.1770  4.2683
  167MOL   C12233654   4.186   0.175   3.554  0.5492 -0.6629  0.2546
  167MOL   O12333655   4.302   0.226   3.556  0.0145  0.9026 -0.2778
  167MOL   C12433656   4.164   0.042   3.489  0.5336 -0.2657 -0.9137
  167MOL   C12533657   4.283   7.762   3.408  0.0462  0.2989 -0.0989
  167MOL   N12633658   4.380   7.676   3.481  0.3161 -0.4573  0.4666
  167MOL   H12733659   4.085   0.058   3.414  1.0206  1.1315 -1.1421
  167MOL   H12833660   4.132   7.752   3.566  1.3328  1.9377  1.4604
  167MOL   H12933661   4.232   7.709   3.328 -0.7690 -2.6771  2.2637
  167MOL   H13033662   4.337   0.060   3.355  0.7605 -0.6328 -0.7635
  167MOL   H13133663   4.358   7.664   3.579 -0.4223  1.1018  0.5133
  167MOL   C13233664   4.487   7.632   3.416  0.5889  0.4032 -0.1613
  167MOL   O13333665   4.503   7.656   3.299 -0.0737 -0.2584 -0.1020
  167MOL   C13433666   4.589   7.550   3.485  0.5130 -0.4384 -0.0022
  167MOL   C13533667   4.734   7.574   3.448 -0.4580 -0.0143 -0.3502
  167MOL   N13633668   4.796   7.655   3.546  0.4998  0.5941 -1.0218
  167MOL   H13733669   4.563   7.448   3.455  0.1010  0.0890 -1.4816
  167MOL   H13833670   4.565   7.540   3.591 -0.9135  0.7674 -0.2020
  167MOL   H13933671   4.791   7.481   3.452 -1.2760 -0.4845  0.4111
  167MOL   H14033672   4.749   7.620   3.350  1.4614  1.7188  0.7119
  167MOL   H14133673   4.754   7.649   3.637  2.0567  0.2711 -0.3074
  167MOL   C14233674   4.900   7.735   3.531 -0.3111  0.0575  0.5810
  167MOL   O14333675   4.949   7.748   3.424 -0.2184  0.2584  0.0910
  167MOL   C14433676   4.953   0.014   3.661 -0.3746 -0.5733  0.1472
  167MOL   C14533677   5.102   7.757   3.684  0.2827 -0.2987 -0.3359
  167MOL   N14633678   5.131   7.626   3.736 -0.1683 -0.3972  0.0453
  167MOL   H14733679   4.883   7.770   3.742 -1.4780  0.7874 -0.3784
  167MOL   H14833680   4.944   0.122   3.649 -2.6662 -0.6427  0.9996
  167MOL   H14933681   5.153   0.000   3.591 -1.8346 -2.1148 -1.9966
  167MOL   H15033682   5.119   0.036   3.774  2.1413 -1.6792  0.2583
  167MOL   H15133683   5.105   7.609   3.832 -1.2599 -1.3710 -0.4049
  167MOL   C15233684   5.205   7.522   3.692 -0.1363 -0.2939  0.0742
  167MOL   O15333685   5.262   7.531   3.585  0.1777  0.7135  0.1974
  167MOL   C15433686   5.216   7.395   3.780  0.0765 -0.0413  0.0700
  167MOL   C15533687   5.361   7.372   3.831 -0.7152  0.0309 -0.2832
  167MOL   N15633688   5.408   7.233   3.827  0.1338  0.6273 -0.7792
  167MOL   H15733689   5.181   7.310   3.722 -1.2898  1.7225 -1.7499
  167MOL   H15833690   5.151   7.407   3.866  2.0971 -2.1439  1.9517
  167MOL   H15933691   5.433   7.443   3.789  0.5390  0.0068  1.7579
  167MOL   H16033692   5.355   7.411   3.933  1.1711 -2.5880  0.9125
  167MOL   H16133693   5.332   7.167   3.829 -0.3166  1.1742  1.3227
  167MOL   C16233694   5.510   7.188   3.895 -0.2695 -0.1646 -0.3484
  167MOL   O16333695   5.603   7.258   3.936  0.1842 -0.1115  0.1988
  167MOL   C16433696   5.498   7.039   3.921  0.0712 -0.0169  0.6031
  167MOL   C16533697   5.605   6.956   3.859 -0.0816 -0.3682 -0.1076
  167MOL   N16633698   5.562   6.897   3.730  0.3223  0.2053  0.4377
  167MOL   H16733699   5.404   6.991   3.897 -1.0783  2.0028  0.9122
  167MOL   H16833700   5.518   7.040   4.028  2.1898  2.4293  0.2622
  167MOL   H16933701   5.702   7.006   3.851 -1.2940  1.8747 -1.5123
  167MOL   H17033702   5.612   6.874   3.930  1.0827 -1.2487 -1.2202
  167MOL   H17133703   5.507   6.813   3.736  0.1606  0.2587 -0.2056
  167MOL   C17233704   5.590   6.957   3.614 -0.0874  0.8520  0.0829
  167MOL   O17333705   5.658   7.061   3.617 -0.6181  0.2688  0.0192
  167MOL   C17433706   5.523   6.895   3.490 -0.1147 -0.3842 -0.2517
  167MOL   C17533707   5.612   6.880   3.365 -0.5658 -0.4566 -0.4041
  167MOL   N17633708   5.653   7.007   3.307  1.0186 -0.5194  0.1826
  167MOL   H17733709   5.435   6.954   3.467 -0.9474 -0.8153  1.7196
  167MOL   H17833710   5.484   6.796   3.513  3.2535 -1.2440  2.2158
  167MOL   H17933711   5.704   6.826   3.387  1.1806  1.7204 -2.0766
  167MOL   H18033712   5.551   6.831   3.290  0.7659 -0.9342 -1.1836
  167MOL   H18133713   5.582   7.078   3.295 -0.1668 -1.6905  0.2274
  167MOL   C18233714   5.780   7.038   3.268 -0.2757 -0.3686  0.3598
  167MOL   O18333715   5.869   6.956   3.254  0.0757 -0.0562  0.1121
  167MOL   C18433716   5.791   7.180   3.218 -0.5444 -0.1708 -0.7382
  167MOL   C18533717   5.932   7.235   3.247 -0.2274 -0.4911 -0.4006
  167MOL   N18633718   6.046   7.172   3.181 -0.2233  0.1005  0.0887
  167MOL   H18733719   5.719   7.239   3.273 -0.0883 -0.2083 -0.1006
  167MOL   H18833720   5.788   7.191   3.109 -1.1599  2.5100 -0.4727
  167MOL   H18933721   5.932   7.340   3.220 -1.7093 -0.1885  0.7037
  167MOL   H19033722   5.945   7.236   3.355 -0.4337  1.1056 -0.3761
  167MOL   H19133723   6.065   7.074   3.202 -0.3319 -0.0219 -0.3787
  167MOL   C19233724   6.115   7.212   3.075  0.1670 -0.4832 -0.0812
  167MOL   O19333725   6.102   7.325   3.013  0.1196 -0.6358  0.4441
  167MOL   C19433726   6.219   7.114   3.016  0.0145 -0.6077  0.5370
  167MOL   C19533727   6.209   6.965   3.046 -1.0424 -0.0271  0.2114
  167MOL   N19633728   6.199   6.918   3.188  0.0425  0.1732 -0.2003
  167MOL   H19733729   6.215   7.130   2.908 -0.6327 -0.1149  0.6324
  167MOL   H19833730   6.317   7.158   3.035 -0.5243  0.7260  0.3207
  167MOL   H19933731   6.143   6.913   2.977 -1.0169  0.8113 -0.4461
  167MOL   H20033732   6.304   6.931   3.005  0.3843  2.2397  1.5490
  167MOL   H20133733   6.286   6.888   3.229  0.6822  1.0813 -0.8557
  167MOL   H20233734   6.145   6.833   3.195  0.0707  0.3299  2.3016
  168MOL     C133735   0.629   3.424   0.211  0.7234 -0.2846  0.7046
  168MOL     O233736   0.608   3.298   0.202 -0.1517 -0.0186 -0.2375
  168MOL     C333737   0.706   3.480   0.336  0.5273  0.2191 -0.2347
  168MOL     C433738   0.786   3.614   0.312 -0.8310  0.3843 -0.4294
  168MOL     N533739   0.699   3.721   0.290  0.2354  0.6403  0.8258
  168MOL     H633740   0.768   3.402   0.379  1.3904  0.4200 -1.1216
  168MOL     H733741   0.632   3.498   0.415 -0.6715 -0.3564 -1.2046
  168MOL     H833742   0.839   3.608   0.217  1.4365 -0.6286  0.8574
  168MOL     H933743   0.854   3.640   0.393 -1.9247  1.1726  0.2374
  168MOL    H1033744   0.707   3.756   0.196 -1.4932  3.2476  1.5953
  168MOL    H1133745   0.592   3.498   0.140  0.9670  1.0771  1.9627
  168MOL    C1233746   0.622   3.787   0.371  0.5155  0.7815  1.0222
  168MOL    O1333747   0.629   3.774   0.494  0.5196  0.4505 -0.5168
  168MOL    C1433748   0.526   3.887   0.320 -0.5697  0.5391 -0.0862
  168MOL    C1533749   0.393   3.893   0.398  0.1838  0.6159 -0.4406
  168MOL    N1633750   0.399   3.975   0.519  0.4263  0.0878  0.4463
  168MOL    H1733751   0.501   3.859   0.218  1.6180 -1.4577 -0.1122
  168MOL    H1833752   0.581   3.981   0.321 -0.3064  0.3904  1.6665
  168MOL    H1933753   0.320   3.920   0.322  0.5282 -1.5671 -1.5805
  168MOL    H2033754   0.365   3.791   0.426  2.5208  0.6207  2.1916
  168MOL    H2133755   0.482   3.988   0.576  0.8231  0.0170 -0.1173
  168MOL    C2233756   0.292   4.034   0.570 -0.5524 -0.2889 -0.1151
  168MOL    O2333757   0.179   4.011   0.521 -0.2298  0.6267 -0.5163
  168MOL    C2433758   0.312   4.126   0.691  0.4484 -0.1808  0.2313
  168MOL    C2533759   0.284   4.270   0.656  0.1721  1.0648  0.2472
  168MOL    N2633760   0.362   4.324   0.540 -0.1134 -0.5033 -0.2788
  168MOL    H2733761   0.414   4.124   0.729  0.9595 -1.1065 -1.1388
  168MOL    H2833762   0.248   4.085   0.769 -0.8765  2.1866  0.4432
  168MOL    H2933763   0.180   4.262   0.621  0.1975 -0.7866  0.5197
  168MOL    H3033764   0.274   4.338   0.740 -3.5581 -0.7845  1.4350
  168MOL    H3133765   0.305   4.379   0.477 -1.3190 -0.9017  0.4500
  168MOL    C3233766   0.492   4.323   0.512 -0.0615 -0.2560  0.0414
  168MOL    O3333767   0.578   4.275   0.588  0.1700 -0.4187  0.3167
  168MOL    C3433768   0.549   4.395   0.389  0.5203 -0.5963 -0.1815
  168MOL    C3533769   0.655   4.310   0.322  0.2714  0.2534 -0.0359
  168MOL    N3633770   0.724   4.380   0.220 -0.1136 -0.5516  0.2814
  168MOL    H3733771   0.598   4.475   0.444 -0.0598 -0.5785  0.3197
  168MOL    H3833772   0.462   4.427   0.331  0.7878  1.0942  0.3048
  168MOL    H3933773   0.734   4.274   0.388 -0.5477 -0.7449  0.4090
  168MOL    H4033774   0.595   4.226   0.287  0.1830  0.8761 -1.3956
  168MOL    H4133775   0.702   4.478   0.209  0.7259 -0.3711  0.2153
  168MOL    C4233776   0.833   4.332   0.160  0.1004 -0.0725 -0.4670
  168MOL    O4333777   0.858   4.216   0.165 -0.1641  0.1386 -0.2296
  168MOL    C4433778   0.934   4.439   0.102 -0.3298  1.0451  0.2120
  168MOL    C4533779   1.071   4.384   0.057 -0.4134  0.4993  0.6476
  168MOL    N4633780   1.075   4.316   7.712  0.0194 -0.5953  0.0320
  168MOL    H4733781   0.892   4.489   0.015  1.3634 -0.8485 -1.7372
  168MOL    H4833782   0.937   4.497   0.195  1.1379 -0.2475  1.0028
  168MOL    H4933783   1.133   4.472   0.037 -0.6030  0.2411 -1.1962
  168MOL    H5033784   1.113   4.315   0.129  2.6348 -0.4352 -1.9029
  168MOL    H5133785   0.988   4.307   7.662  0.4193 -2.8035 -0.3330
  168MOL    C5233786   1.183   4.272   7.657 -0.0700  0.0730  0.4261
  168MOL    O5333787   1.293   4.271   7.710 -0.0105 -0.5728 -0.0474
  168MOL    C5433788   1.168   4.205   7.524 -0.3359  0.2431  0.2330
  168MOL    C5533789   1.222   4.062   7.517  0.7076  0.1017  0.9270
  168MOL    N5633790   1.198   4.006   7.385 -0.6965  0.0510 -0.3896
  168MOL    H5733791   1.065   4.198   7.491  0.2503 -1.4146 -1.3143
  168MOL    H5833792   1.218   4.271   7.453 -0.4504  1.0702  0.9086
  168MOL    H5933793   1.200   4.006   7.608 -0.1276 -0.6124  0.2848
  168MOL    H6033794   1.331   4.057   7.515  0.8037  2.0862 -0.8076
  168MOL    H6133795   1.265   4.035   7.315  0.1308 -1.4345 -0.2239
  168MOL    C6233796   1.084   3.942   7.346 -0.9794 -0.3155  0.2450
  168MOL    O6333797   0.994   3.910   7.425 -0.0235  0.5234  0.3253
  168MOL    C6433798   1.059   3.923   7.199  0.2704 -0.3306 -0.3446
  168MOL    C6533799   0.969   4.030   7.138  0.2585 -0.5950  1.1050
  168MOL    N6633800   0.994   4.071   6.994 -0.5256 -0.2666 -0.1188
  168MOL    H6733801   1.155   3.918   7.147  0.4889 -0.5597  0.0781
  168MOL    H6833802   0.998   3.834   7.187 -1.6085  1.0214 -0.9879
  168MOL    H6933803   0.862   4.013   7.155 -0.3711  2.0766 -0.0101
  168MOL    H7033804   0.982   4.125   7.190 -0.1560 -0.9536  1.8877
  168MOL    H7133805   1.090   4.071   6.963  0.9087 -2.3677  3.9539
  168MOL    C7233806   0.910   4.128   6.904  0.7328 -0.4793 -0.3482
  168MOL    O7333807   0.788   4.148   6.928 -0.2540 -0.0813 -0.3738
  168MOL    C7433808   0.973   4.164   6.770  0.0338 -0.1194  0.8802
  168MOL    C7533809   0.907   4.286   6.701 -0.6763  0.0141  0.2230
  168MOL    N7633810   0.909   4.413   6.766  0.1047 -0.5030  0.1173
  168MOL    H7733811   1.079   4.186   6.787 -0.4155  2.8488  0.1392
  168MOL    H7833812   0.964   4.074   6.709 -1.3292 -0.1393  1.0963
  168MOL    H7933813   0.941   4.289   6.597 -0.4393  1.5508  0.3392
  168MOL    H8033814   0.801   4.264   6.684 -0.3195  0.3960 -2.7927
  168MOL    H8133815   0.933   4.413   6.865  1.8109 -2.8702 -0.2479
  168MOL    C8233816   0.873   4.521   6.698 -0.5444  0.0865  0.2927
  168MOL    O8333817   0.838   4.516   6.583 -0.1673 -0.7541  0.8568
  168MOL    C8433818   0.864   4.655   6.770  0.0888  0.7558  0.1522
  168MOL    C8533819   0.873   4.777   6.676  0.6259  0.0619 -0.3070
  168MOL    N8633820   0.838   4.893   6.754  0.0306 -0.2310  0.5500
  168MOL    H8733821   0.771   4.648   6.826 -1.3521  0.7535 -2.1459
  168MOL    H8833822   0.946   4.651   6.841 -1.1717 -1.2309  1.5510
  168MOL    H8933823   0.970   4.785   6.627  0.7584 -0.4760 -0.1373
  168MOL    H9033824   0.805   4.779   6.591 -1.2145 -0.1884  1.1310
  168MOL    H9133825   0.757   4.900   6.814  0.4490  0.5101  1.0505
  168MOL    C9233826   0.896   5.016   6.749 -0.5654  0.7465  0.3654
  168MOL    O9333827   1.002   5.032   6.684 -0.0032  0.0732  0.4426
  168MOL    C9433828   0.846   5.133   6.832 -0.3026  0.1687 -0.0343
  168MOL    C9533829   0.952   5.223   6.899 -0.9373  0.0460 -0.4003
  168MOL    N9633830   0.908   5.334   6.988 -0.4553  0.4807 -0.3947
  168MOL    H9733831   0.784   5.187   6.760 -0.5591 -0.3571 -0.2102
  168MOL    H9833832   0.772   5.099   6.904 -1.9114  0.9731 -1.2874
  168MOL    H9933833   1.013   5.155   6.959  0.0464  1.1991 -0.0888
  168MOL   H10033834   1.009   5.271   6.819 -0.0064  0.1303  0.3028
  168MOL   H10133835   0.979   5.349   7.058 -1.3053  0.8591  0.3910
  168MOL   C10233836   0.835   5.441   6.956 -0.2156 -0.6789 -0.4732
  168MOL   O10333837   0.783   5.457   6.842  0.4778  0.2366 -0.0078
  168MOL   C10433838   0.822   5.549   7.066  0.3791  0.4856 -0.0988
  168MOL   C10533839   0.833   5.689   7.018 -0.7956  0.6421 -0.2591
  168MOL   N10633840   0.711   5.764   6.990  0.1544  0.1066  0.1619
  168MOL   H10733841   0.906   5.533   7.134 -1.2874  2.6046  2.5692
  168MOL   H10833842   0.726   5.533   7.115  0.5341 -2.9792 -0.8000
  168MOL   H10933843   0.883   5.758   7.085  0.3814 -0.1292 -0.3258
  168MOL   H11033844   0.899   5.692   6.931  0.6259 -0.5280  0.7534
  168MOL   H11133845   0.675   5.768   6.896 -2.5070 -2.9115  0.9449
  168MOL   C11233846   0.637   5.831   7.076 -1.0544 -0.1658  0.2800
  168MOL   O11333847   0.652   5.820   7.198  0.6061  0.4081  0.4986
  168MOL   C11433848   0.526   5.920   7.006 -0.1153  0.1167  0.1771
  168MOL   C11533849   0.468   6.022   7.101 -0.1069 -1.0147  0.5961
  168MOL   N11633850   0.376   5.958   7.197  0.2853  0.7740 -0.0744
  168MOL   H11733851   0.456   5.859   6.949  2.5517 -1.5846 -1.3857
  168MOL   H11833852   0.586   5.976   6.933  1.1181 -2.3736 -0.7581
  168MOL   H11933853   0.554   6.075   7.143 -0.8652 -0.1650  1.1005
  168MOL   H12033854   0.412   6.087   7.033  0.7522 -0.9554 -0.0660
  168MOL   H12133855   0.369   5.858   7.200 -0.0450  0.8056  0.3705
  168MOL   C12233856   0.283   6.025   7.263  0.4107 -0.8176  0.4423
  168MOL   O12333857   0.266   6.146   7.270  0.5775  0.7079 -0.3580
  168MOL   C12433858   0.171   5.931   7.310  0.3428 -0.1250  0.3163
  168MOL   C12533859   0.096   5.986   7.433  0.8405 -0.4398  0.1787
  168MOL   N12633860   7.768   6.084   7.420  0.4889  0.4680 -0.1648
  168MOL   H12733861   0.222   5.841   7.342  0.1788 -0.0354  0.8456
  168MOL   H12833862   0.122   5.906   7.216 -0.9474  2.8438  0.1415
  168MOL   H12933863   0.049   5.894   7.471 -0.1149  1.3158  3.4949
  168MOL   H13033864   0.170   6.011   7.509  0.7439  0.4654 -0.0200
  168MOL   H13133865   7.746   6.113   7.326 -2.0168 -1.0701 -0.0921
  168MOL   C13233866   7.686   6.114   7.523 -0.4613  0.8199 -0.0540
  168MOL   O13333867   7.703   6.067   7.632  0.0965 -0.5480  0.2688
  168MOL   C13433868   7.566   6.203   7.477  0.2056  0.3599  0.5085
  168MOL   C13533869   7.497   6.281   7.576  0.4949 -0.3227  0.0409
  168MOL   N13633870   7.579   6.361   7.663  0.2052  0.0233 -0.3769
  168MOL   H13733871   7.497   6.132   7.431 -2.1635  2.9146  0.0105
  168MOL   H13833872   7.596   6.281   7.408  0.8832  0.0425  0.4374
  168MOL   H13933873   7.413   6.334   7.531 -1.0948 -2.4368  0.4164
  168MOL   H14033874   7.454   6.211   7.648 -1.3043  2.7549  2.1214
  168MOL   H14133875   7.602   6.323   7.753  1.4321  1.1513 -0.1949
  168MOL   C14233876   7.652   6.466   7.626 -0.1637 -0.2156  0.9433
  168MOL   O14333877   7.647   6.518   7.515  0.1817 -0.1278 -0.6037
  168MOL   C14433878   7.746   6.536   7.732  0.1747 -0.1125  0.1020
  168MOL   C14533879   0.008   6.674   7.690 -0.0161 -0.1664 -0.4901
  168MOL   N14633880   0.087   6.746   7.779  0.3077 -0.0211 -0.0905
  168MOL   H14733881   0.040   6.462   7.760  0.3717  1.2847  3.5146
  168MOL   H14833882   7.678   6.549   0.037 -1.4375  3.2649 -1.5755
  168MOL   H14933883   0.054   6.689   7.592 -2.3865 -4.1174 -2.3388
  168MOL   H15033884   7.699   6.734   7.669  0.1985  0.2727 -0.1480
  168MOL   H15133885   0.059   6.747   0.096 -1.1443  1.1727 -0.4939
  168MOL   C15233886   0.178   6.835   7.747 -0.3490  0.3134  0.3370
  168MOL   O15333887   0.196   6.858   7.627 -0.4345  0.5953 -0.9577
  168MOL   C15433888   0.248   6.913   0.082  0.1507  0.2781  0.7138
  168MOL   C15533889   0.387   6.957   0.057  0.4212 -0.2655  0.1153
  168MOL   N15633890   0.486   6.851   0.076 -0.0269  0.0212  0.1891
  168MOL   H15733891   0.241   6.849   0.170  0.9391  2.1175  2.1450
  168MOL   H15833892   0.180   6.996   0.099 -0.0804  0.2778 -0.1697
  168MOL   H15933893   0.397   6.987   7.733  2.5458  2.2760  0.9911
  168MOL   H16033894   0.399   7.049   0.114 -1.0824  0.0655 -0.0682
  168MOL   H16133895   0.532   6.823   7.771 -0.0241 -0.4590  0.3526
  168MOL   C16233896   0.535   6.824   0.192 -0.5024 -0.0324  0.6826
  168MOL   O16333897   0.485   6.854   0.302 -0.1971  0.6770  0.6025
  168MOL   C16433898   0.670   6.749   0.189  0.2318  0.6123  0.1424
  168MOL   C16533899   0.740   6.722   0.320 -0.5200  0.0822 -0.5209
  168MOL   N16633900   0.862   6.645   0.302  0.3760 -0.5694 -0.0846
  168MOL   H16733901   0.738   6.818   0.139 -1.4617  1.2628 -1.2985
  168MOL   H16833902   0.678   6.663   0.123  0.7476  0.4729  0.3794
  168MOL   H16933903   0.747   6.817   0.373 -0.5028  0.8646 -1.8942
  168MOL   H17033904   0.677   6.661   0.384  0.0840 -1.3428 -1.2821
  168MOL   H17133905   0.858   6.550   0.336  0.1833 -0.1443  1.1134
  168MOL   C17233906   0.975   6.679   0.224  0.5990 -0.3880  0.5363
  168MOL   O17333907   0.993   6.793   0.172  0.2747  0.2755 -0.3921
  168MOL   C17433908   1.091   6.576   0.232 -0.6852  0.2699 -0.0036
  168MOL   C17533909   1.205   6.621   0.326 -0.1474  0.6419 -0.7831
  168MOL   N17633910   1.151   6.608   0.458 -0.6528  0.1720 -0.1461
  168MOL   H17733911   1.138   6.579   0.134 -0.3083  1.4939  0.2089
  168MOL   H17833912   1.059   6.473   0.249  0.4363 -0.2055 -0.7252
  168MOL   H17933913   1.292   6.555   0.320  0.1899  0.8143  1.6768
  168MOL   H18033914   1.238   6.723   0.306 -0.8270  0.2779 -3.9182
  168MOL   H18133915   1.088   6.529   0.461  1.9419 -2.0996 -2.6521
  168MOL   C18233916   1.179   6.687   0.565 -0.0728  0.9404 -0.4646
  168MOL   O18333917   1.253   6.784   0.563  1.0663  0.6927  0.2551
  168MOL   C18433918   1.093   6.670   0.689  0.6786  0.0215  0.2123
  168MOL   C18533919   0.996   6.785   0.717  0.2906  0.3594  0.1977
  168MOL   N18633920   0.899   6.755   0.823 -0.7366 -0.2090  0.1019
  168MOL   H18733921   1.158   6.663   0.777  0.5311  0.5052  0.3607
  168MOL   H18833922   1.040   6.576   0.681  1.3699 -0.5661  2.1010
  168MOL   H18933923   1.041   6.884   0.727  0.3100  0.6449 -2.2688
  168MOL   H19033924   0.942   6.800   0.623 -2.1922 -1.0928  1.3389
  168MOL   H19133925   0.799   6.764   0.811 -0.9148 -1.0705  0.9216
  168MOL   C19233926   0.932   6.749   0.951  0.2691 -0.7972  0.7174
  168MOL   O19333927   1.048   6.741   0.982 -0.1016  0.1646 -0.4878
  168MOL   C19433928   0.827   6.772   1.063 -0.3485 -0.2422 -0.1398
  168MOL   C19533929   0.700   6.832   1.015  0.0886  0.6476 -0.2789
  168MOL   N19633930   0.627   6.745   0.922 -0.0658  0.0897 -0.1556
  168MOL   H19733931   0.805   6.676   1.110 -0.3584  0.8165  2.1171
  168MOL   H19833932   0.876   6.824   1.145  0.9303  0.4475 -1.3286
  168MOL   H19933933   0.635   6.852   1.099 -1.1731  1.1963 -1.3689
  168MOL   H20033934   0.731   6.929   0.976  0.6808 -0.0094 -1.4858
  168MOL   H20133935   0.614   6.650   0.954 -0.7737  0.0440 -0.5521
  168MOL   H20233936   0.534   6.777   0.898  0.8258  2.1817 -0.8903
  169MOL     C133937   5.051   0.341   0.519  0.3080  0.7613 -0.2428
  169MOL     O233938   5.045   0.221   0.513  0.5125  0.4651  0.0508
  169MOL     C333939   4.997   0.423   0.404  0.5151 -0.6364  0.1376
  169MOL     C433940   5.030   0.573   0.410  0.5195  0.0461 -0.4694
  169MOL     N533941   4.972   0.635   0.529  0.0617 -0.0157  0.0775
  169MOL     H633942   4.889   0.410   0.410  0.4228 -0.9057 -1.6499
  169MOL     H733943   5.040   0.385   0.311 -0.5713  0.8256 -0.9950
  169MOL     H833944   4.991   0.621   0.321  0.9606  0.1502 -0.6029
  169MOL     H933945   5.138   0.576   0.399  0.7111 -3.3865 -0.3032
  169MOL    H1033946   4.898   0.588   0.579 -0.3276  0.7936  0.2707
  169MOL    H1133947   5.081   0.404   0.603  2.6210  0.4965 -0.8307
  169MOL    C1233948   5.009   0.751   0.583  0.1500 -0.1365 -0.4820
  169MOL    O1333949   5.100   0.822   0.536 -0.1629  0.1475 -0.1912
  169MOL    C1433950   4.940   0.794   0.711  0.1865 -0.0890  0.1200
  169MOL    C1533951   5.035   0.880   0.800  0.2840 -0.3047  0.7022
  169MOL    N1633952   4.988   0.910   0.933 -0.3319  0.1732 -0.7433
  169MOL    H1733953   4.937   0.701   0.768 -2.1312  0.0204  0.2424
  169MOL    H1833954   4.838   0.832   0.701  1.2888  2.6938 -1.0573
  169MOL    H1933955   5.135   0.839   0.809 -0.4639 -2.3562  0.1290
  169MOL    H2033956   5.050   0.973   0.746 -0.6996 -0.2526  0.4944
  169MOL    H2133957   4.956   1.003   0.954 -1.1820  0.0252 -1.3511
  169MOL    C2233958   4.962   0.825   1.033 -0.2168 -0.5172 -0.3130
  169MOL    O2333959   4.984   0.703   1.025  0.6169  0.3103 -0.0983
  169MOL    C2433960   4.895   0.872   1.161  0.5202 -0.0852  0.6886
  169MOL    C2533961   4.745   0.837   1.171  0.0281 -0.0136  0.8243
  169MOL    N2633962   4.660   0.914   1.078 -1.0615  0.7740 -0.6046
  169MOL    H2733963   4.913   0.979   1.149  0.4986  0.0004  1.3645
  169MOL    H2833964   4.952   0.830   1.244  0.3046  1.3756  1.6113
  169MOL    H2933965   4.735   0.728   1.178 -0.3443  0.0793  1.9117
  169MOL    H3033966   4.716   0.873   1.270 -2.2829  4.1067 -1.2351
  169MOL    H3133967   4.703   0.947   0.992 -2.7764  0.4079 -1.6373
  169MOL    C3233968   4.531   0.950   1.094 -0.2103 -0.3174 -0.1264
  169MOL    O3333969   4.456   0.921   1.182  0.5272  0.4037 -0.6463
  169MOL    C3433970   4.483   1.041   0.981 -0.0663 -0.5148 -0.9992
  169MOL    C3533971   4.354   0.982   0.931 -0.3311  0.7584 -0.4615
  169MOL    N3633972   4.335   1.037   0.798  0.1272 -0.2301  0.1443
  169MOL    H3733973   4.559   1.029   0.903  2.1529  0.8256  0.8963
  169MOL    H3833974   4.479   1.145   1.013 -0.2770 -0.8221 -0.0107
  169MOL    H3933975   4.371   0.875   0.932  1.0021  0.9574  0.8880
  169MOL    H4033976   4.277   1.010   1.002 -0.4859 -1.9454  0.4975
  169MOL    H4133977   4.414   1.073   0.746  1.1339 -1.5150  0.7759
  169MOL    C4233978   4.213   1.052   0.738 -0.7780 -0.1671  0.0573
  169MOL    O4333979   4.112   1.011   0.790 -0.3477 -0.1399 -0.3198
  169MOL    C4433980   4.203   1.133   0.613 -0.6400 -0.4803 -0.2362
  169MOL    C4533981   4.312   1.123   0.503 -0.0322  0.4150 -0.4928
  169MOL    N4633982   4.354   0.983   0.480  0.2990  0.3225  0.0216
  169MOL    H4733983   4.107   1.107   0.568  0.2965 -3.2731 -0.7652
  169MOL    H4833984   4.201   1.237   0.643  1.9368 -0.3060 -0.5253
  169MOL    H4933985   4.268   1.155   0.409 -0.0876  0.9147 -0.3007
  169MOL    H5033986   4.401   1.182   0.526  0.5659 -0.4718 -0.5161
  169MOL    H5133987   4.280   0.928   0.439  0.4678 -1.6088  2.2118
  169MOL    C5233988   4.463   0.918   0.516 -0.0045  0.6607  0.6428
  169MOL    O5333989   4.551   0.970   0.588 -0.1093 -0.1081 -0.0914
  169MOL    C5433990   4.462   0.771   0.472 -0.2955  0.0895 -0.6102
  169MOL    C5533991   4.585   0.690   0.505  0.1400  0.0083 -0.2376
  169MOL    N5633992   4.596   0.670   0.653 -0.5790 -0.6964 -0.1718
  169MOL    H5733993   4.380   0.718   0.522 -0.5196 -1.0743 -2.1585
  169MOL    H5833994   4.442   0.760   0.366 -1.8699 -2.7458 -0.0736
  169MOL    H5933995   4.679   0.737   0.476  1.4239 -1.8001  0.9390
  169MOL    H6033996   4.574   0.589   0.467 -0.1399  0.6369 -1.8559
  169MOL    H6133997   4.570   0.743   0.718  0.7117 -0.1466 -0.2639
  169MOL    C6233998   4.666   0.572   0.706  0.1522 -0.2994 -0.8391
  169MOL    O6333999   4.716   0.477   0.643  0.4111 -0.5367 -0.1804
  169MOL    C6434000   4.683   0.581   0.853  0.3276  0.2259  0.1030
  169MOL    C6534001   4.574   0.497   0.929 -0.4721 -0.1955 -0.9240
  169MOL    N6634002   4.609   0.461   1.070 -0.2374 -0.0504 -0.2975
  169MOL    H6734003   4.788   0.552   0.867  0.0198 -0.3482  1.2980
  169MOL    H6834004   4.667   0.686   0.881 -2.6318 -0.0239 -0.5050
  169MOL    H6934005   4.480   0.552   0.932  1.0210  2.3987 -0.2936
  169MOL    H7034006   4.547   0.408   0.871  0.1660 -0.1492 -1.2995
  169MOL    H7134007   4.545   0.483   1.144  0.8055  0.1005  0.5797
  169MOL    C7234008   4.714   0.388   1.095  0.6514 -0.1187 -0.3329
  169MOL    O7334009   4.794   0.350   1.006  0.3515 -0.0179 -0.0336
  169MOL    C7434010   4.737   0.347   1.241  0.1787  0.4188  0.3691
  169MOL    C7534011   4.882   0.324   1.286  0.0595  0.3548 -0.1024
  169MOL    N7634012   4.941   0.213   1.222  0.0488  0.1139  0.3190
  169MOL    H7734013   4.690   0.422   1.305 -0.1331  0.4575  0.0968
  169MOL    H7834014   4.677   0.257   1.254 -0.0483  0.5251  0.0672
  169MOL    H7934015   4.943   0.414   1.275 -0.2250  0.7425  1.2834
  169MOL    H8034016   4.878   0.304   1.394 -0.0045  0.8405 -0.0140
  169MOL    H8134017   4.887   0.143   1.174  1.4185  1.1142 -2.7974
  169MOL    C8234018   5.071   0.206   1.186 -0.1087  0.4835 -0.2754
  169MOL    O8334019   5.155   0.293   1.220  0.2193 -0.2502  0.0295
  169MOL    C8434020   5.101   0.091   1.088  0.5222 -0.4739 -0.3508
  169MOL    C8534021   5.117   0.150   0.946 -0.2282 -0.5878 -0.2323
  169MOL    N8634022   4.990   0.177   0.876 -0.5036  0.3518  0.7935
  169MOL    H8734023   5.190   0.032   1.108  1.0340  0.0833 -0.9506
  169MOL    H8834024   5.010   0.031   1.084  1.2040 -1.4405 -2.7994
  169MOL    H8934025   5.166   0.247   0.943 -1.2396 -0.0353  0.9379
  169MOL    H9034026   5.178   0.085   0.882  1.6548  0.2000  0.7344
  169MOL    H9134027   4.948   0.267   0.894  0.6928  1.1781 -0.4042
  169MOL    C9234028   4.911   0.083   0.820 -0.6624  0.1788  0.3269
  169MOL    O9334029   4.936   7.746   0.833  0.3775  0.2562 -0.0963
  169MOL    C9434030   4.794   0.124   0.719  0.0480  0.0798 -0.3447
  169MOL    C9534031   4.657   0.123   0.782  0.3286 -0.5759 -0.0421
  169MOL    N9634032   4.597   7.769   0.759 -0.2740  0.0709 -0.3762
  169MOL    H9734033   4.826   0.223   0.685  1.9785 -0.9946 -1.7503
  169MOL    H9834034   4.800   0.062   0.630 -0.2153 -0.6870  0.1711
  169MOL    H9934035   4.667   0.138   0.889  2.5293 -1.4850 -0.0999
  169MOL   H10034036   4.602   0.199   0.726  0.5556 -1.3281 -1.3194
  169MOL   H10134037   4.644   7.694   0.808  3.7589  1.2788 -2.1403
  169MOL   C10234038   4.492   7.737   0.680  0.5065  0.4549 -0.2006
  169MOL   O10334039   4.428   0.034   0.606 -0.1057 -0.2227 -0.5311
  169MOL   C10434040   4.453   7.595   0.695 -0.3573  0.1254 -0.7302
  169MOL   C10534041   4.303   7.556   0.677  0.3564  0.2673 -0.1660
  169MOL   N10634042   4.296   7.410   0.665 -0.3253 -0.2002  0.4574
  169MOL   H10734043   4.484   7.562   0.794 -0.6760 -0.1813 -0.7301
  169MOL   H10834044   4.516   7.547   0.621  2.9208 -0.7513  2.4985
  169MOL   H10934045   4.239   7.586   0.761 -1.3535 -2.3404 -0.4885
  169MOL   H11034046   4.262   7.598   0.585  0.4401 -0.3537 -0.4847
  169MOL   H11134047   4.383   7.363   0.687 -1.4276 -2.4625  0.1199
  169MOL   C11234048   4.193   7.329   0.638  0.3776  0.2241 -0.4501
  169MOL   O11334049   4.081   7.365   0.612 -0.1086  0.3186  0.5173
  169MOL   C11434050   4.220   7.180   0.647  0.2319 -0.3846  0.2561
  169MOL   C11534051   4.221   7.111   0.498  0.3112 -0.6156 -0.5306
  169MOL   N11634052   4.084   7.064   0.451 -0.4453 -0.2255  0.9756
  169MOL   H11734053   4.155   7.129   0.717 -0.1240  0.7490  0.7647
  169MOL   H11834054   4.322   7.162   0.682  0.1548 -0.0369  0.6540
  169MOL   H11934055   4.264   7.181   0.426 -0.1388  1.1529  0.8838
  169MOL   H12034056   4.281   7.020   0.506 -0.1755 -1.1288 -2.5008
  169MOL   H12134057   4.006   7.128   0.458  0.4317  0.9835 -0.0922
  169MOL   C12234058   4.056   6.943   0.400 -0.4538  0.9567 -0.2802
  169MOL   O12334059   4.139   6.848   0.405  0.4939 -0.6618 -0.6978
  169MOL   C12434060   3.922   6.922   0.333 -0.2014 -1.2548 -0.2746
  169MOL   C12534061   3.901   6.783   0.294 -0.0741 -0.5498 -0.0192
  169MOL   N12634062   3.873   6.684   0.401  0.4240  0.2309 -0.1650
  169MOL   H12734063   3.926   6.981   0.241  0.3756 -0.9664 -0.0617
  169MOL   H12834064   3.845   6.974   0.390  0.0437 -2.5856  1.2829
  169MOL   H12934065   3.813   6.794   0.230 -2.0101 -1.0309  2.4552
  169MOL   H13034066   3.985   6.738   0.243  0.3656  0.0597  0.1719
  169MOL   H13134067   3.826   6.726   0.480  1.2872 -0.3251  0.6435
  169MOL   C13234068   3.909   6.552   0.405 -0.7657 -0.1427  0.3177
  169MOL   O13334069   3.987   6.508   0.321  0.8556 -0.0951  0.3141
  169MOL   C13434070   3.864   6.476   0.531 -0.3232  0.0898 -0.0580
  169MOL   C13534071   3.966   6.399   0.616 -0.1776  0.2151 -0.2573
  169MOL   N13634072   4.011   6.279   0.543  0.2228  0.0037 -0.2774
  169MOL   H13734073   3.798   6.402   0.485  0.9472 -2.1092  1.5841
  169MOL   H13834074   3.806   6.538   0.599  0.9909  0.1283  1.0242
  169MOL   H13934075   4.050   6.462   0.645 -0.2479  0.4808 -0.6292
  169MOL   H14034076   3.908   6.373   0.706  1.2320  1.4694  1.0359
  169MOL   H14134077   4.025   6.278   0.443  1.4867 -0.0319 -0.1079
  169MOL   C14234078   4.046   6.155   0.588  0.0779  0.2197  0.0279
  169MOL   O14334079   4.040   6.122   0.708 -0.5432  0.0846  0.1392
  169MOL   C14434080   4.096   6.053   0.485  0.4368  0.7699  0.1194
  169MOL   C14534081   4.246   6.029   0.509  0.4222  0.4356 -0.4895
  169MOL   N14634082   4.330   6.087   0.401  0.7963 -0.4179  0.2581
  169MOL   H14734083   4.078   6.099   0.387  0.2533 -1.1182 -0.7463
  169MOL   H14834084   4.034   5.964   0.490  0.3105  0.5415 -3.9780
  169MOL   H14934085   4.283   6.079   0.598 -1.5739  0.8866  0.1094
  169MOL   H15034086   4.263   5.922   0.524  0.8532  0.4248 -1.0347
  169MOL   H15134087   4.326   6.186   0.386  1.4559 -0.7147 -2.3027
  169MOL   C15234088   4.384   6.014   0.304  0.3795 -0.3882 -0.0852
  169MOL   O15334089   4.393   5.892   0.309 -0.3313 -0.0819  0.1739
  169MOL   C15434090   4.430   6.090   0.182 -0.6886 -0.4835  0.4597
  169MOL   C15534091   4.376   6.039   0.046 -0.0643 -0.3004  0.3832
  169MOL   N15634092   4.470   6.085   7.721  0.7803 -0.4234 -0.4685
  169MOL   H15734093   4.539   6.091   0.181 -0.6744  1.4546  0.3549
  169MOL   H15834094   4.410   6.197   0.194 -0.1031 -0.3176 -0.0236
  169MOL   H15934095   4.372   5.930   0.050  1.6982 -0.3787  0.4407
  169MOL   H16034096   4.273   6.068   0.027  0.3509  1.1690  0.3651
  169MOL   H16134097   4.567   6.103   7.740  0.7779  2.4179 -2.7750
  169MOL   C16234098   4.436   6.109   7.595 -0.1253 -0.4996 -1.0124
  169MOL   O16334099   4.337   6.068   7.545  0.0852  0.0963 -0.2049
  169MOL   C16434100   4.536   6.187   7.503 -0.1119  0.4749  0.1784
  169MOL   C16534101   4.470   6.302   7.424  0.6423  0.4958 -0.3685
  169MOL   N16634102   4.411   6.414   7.501  0.2028  0.9742 -0.1456
  169MOL   H16734103   4.584   6.105   7.450 -0.4457 -0.8616  1.8968
  169MOL   H16834104   4.604   6.234   7.575  0.4127 -1.1599  0.7757
  169MOL   H16934105   4.548   6.347   7.362  0.3158  0.1851 -1.0126
  169MOL   H17034106   4.406   6.261   7.346 -0.0045  1.1385 -0.1886
  169MOL   H17134107   4.310   6.415   7.506  0.2691  0.5504  1.4753
  169MOL   C17234108   4.484   6.486   7.589 -0.1250 -0.3696  0.2277
  169MOL   O17334109   4.608   6.487   7.613 -0.2048 -0.0254  0.1298
  169MOL   C17434110   4.394   6.584   7.662 -0.6781 -0.1811 -0.3550
  169MOL   C17534111   4.296   6.527   7.764 -0.2760  0.1324 -0.2005
  169MOL   N17634112   4.169   6.479   7.704  0.6592  0.4931  0.0145
  169MOL   H17734113   4.337   6.635   7.583  0.4391 -1.0393 -1.7459
  169MOL   H17834114   4.452   6.667   7.701  0.4846 -1.3616  0.4399
  169MOL   H17934115   4.349   6.457   0.049 -0.5346 -1.0527 -1.2315
  169MOL   H18034116   4.262   6.606   0.051 -0.6712  1.0713 -1.4857
  169MOL   H18134117   4.129   6.530   7.626 -0.6974 -0.0454  0.3447
  169MOL   C18234118   4.112   6.364   7.745  0.7916 -0.5057  0.2510
  169MOL   O18334119   4.167   6.303   0.057 -0.5898 -0.0505 -0.2173
  169MOL   C18434120   3.987   6.321   7.674 -0.3730 -0.0398 -0.0627
  169MOL   C18534121   3.930   6.188   7.730 -0.1707 -0.1004 -0.4729
  169MOL   N18634122   3.834   6.138   7.635 -0.1984  0.1353  0.4833
  169MOL   H18734123   4.009   6.321   7.567  1.5658 -0.3282  0.3201
  169MOL   H18834124   3.920   6.401   7.705 -2.0407 -1.6243  0.5301
  169MOL   H18934125   4.015   6.119   7.734 -0.7610 -0.8017  0.0640
  169MOL   H19034126   3.899   6.201   0.053 -0.9730  1.0975 -0.8554
  169MOL   H19134127   3.867   6.102   7.546 -0.5753 -0.0835  0.4307
  169MOL   C19234128   3.705   6.120   7.665  0.6335  0.3941 -0.4195
  169MOL   O19334129   3.656   6.151   7.771 -0.1534  0.0521 -0.2980
  169MOL   C19434130   3.614   6.073   7.552  0.4158 -0.9951  0.2429
  169MOL   C19534131   3.481   6.154   7.544  0.0073 -0.3594 -0.2325
  169MOL   N19634132   3.419   6.119   7.421  0.4378 -0.9305 -0.2702
  169MOL   H19734133   3.674   6.096   7.464 -0.4273 -0.6288 -0.2465
  169MOL   H19834134   3.608   5.965   7.564 -0.1433 -1.0229 -0.2638
  169MOL   H19934135   3.410   6.122   7.619  1.3619  0.7977  1.5803
  169MOL   H20034136   3.490   6.262   7.551 -0.0730 -0.4356  1.2093
  169MOL   H20134137   3.446   6.030   7.382 -0.4676 -1.3185 -0.0304
  169MOL   H20234138   3.320   6.135   7.414  0.5030 -0.7169 -0.7536
  170MOL     C134139   6.664   3.447   6.403  0.0718 -0.6119  0.6262
  170MOL     O234140   6.708   3.375   6.493  0.4141 -0.1600  0.3905
  170MOL     C334141   6.521   3.410   6.363 -0.1914  0.0172 -1.0305
  170MOL     C434142   6.447   3.303   6.457  0.5776 -0.6851  0.7951
  170MOL     N534143   6.405   3.349   6.587 -0.1186 -0.2695 -0.4798
  170MOL     H634144   6.535   3.349   6.274 -2.8377 -0.2733 -1.2854
  170MOL     H734145   6.455   3.492   6.332 -1.4216  0.7650  3.2957
  170MOL     H834146   6.513   3.218   6.477 -3.1981 -3.4924  1.7392
  170MOL     H934147   6.359   3.261   6.410 -0.5404  3.8192 -1.4757
  170MOL    H1034148   6.433   3.442   6.613 -4.2240  1.0032 -0.3130
  170MOL    H1134149   6.721   3.527   6.355 -3.5085  1.3934 -0.5397
  170MOL    C1234150   6.344   3.276   6.678 -0.3358  0.4045 -0.0516
  170MOL    O1334151   6.304   3.158   6.658 -0.6006 -0.1114 -0.2800
  170MOL    C1434152   6.317   3.343   6.807 -0.3098  0.1763 -0.4612
  170MOL    C1534153   6.359   3.276   6.942  0.1403 -0.0523 -0.1780
  170MOL    N1634154   6.458   3.362   7.012 -0.4588  0.5203  1.2861
  170MOL    H1734155   6.210   3.356   6.827  0.1309 -0.4978  2.5935
  170MOL    H1834156   6.365   3.441   6.799 -1.0730  0.4441 -1.9269
  170MOL    H1934157   6.285   3.235   7.011  0.6658  0.5388  0.7444
  170MOL    H2034158   6.409   3.183   6.918  0.0107 -0.2245  0.2125
  170MOL    H2134159   6.555   3.333   7.011  0.1114  2.3240  1.2707
  170MOL    C2234160   6.417   3.468   7.079  0.1196  0.0293  0.0277
  170MOL    O2334161   6.297   3.508   7.069 -0.0795 -0.1747 -0.1137
  170MOL    C2434162   6.519   3.546   7.161  0.2911 -0.0196 -0.1555
  170MOL    C2534163   6.451   3.657   7.241 -0.2164 -0.6494 -0.7305
  170MOL    N2634164   6.382   3.602   7.361 -0.2128 -0.2691 -0.0727
  170MOL    H2734165   6.582   3.593   7.086  1.5056 -1.7492 -0.2492
  170MOL    H2834166   6.575   3.482   7.228  0.5538 -0.5220 -0.8511
  170MOL    H2934167   6.524   3.729   7.278 -1.4178  0.3199 -0.2134
  170MOL    H3034168   6.392   3.726   7.181 -1.7164 -0.0678  1.3578
  170MOL    H3134169   6.303   3.543   7.339 -2.8741  3.7510 -1.9870
  170MOL    C3234170   6.405   3.635   7.493 -0.4526  0.3774  0.3014
  170MOL    O3334171   6.477   3.729   7.523 -0.3121  0.3474  0.6109
  170MOL    C3434172   6.344   3.555   7.604  0.1543 -0.4209 -0.3250
  170MOL    C3534173   6.284   3.644   7.719 -0.4648 -0.0841 -0.1799
  170MOL    N3634174   6.153   3.594   7.755 -0.5606  0.2278  0.7700
  170MOL    H3734175   6.414   3.481   7.642  0.1883 -0.4489 -0.4411
  170MOL    H3834176   6.257   3.498   7.571  1.2561 -2.6472  0.5199
  170MOL    H3934177   6.344   3.640   0.030 -0.9340  0.9013  0.1816
  170MOL    H4034178   6.281   3.751   7.698 -2.3577 -0.0759  0.0653
  170MOL    H4134179   6.151   3.535   0.056  0.0633 -0.4651  0.2876
  170MOL    C4234180   6.033   3.632   7.707  0.2262 -0.2901  0.2604
  170MOL    O4334181   6.027   3.700   7.604  0.1439  0.3193  0.1555
  170MOL    C4434182   5.907   3.595   0.005  0.9298  0.4956 -0.0629
  170MOL    C4534183   5.832   3.717   0.061  0.0902  1.4948  0.1811
  170MOL    N4634184   5.913   3.803   0.149  0.2297 -0.2938  0.2971
  170MOL    H4734185   5.841   3.539   7.719 -1.5671 -0.4148  3.0920
  170MOL    H4834186   5.918   3.539   0.098 -3.1761  2.5132  1.7516
  170MOL    H4934187   5.816   3.767   7.746  0.5319 -1.0419 -1.2574
  170MOL    H5034188   5.729   3.703   0.095  0.5524 -3.2973 -0.0681
  170MOL    H5134189   5.943   3.890   0.107 -1.3271  0.4697  0.7264
  170MOL    C5234190   5.901   3.789   0.284 -0.0415 -0.3192 -0.2466
  170MOL    O5334191   5.837   3.699   0.331  0.6682  0.0981  0.1561
  170MOL    C5434192   5.964   3.898   0.373  0.2977 -0.6388  0.1555
  170MOL    C5534193   5.862   3.955   0.470 -0.3403 -0.1784 -0.0802
  170MOL    N5634194   5.817   4.092   0.429  0.3905 -0.4966  0.3917
  170MOL    H5734195   6.037   3.838   0.428  3.7067  3.5608  0.5110
  170MOL    H5834196   6.014   3.977   0.316  0.6064 -0.7849  0.2186
  170MOL    H5934197   5.911   3.960   0.567 -1.6512  4.3989  0.4536
  170MOL    H6034198   5.765   3.909   0.490  0.2333 -1.1079  0.5988
  170MOL    H6134199   5.849   4.174   0.479 -1.6327  0.8424 -0.4531
  170MOL    C6234200   5.733   4.126   0.327  1.0115 -0.1593  0.2962
  170MOL    O6334201   5.699   4.040   0.241  0.3145 -0.5117 -0.2811
  170MOL    C6434202   5.675   4.266   0.325 -0.2836 -0.1888 -0.1160
  170MOL    C6534203   5.561   4.279   0.213  0.6664 -0.4538 -1.4413
  170MOL    N6634204   5.432   4.244   0.269  0.4557  0.1184  0.5376
  170MOL    H6734205   5.632   4.286   0.423  1.0151  0.5235  0.3158
  170MOL    H6834206   5.737   4.355   0.328 -0.0171 -0.4007  2.7887
  170MOL    H6934207   5.553   4.382   0.177 -1.5753  0.8825  2.5324
  170MOL    H7034208   5.573   4.217   0.124  0.2132 -3.3375  0.4619
  170MOL    H7134209   5.425   4.214   0.365 -1.3408 -0.3973  0.2825
  170MOL    C7234210   5.318   4.243   0.196  0.2031  0.3588  0.1944
  170MOL    O7334211   5.320   4.277   0.079  0.2183  0.4711  0.4381
  170MOL    C7434212   5.188   4.188   0.243 -0.3069 -0.4188  0.3396
  170MOL    C7534213   5.090   4.299   0.272  0.2072  0.0554 -0.7339
  170MOL    N7634214   4.950   4.245   0.287  0.2692 -0.1899 -0.7277
  170MOL    H7734215   5.157   4.120   0.165  3.7642 -1.3765 -0.5262
  170MOL    H7834216   5.211   4.133   0.335 -0.7333 -1.2999 -0.0798
  170MOL    H7934217   5.127   4.365   0.350 -0.3460  0.4606 -0.8127
  170MOL    H8034218   5.098   4.374   0.194  1.0340  2.9555  2.0603
  170MOL    H8134219   4.923   4.234   0.383  0.7365 -0.4686 -0.6238
  170MOL    C8234220   4.855   4.228   0.197  0.6553 -0.4672  0.1779
  170MOL    O8334221   4.880   4.244   0.078  0.2092  0.4009 -0.4285
  170MOL    C8434222   4.719   4.177   0.251  0.3252  0.1533 -0.4894
  170MOL    C8534223   4.594   4.270   0.241 -0.5672 -0.0104  0.0862
  170MOL    N8634224   4.611   4.402   0.297  0.9189 -0.3687  0.3982
  170MOL    H8734225   4.708   4.081   0.200 -0.7527  0.4167 -0.7666
  170MOL    H8834226   4.726   4.154   0.358  2.3807 -1.5967 -0.9621
  170MOL    H8934227   4.563   4.271   0.136 -2.7527 -1.6381  0.7037
  170MOL    H9034228   4.517   4.227   0.304  0.3763 -0.3129  1.0389
  170MOL    H9134229   4.558   4.476   0.252  1.2543 -1.8574 -2.5817
  170MOL    C9234230   4.669   4.449   0.404 -0.2800  0.1200  0.0362
  170MOL    O9334231   4.740   4.379   0.478  0.3184  0.0524 -0.6800
  170MOL    C9434232   4.676   4.601   0.419 -1.0158  0.2808 -0.4518
  170MOL    C9534233   4.815   4.659   0.446 -0.2218  0.3518 -0.2805
  170MOL    N9634234   4.910   4.644   0.333  0.4030  0.4298  0.3306
  170MOL    H9734235   4.632   4.643   0.329 -2.1314 -3.2562 -1.6358
  170MOL    H9834236   4.612   4.636   0.500  1.2017 -1.3343  2.1078
  170MOL    H9934237   4.812   4.757   0.494  1.3945  0.4202 -0.2914
  170MOL   H10034238   4.853   4.606   0.533  2.1678  0.2925 -1.3138
  170MOL   H10134239   4.976   4.568   0.322 -1.3748 -1.0557 -0.4935
  170MOL   C10234240   4.919   4.742   0.240 -1.0226 -0.0335 -0.8433
  170MOL   O10334241   4.853   4.844   0.243  0.8012 -0.2438  0.3662
  170MOL   C10434242   5.016   4.718   0.123 -0.3171  0.3815  0.4152
  170MOL   C10534243   4.955   4.755   7.765 -0.0169 -0.1672 -0.1551
  170MOL   N10634244   5.025   4.868   7.706 -0.7375 -0.0857 -0.0855
  170MOL   H10734245   5.048   4.614   0.120  1.2214  0.7323  2.8051
  170MOL   H10834246   5.107   4.775   0.146  0.1671  0.4522 -1.6034
  170MOL   H10934247   4.961   4.672   7.695  1.7296 -1.1762  1.1372
  170MOL   H11034248   4.851   4.785   7.774 -0.0035 -0.9604  3.0827
  170MOL   H11134249   4.979   4.958   7.704  1.4054  1.0189 -1.7382
  170MOL   C11234250   5.143   4.875   7.655  0.4461  0.7391  0.3671
  170MOL   O11334251   5.226   4.784   7.663  0.2489 -0.1670  0.1063
  170MOL   C11434252   5.180   5.009   7.585  0.2972  0.1014 -0.5295
  170MOL   C11534253   5.277   5.102   7.663 -0.5057  0.5517  0.6311
  170MOL   N11634254   5.417   5.050   7.680 -0.5907 -0.7103  0.4660
  170MOL   H11734255   5.094   5.067   7.552  1.0720  2.1221  0.9384
  170MOL   H11834256   5.236   4.983   7.495  1.6097  2.9030 -0.5542
  170MOL   H11934257   5.289   5.199   7.616 -1.0028  1.2835  2.0226
  170MOL   H12034258   5.231   5.116   7.760 -1.0522 -0.4930  0.5286
  170MOL   H12134259   5.446   5.030   7.775  0.6382 -0.2462  0.1977
  170MOL   C12234260   5.514   5.023   7.593 -0.1104 -0.2125  0.2770
  170MOL   O12334261   5.495   5.049   7.474  0.9596 -0.3672  0.5295
  170MOL   C12434262   5.648   4.963   7.641  0.1598 -0.1255 -0.4774
  170MOL   C12534263   5.711   4.873   7.533 -0.5388  0.1834  0.3160
  170MOL   N12634264   5.654   4.739   7.532  0.5329 -0.0774 -0.5484
  170MOL   H12734265   5.635   4.906   7.733 -1.3790  2.4711  0.9689
  170MOL   H12834266   5.709   5.050   7.665 -0.5077  0.1297  0.2882
  170MOL   H12934267   5.694   4.934   7.444 -1.0238  1.4102  1.2396
  170MOL   H13034268   5.818   4.856   7.543 -0.4303  0.9180  0.4069
  170MOL   H13134269   5.607   4.717   7.619 -4.5270  2.0402 -2.6126
  170MOL   C13234270   5.652   4.646   7.435 -0.5586 -0.1718 -0.0345
  170MOL   O13334271   5.686   4.675   7.322  0.7390 -0.2834  0.5713
  170MOL   C13434272   5.591   4.508   7.476  0.8408 -0.7499  0.6398
  170MOL   C13534273   5.683   4.380   7.506  0.9129  0.2938  0.3095
  170MOL   N13634274   5.778   4.358   7.399  0.2846  0.4599  0.1923
  170MOL   H13734275   5.522   4.487   7.394 -0.5192  0.2484  1.4984
  170MOL   H13834276   5.525   4.522   7.562 -0.5732 -1.7176 -0.2665
  170MOL   H13934277   5.739   4.383   7.599  0.9020  0.8750  0.3013
  170MOL   H14034278   5.620   4.291   7.514  2.7057 -0.9384  0.9512
  170MOL   H14134279   5.741   4.318   7.314  0.0698 -0.4213  0.6920
  170MOL   C14234280   5.910   4.383   7.395 -0.0072  0.2951 -0.5307
  170MOL   O14334281   5.974   4.429   7.491 -0.1492 -0.0336  0.2776
  170MOL   C14434282   5.978   4.367   7.259  0.7619 -0.0016 -0.2115
  170MOL   C14534283   6.121   4.414   7.253  0.6227 -0.1597  0.0115
  170MOL   N14634284   6.175   4.407   7.120  0.6717 -0.1548 -0.4139
  170MOL   H14734285   5.909   4.427   7.200 -1.0088 -2.3993 -0.6635
  170MOL   H14834286   5.967   4.265   7.222  0.4961  0.8597 -2.5601
  170MOL   H14934287   6.116   4.520   7.280  0.4782 -0.2771  0.4453
  170MOL   H15034288   6.194   4.372   7.322  1.1203  0.7004  0.0184
  170MOL   H15134289   6.107   4.385   7.049 -0.8251  1.2550  0.5209
  170MOL   C15234290   6.300   4.428   7.088  0.4376 -0.1703  0.0996
  170MOL   O15334291   6.380   4.484   7.165 -0.1449  0.1552  0.0572
  170MOL   C15434292   6.348   4.394   6.945  0.4219 -0.2275  0.0342
  170MOL   C15534293   6.413   4.515   6.869  0.0895  0.3928  0.8292
  170MOL   N15634294   6.438   4.499   6.729  0.3123  0.8419 -0.3523
  170MOL   H15734295   6.275   4.344   6.881  0.4956  0.4612 -0.6013
  170MOL   H15834296   6.423   4.317   6.958  2.2629  1.0195 -2.6430
  170MOL   H15934297   6.355   4.602   6.902 -1.5795 -0.8779  1.2935
  170MOL   H16034298   6.511   4.545   6.907  0.6201 -1.1043  0.6328
  170MOL   H16134299   6.400   4.573   6.672 -1.2000  0.5170  0.2159
  170MOL   C16234300   6.524   4.415   6.672  0.2994 -0.5641  0.2835
  170MOL   O16334301   6.593   4.328   6.722  0.3743  0.2659 -0.4226
  170MOL   C16434302   6.535   4.419   6.518 -0.0818  0.2883 -0.0473
  170MOL   C16534303   6.678   4.470   6.479  0.0675  0.2374  0.0146
  170MOL   N16634304   6.694   4.471   6.336  0.0906  0.1059 -0.1228
  170MOL   H16734305   6.456   4.485   6.483  0.2051 -0.9713 -3.2796
  170MOL   H16834306   6.523   4.314   6.491  3.0050 -0.1075 -0.0968
  170MOL   H16934307   6.706   4.570   6.514  1.7437 -0.7750  1.6384
  170MOL   H17034308   6.755   4.407   6.524  0.5772 -0.0807 -1.2722
  170MOL   H17134309   6.674   4.561   6.293 -0.1442  1.0432  1.9096
  170MOL   C17234310   6.736   4.383   6.250  0.2869  0.4268 -0.6773
  170MOL   O17334311   6.770   4.273   6.287 -0.2959 -0.2760 -0.0380
  170MOL   C17434312   6.716   4.429   6.103 -0.7366  0.2665 -0.6165
  170MOL   C17534313   6.627   4.335   6.022  0.7974  0.6851  0.1697
  170MOL   N17634314   6.485   4.378   6.040 -0.2130  0.1179 -0.9569
  170MOL   H17734315   6.811   4.425   6.050 -0.3795  0.8433 -0.0389
  170MOL   H17834316   6.679   4.530   6.089 -3.5826 -0.8139 -1.1848
  170MOL   H17934317   6.655   4.330   5.917  0.8558 -1.4866  0.2506
  170MOL   H18034318   6.638   4.232   6.058 -1.9338 -0.4791 -2.1825
  170MOL   H18134319   6.457   4.407   6.132 -0.3262  0.3616 -1.0671
  170MOL   C18234320   6.391   4.359   5.950  0.0834  0.2736 -0.2585
  170MOL   O18334321   6.417   4.299   5.844  0.4656 -0.0956  0.0144
  170MOL   C18434322   6.244   4.389   5.984 -0.6777 -1.1190  0.5321
  170MOL   C18534323   6.175   4.281   6.069  0.6519 -0.6790 -0.6901
  170MOL   N18634324   6.182   4.306   6.211  0.2963 -0.5718 -0.0395
  170MOL   H18734325   6.198   4.375   5.886  1.4217  3.9282 -1.3203
  170MOL   H18834326   6.227   4.484   6.034  0.7361  0.3001 -1.6093
  170MOL   H18934327   6.067   4.290   6.057  0.7652  0.6462 -0.7575
  170MOL   H19034328   6.214   4.182   6.043 -0.0725 -0.5941 -2.1385
  170MOL   H19134329   6.128   4.378   6.257  2.5802  2.6592 -2.2090
  170MOL   C19234330   6.251   4.228   6.291 -0.7005 -0.2244  0.4385
  170MOL   O19334331   6.354   4.166   6.246  0.1079  0.1267  0.3102
  170MOL   C19434332   6.225   4.226   6.439  0.7533 -0.9454  0.6446
  170MOL   C19534333   6.206   4.084   6.509  0.2812  0.1450  0.1297
  170MOL   N19634334   6.069   4.045   6.482  0.4998  0.1090  0.4799
  170MOL   H19734335   6.302   4.286   6.487  0.4529 -0.3948  0.4444
  170MOL   H19834336   6.140   4.293   6.454  0.6807 -0.8604 -0.1299
  170MOL   H19934337   6.274   4.014   6.461 -2.1235 -2.1434 -0.0574
  170MOL   H20034338   6.213   4.083   6.618  1.6026 -1.5873  0.0427
  170MOL   H20134339   5.999   4.110   6.513 -0.3304 -0.1477 -0.8244
  170MOL   H20234340   6.047   3.953   6.516  1.0327 -0.0863  0.3122
  171MOL     C134341   6.729   6.221   2.884  0.2571  0.3129  0.5904
  171MOL     O234342   6.815   6.279   2.948  0.1198  0.0225  0.7141
  171MOL     C334343   6.677   6.088   2.935 -0.2403  0.6474  0.2442
  171MOL     C434344   6.768   5.970   2.896 -0.0790 -0.0706 -0.4980
  171MOL     N534345   6.737   5.858   2.975 -0.3325  1.1498  0.3063
  171MOL     H634346   6.584   6.073   2.881 -0.6444  0.9713  0.8489
  171MOL     H734347   6.652   6.084   3.041 -1.9266 -1.3464 -0.1997
  171MOL     H834348   6.873   5.998   2.908 -0.3704  0.4578  0.8770
  171MOL     H934349   6.748   5.945   2.792  1.2127 -0.1552 -0.7387
  171MOL    H1034350   6.720   5.881   3.072  3.0136 -0.3154  1.3541
  171MOL    H1134351   6.692   6.271   2.794  0.4503 -0.6106 -0.0072
  171MOL    C1234352   6.708   5.733   2.932  0.0028 -0.4533  0.3453
  171MOL    O1334353   6.699   5.712   2.810  0.2432  0.2272  0.2249
  171MOL    C1434354   6.667   5.625   3.039 -0.5916 -0.0787  0.0498
  171MOL    C1534355   6.732   5.490   2.994 -0.3728 -0.3666 -0.3162
  171MOL    N1634356   6.751   5.406   3.111 -0.1411  0.3110 -0.5343
  171MOL    H1734357   6.560   5.633   3.058 -0.6890 -2.0139  0.4917
  171MOL    H1834358   6.711   5.657   3.134 -1.0029 -1.0819  0.5946
  171MOL    H1934359   6.669   5.445   2.918 -0.8964 -0.5611  0.2244
  171MOL    H2034360   6.835   5.508   2.965 -0.5385 -2.3666 -2.2444
  171MOL    H2134361   6.849   5.401   3.135  0.0570  5.0687  0.0623
  171MOL    C2234362   6.654   5.334   3.165 -0.2930  0.9487  0.1759
  171MOL    O2334363   6.538   5.324   3.125 -0.1922  0.6602  0.3862
  171MOL    C2434364   6.695   5.244   3.282  0.0371 -0.8139 -0.1838
  171MOL    C2534365   6.592   5.243   3.399  0.5220 -0.2802  0.2943
  171MOL    N2634366   6.486   5.151   3.368  0.1127 -0.5381  0.2857
  171MOL    H2734367   6.780   5.287   3.335 -1.5667  0.9455  1.0036
  171MOL    H2834368   6.723   5.146   3.244  0.1766  0.1917 -2.7742
  171MOL    H2934369   6.643   5.209   3.489  0.4244 -1.6483 -0.1492
  171MOL    H3034370   6.565   5.346   3.422  1.2155 -0.1838  0.6706
  171MOL    H3134371   6.407   5.192   3.321 -0.3253 -1.4392  0.2339
  171MOL    C3234372   6.481   5.017   3.400 -0.1591 -0.1293  0.3666
  171MOL    O3334373   6.566   4.955   3.465 -0.4249 -0.0929  0.6950
  171MOL    C3434374   6.348   4.947   3.363 -0.1425  0.0523  0.4095
  171MOL    C3534375   6.329   4.792   3.383 -0.5274 -0.4337  0.0056
  171MOL    N3634376   6.311   4.766   3.525  0.1839 -0.1331 -0.0196
  171MOL    H3734377   6.325   4.969   3.259  2.4549 -1.5364 -0.5533
  171MOL    H3834378   6.267   4.999   3.414  0.2627  2.7374 -1.5585
  171MOL    H3934379   6.237   4.753   3.339 -0.4713  0.3810 -0.8356
  171MOL    H4034380   6.415   4.737   3.345  0.8504  0.0232  2.3654
  171MOL    H4134381   6.398   4.749   3.573  1.2223 -1.8215 -2.4087
  171MOL    C4234382   6.189   4.758   3.588  0.5271 -0.5964 -0.1692
  171MOL    O4334383   6.082   4.746   3.533  0.4416 -0.0094 -0.6107
  171MOL    C4434384   6.189   4.754   3.738  0.3753  0.0248 -0.6087
  171MOL    C4534385   6.098   4.644   3.791  0.1507  0.2222  0.0081
  171MOL    N4634386   6.123   4.628   3.938  0.3530 -0.7728  0.4718
  171MOL    H4734387   6.290   4.747   3.779  0.8874  0.6091 -1.7417
  171MOL    H4834388   6.152   4.850   3.773  2.3389  0.2610  0.9286
  171MOL    H4934389   5.992   4.659   3.769 -0.2084 -0.5333  1.1998
  171MOL    H5034390   6.124   4.555   3.734  3.3796  0.0108  1.6903
  171MOL    H5134391   6.218   4.639   3.971 -0.4432 -1.3343  3.0514
  171MOL    C5234392   6.029   4.598   4.032 -0.5961  0.0886  1.2615
  171MOL    O5334393   5.915   4.567   4.006 -0.7003 -0.2211  0.2203
  171MOL    C5434394   6.071   4.623   4.174 -0.2158 -0.5730 -0.6450
  171MOL    C5534395   5.958   4.692   4.251  0.6447 -0.8176 -0.0877
  171MOL    N5634396   5.953   4.840   4.225  0.4575 -0.5487  0.0198
  171MOL    H5734397   6.075   4.521   4.213 -2.9040 -0.0795  1.0875
  171MOL    H5834398   6.167   4.668   4.196 -0.1950  0.1360 -2.1457
  171MOL    H5934399   5.973   4.682   4.359  0.0443 -0.9324 -0.0172
  171MOL    H6034400   5.860   4.647   4.237 -0.3576  1.4359 -0.5859
  171MOL    H6134401   5.899   4.867   4.144 -0.9515 -0.3881  0.9903
  171MOL    C6234402   6.002   4.932   4.301  0.4284  0.2606  0.3466
  171MOL    O6334403   6.069   4.906   4.403 -0.4394 -0.3924  0.1579
  171MOL    C6434404   5.975   5.073   4.254 -0.3098 -0.2017 -0.0784
  171MOL    C6534405   5.997   5.186   4.351  0.4239  0.1437 -0.1442
  171MOL    N6634406   5.886   5.194   4.440  0.6468 -0.5272  0.2005
  171MOL    H6734407   6.040   5.077   4.167  1.2131 -1.4167  0.9836
  171MOL    H6834408   5.875   5.078   4.212 -0.9567  0.2443  1.4605
  171MOL    H6934409   6.091   5.180   4.406  0.6843  0.8291 -0.5081
  171MOL    H7034410   6.002   5.283   4.303 -2.5598  0.8577  0.9288
  171MOL    H7134411   5.808   5.131   4.428  1.6646 -1.5534 -1.1785
  171MOL    C7234412   5.874   5.280   4.544  0.3120 -0.0087  0.1639
  171MOL    O7334413   5.971   5.335   4.604 -0.5138  0.0073  0.0816
  171MOL    C7434414   5.733   5.313   4.588  0.2524  0.5881 -0.0477
  171MOL    C7534415   5.683   5.246   4.725 -0.4184 -0.3921 -0.1886
  171MOL    N7634416   5.634   5.112   4.712 -0.7085  0.0603 -0.1813
  171MOL    H7734417   5.727   5.422   4.592 -1.7231  0.5464 -1.1608
  171MOL    H7834418   5.658   5.280   4.516  0.2708  1.3393 -0.4138
  171MOL    H7934419   5.758   5.263   4.802  0.4223  0.4494 -1.1814
  171MOL    H8034420   5.604   5.305   4.772  1.1478  2.6748 -1.3121
  171MOL    H8134421   5.537   5.095   4.688 -0.7406 -0.9633  0.6753
  171MOL    C8234422   5.707   5.003   4.737  0.8867  0.4790  0.8602
  171MOL    O8334423   5.824   5.005   4.772 -0.0119 -0.1491  0.1955
  171MOL    C8434424   5.648   4.865   4.718 -0.0571  0.9987  0.0104
  171MOL    C8534425   5.725   4.774   4.622 -0.2340  0.1727  0.3317
  171MOL    N8634426   5.659   4.760   4.493  0.0032 -0.5248 -0.4178
  171MOL    H8734427   5.635   4.825   4.819 -0.7386 -1.0714 -0.8612
  171MOL    H8834428   5.543   4.870   4.690 -0.7554 -0.3404  2.2449
  171MOL    H8934429   5.822   4.821   4.609  0.3300 -0.4508  2.1039
  171MOL    H9034430   5.737   4.677   4.669 -2.0195 -0.6058 -0.7603
  171MOL    H9134431   5.623   4.673   4.457  1.4871 -0.4115 -2.2838
  171MOL    C9234432   5.658   4.852   4.401 -1.1323  0.4880 -0.1167
  171MOL    O9334433   5.695   4.966   4.415 -0.1715  0.5644 -0.7026
  171MOL    C9434434   5.592   4.819   4.262  0.1067 -0.6575 -0.5639
  171MOL    C9534435   5.442   4.770   4.272  0.0405  0.5202  0.0916
  171MOL    N9634436   5.359   4.816   4.160  0.0511  0.3943  0.5574
  171MOL    H9734437   5.594   4.905   4.194  1.7478 -0.1085  0.1327
  171MOL    H9834438   5.657   4.747   4.212 -0.0615 -0.1322 -1.5647
  171MOL    H9934439   5.439   4.661   4.264  0.0235  0.6643 -2.3985
  171MOL   H10034440   5.405   4.800   4.370 -2.1851  0.5426 -0.7356
  171MOL   H10134441   5.408   4.826   4.072 -0.6463  0.5310  0.1816
  171MOL   C10234442   5.237   4.865   4.154  0.3273 -0.2872 -0.1155
  171MOL   O10334443   5.175   4.877   4.262 -0.7106  0.6239 -0.5214
  171MOL   C10434444   5.179   4.904   4.014 -0.0923 -0.4265  0.5473
  171MOL   C10534445   5.179   5.062   3.991  0.5217 -0.0347 -0.0304
  171MOL   N10634446   5.325   5.104   3.992 -0.9483 -0.6664  0.4535
  171MOL   H10734447   5.084   4.854   3.995 -0.1241 -0.3136  0.4111
  171MOL   H10834448   5.242   4.864   3.934 -1.3490 -0.7622 -0.2807
  171MOL   H10934449   5.135   5.069   3.891 -0.1710 -0.8376  0.2113
  171MOL   H11034450   5.109   5.122   4.049  0.5966 -0.9948  1.0652
  171MOL   H11134451   5.384   5.044   3.937 -1.8403 -1.5770  0.4922
  171MOL   C11234452   5.389   5.198   4.073  0.4688  0.7630 -0.1760
  171MOL   O11334453   5.319   5.273   4.140  0.0486  1.0019 -0.3382
  171MOL   C11434454   5.538   5.209   4.065 -0.3413  0.2604 -0.1066
  171MOL   C11534455   5.613   5.247   4.196 -0.2332 -0.0061 -0.1717
  171MOL   N11634456   5.577   5.388   4.232 -0.3184  0.2129  0.0395
  171MOL   H11734457   5.559   5.275   3.980  0.8765 -0.2573 -0.2155
  171MOL   H11834458   5.577   5.112   4.035  0.3364  0.6096 -0.3788
  171MOL   H11934459   5.580   5.182   4.277 -0.8504  1.6981  0.9695
  171MOL   H12034460   5.718   5.232   4.171 -0.1319  1.0842 -0.4175
  171MOL   H12134461   5.481   5.404   4.256 -0.4512  0.1757 -0.4609
  171MOL   C12234462   5.663   5.485   4.257  0.5542 -0.3186 -0.2013
  171MOL   O12334463   5.785   5.474   4.221 -0.0348 -0.1854  0.0487
  171MOL   C12434464   5.618   5.623   4.309  0.1548 -0.1113  0.1787
  171MOL   C12534465   5.691   5.736   4.238  0.3151 -0.6729  0.1889
  171MOL   N12634466   5.611   5.855   4.232 -0.5438 -0.3327  0.0426
  171MOL   H12734467   5.639   5.631   4.416  0.0442  0.5526  0.1470
  171MOL   H12834468   5.510   5.627   4.293 -0.0295  2.5275  1.8750
  171MOL   H12934469   5.793   5.755   4.271  0.1475 -0.1221  0.3887
  171MOL   H13034470   5.720   5.711   4.136  2.1281 -2.0768  1.0063
  171MOL   H13134471   5.543   5.876   4.161 -0.7982  2.3987  1.0555
  171MOL   C13234472   5.623   5.944   4.335 -0.0491  0.3584 -0.7453
  171MOL   O13334473   5.699   5.924   4.428  0.3205 -0.0941 -0.3320
  171MOL   C13434474   5.528   6.064   4.334 -0.3771 -0.4841 -0.1845
  171MOL   C13534475   5.587   6.207   4.299 -0.0220 -0.8500  0.0140
  171MOL   N13634476   5.716   6.250   4.358  0.5564  0.2703  0.1471
  171MOL   H13734477   5.483   6.080   4.432  0.8523  0.4804  0.2213
  171MOL   H13834478   5.437   6.052   4.275 -2.0918  1.7945  1.8949
  171MOL   H13934479   5.589   6.220   4.191  2.0697 -2.2625 -0.1427
  171MOL   H14034480   5.513   6.285   4.323 -0.0321 -0.7182 -0.4446
  171MOL   H14134481   5.739   6.207   4.447  0.1694 -0.4178 -0.0833
  171MOL   C14234482   5.799   6.346   4.312  0.6444  0.5849  0.6399
  171MOL   O14334483   5.772   6.416   4.215  0.4160  0.3975  0.9352
  171MOL   C14434484   5.927   6.380   4.394 -0.3316  0.4060  0.1500
  171MOL   C14534485   6.047   6.395   4.292  0.0274 -0.0025 -0.1949
  171MOL   N14634486   6.152   6.468   4.366 -0.2234 -0.5170 -0.2475
  171MOL   H14734487   5.940   6.312   4.479  0.9196  1.6545  0.9858
  171MOL   H14834488   5.903   6.480   4.431  0.1050  1.1520 -1.5310
  171MOL   H14934489   6.094   6.299   4.269  1.3409  0.7229 -0.6196
  171MOL   H15034490   6.012   6.447   4.203 -4.1264  0.9298  1.8295
  171MOL   H15134491   6.127   6.518   4.450  1.3777  1.5328 -0.9295
  171MOL   C15234492   6.278   6.483   4.324  0.5106 -0.6908 -0.7464
  171MOL   O15334493   6.308   6.428   4.216  0.6116 -0.6415 -0.3981
  171MOL   C15434494   6.376   6.567   4.406  0.2777 -0.4826  0.0355
  171MOL   C15534495   6.524   6.541   4.379 -0.6042 -0.4923 -0.3470
  171MOL   N15634496   6.612   6.548   4.499  0.0206 -0.7077  0.2210
  171MOL   H15734497   6.353   6.548   4.511  0.7091  0.5772  0.3297
  171MOL   H15834498   6.349   6.670   4.383 -2.4885 -0.5431  2.7006
  171MOL   H15934499   6.536   6.455   4.314 -1.3261 -1.4589  0.7763
  171MOL   H16034500   6.557   6.629   4.323 -1.0697  0.3187  0.6312
  171MOL   H16134501   6.584   6.601   4.581  1.2992  1.9365 -0.9979
  171MOL   C16234502   6.718   6.470   4.506 -0.1864  0.1816 -0.2600
  171MOL   O16334503   6.773   6.418   4.412 -0.3725  0.7005  0.0348
  171MOL   C16434504   6.756   6.435   4.649 -0.4853  0.2776  0.7638
  171MOL   C16534505   6.909   6.419   4.662  0.9417 -0.7120 -0.4521
  171MOL   N16634506   6.967   6.547   4.702  0.0321  0.3132 -0.1417
  171MOL   H16734507   6.706   6.344   4.683 -0.6770 -0.6718 -1.9591
  171MOL   H16834508   6.733   6.514   4.720 -1.5759  0.0194  0.6995
  171MOL   H16934509   6.925   6.346   4.742 -2.6206 -0.3195  0.6812
  171MOL   H17034510   6.958   6.373   4.576 -1.0007 -2.8170 -0.4812
  171MOL   H17134511   6.936   6.591   4.787 -0.6088 -0.0448 -0.1855
  171MOL   C17234512   7.015   6.648   4.625 -0.4641  0.5708  0.3662
  171MOL   O17334513   7.021   6.645   4.500  0.4214  0.0172 -0.1470
  171MOL   C17434514   7.063   6.775   4.700  0.1804 -0.3532  0.6993
  171MOL   C17534515   7.042   6.908   4.631  1.1056 -0.4965 -0.1335
  171MOL   N17634516   7.046   7.024   4.718 -0.0533  0.3780 -0.0307
  171MOL   H17734517   7.170   6.757   4.712  0.0354 -0.5891  1.6793
  171MOL   H17834518   7.016   6.781   4.798  2.8457  1.6030  1.9286
  171MOL   H17934519   7.128   6.923   4.565  1.4665 -0.1054  0.4065
  171MOL   H18034520   6.949   6.898   4.576 -0.0850 -1.0023  1.8943
  171MOL   H18134521   7.135   7.068   4.736 -0.1231  1.1226 -1.4387
  171MOL   C18234522   6.947   7.077   4.786  0.1683 -0.0382 -0.1096
  171MOL   O18334523   6.833   7.032   4.791  0.4240 -0.2026 -0.2781
  171MOL   C18434524   6.979   7.200   4.869 -0.5066 -0.1409 -0.0221
  171MOL   C18534525   7.004   7.173   5.020 -0.4417 -0.6434  0.5241
  171MOL   N18634526   7.145   7.128   5.037 -0.3305 -1.1196  0.2402
  171MOL   H18734527   6.890   7.263   4.862 -0.3191  0.6014  3.4335
  171MOL   H18834528   7.052   7.263   4.819  0.1250 -1.5052 -0.8458
  171MOL   H18934529   6.988   7.266   5.075 -0.8975 -0.6492  0.4034
  171MOL   H19034530   6.938   7.098   5.064 -1.6484  0.4921  0.6985
  171MOL   H19134531   7.205   7.152   4.960 -1.2356  0.7000  0.0673
  171MOL   C19234532   7.209   7.083   5.150 -0.4801  0.1897  0.2752
  171MOL   O19334533   7.149   7.069   5.254  0.4065  0.1902  0.2562
  171MOL   C19434534   7.359   7.076   5.135  0.2757 -0.7720  0.0139
  171MOL   C19534535   7.446   7.050   5.259 -0.1878  0.6712  0.1310
  171MOL   N19634536   7.439   6.918   5.313 -0.1020  0.0611 -0.3934
  171MOL   H19734537   7.382   7.005   5.056 -0.1689  0.1266 -0.9368
  171MOL   H19834538   7.386   7.175   5.099 -1.4561  0.0139  0.8084
  171MOL   H19934539   7.552   7.065   5.237 -0.4803  1.2846 -0.8456
  171MOL   H20034540   7.413   7.117   5.338 -1.8534 -0.4122  0.3687
  171MOL   H20134541   7.439   6.845   5.243 -1.2540  0.2846 -0.6379
  171MOL   H20234542   7.494   6.899   5.396  0.0671  2.4731  0.0869
  172MOL     C134543   7.446   2.501   0.396  0.0499  0.0817  0.8899
  172MOL     O234544   7.402   2.615   0.401 -0.2819 -0.1423  0.0798
  172MOL     C334545   7.458   2.413   0.518  0.2698  0.5132 -0.3476
  172MOL     C434546   7.367   2.291   0.522  0.3129  0.8068 -0.4566
  172MOL     N534547   7.403   2.189   0.418  0.0399  0.9286 -0.2808
  172MOL     H634548   7.450   2.479   0.605 -1.4848  0.1281 -0.1910
  172MOL     H734549   7.558   2.372   0.511  0.1371  0.2714 -0.8003
  172MOL     H834550   7.261   2.316   0.533 -0.4932 -0.7194 -4.0420
  172MOL     H934551   7.386   2.246   0.619 -2.0599 -3.4109 -1.7918
  172MOL    H1034552   7.395   2.212   0.320 -1.7053  0.2247 -0.3180
  172MOL    H1134553   7.498   2.466   0.306 -3.5784 -1.2986 -0.7611
  172MOL    C1234554   7.447   2.065   0.423  0.3652  0.1588 -0.2022
  172MOL    O1334555   7.450   2.010   0.535  0.0977 -0.1028 -0.1954
  172MOL    C1434556   7.484   1.994   0.294  0.4454 -0.2526 -0.4882
  172MOL    C1534557   7.519   1.848   0.309  0.2477  0.8455 -0.3577
  172MOL    N1634558   7.662   1.831   0.307  0.0536 -0.2784  0.0811
  172MOL    H1734559   7.569   2.050   0.256 -0.6379  1.8151  0.0382
  172MOL    H1834560   7.407   2.003   0.218  0.0704  2.8180  0.1833
  172MOL    H1934561   7.486   1.806   0.404  0.0372 -1.3905 -1.3892
  172MOL    H2034562   7.470   1.788   0.233 -0.0821 -2.5801  2.4037
  172MOL    H2134563   7.727   1.907   0.319 -0.7522  0.0151  2.8773
  172MOL    C2234564   7.713   1.707   0.305 -0.3763  0.6749  0.3956
  172MOL    O2334565   7.641   1.606   0.314 -0.2174  0.3286 -0.2838
  172MOL    C2434566   0.087   1.700   0.295 -0.5683  0.1364 -0.2923
  172MOL    C2534567   0.125   1.619   0.170 -0.0603 -0.5751 -0.8275
  172MOL    N2634568   0.266   1.611   0.157 -0.4829 -0.6247  0.5780
  172MOL    H2734569   0.117   1.643   0.382 -0.7734  2.7618  1.5540
  172MOL    H2834570   0.138   1.795   0.311 -0.4708  0.3953 -1.9826
  172MOL    H2934571   0.082   1.519   0.183 -0.4905 -0.3179 -0.2363
  172MOL    H3034572   0.083   1.659   0.078 -0.1852  0.7996 -0.1808
  172MOL    H3134573   0.322   1.623   0.240 -1.3560 -0.1736  1.1110
  172MOL    C3234574   0.333   1.569   0.046  0.1778 -0.3505  0.4127
  172MOL    O3334575   0.276   1.553   7.719 -0.6847  0.3276 -0.2004
  172MOL    C3434576   0.483   1.528   0.066 -0.7439  0.8012 -0.5659
  172MOL    C3534577   0.519   1.385   0.020  0.2435 -0.1701 -0.0188
  172MOL    N3634578   0.660   1.369   0.054  0.5435 -0.3145 -0.2994
  172MOL    H3734579   0.511   1.546   0.170  0.9527  3.7379 -1.4713
  172MOL    H3834580   0.535   1.602   0.006  1.9321 -0.5919 -0.0563
  172MOL    H3934581   0.450   1.311   0.060 -0.2019 -0.3495 -1.1146
  172MOL    H4034582   0.487   1.370   7.697 -0.4672 -2.0942  0.4563
  172MOL    H4134583   0.694   1.396   0.146 -1.2678 -2.2345  0.9711
  172MOL    C4234584   0.749   1.330   7.743  0.3851  0.4328 -0.0831
  172MOL    O4334585   0.719   1.278   7.639  0.2571 -0.3556 -0.1048
  172MOL    C4434586   0.898   1.344   0.001  0.1827  0.0715 -0.5216
  172MOL    C4534587   0.959   1.465   7.702 -0.2178  0.1785  0.1570
  172MOL    N4634588   0.894   1.594   7.724  0.2526  0.2258 -0.3053
  172MOL    H4734589   0.903   1.349   0.110 -2.2494  0.8504 -0.4091
  172MOL    H4834590   0.938   1.248   7.748  2.5086  1.1442 -0.8670
  172MOL    H4934591   1.066   1.468   7.721 -0.1710  1.1487 -0.2442
  172MOL    H5034592   0.957   1.445   7.594 -0.2914 -0.3443  0.2505
  172MOL    H5134593   0.822   1.614   7.656  0.2397  1.5830  0.0853
  172MOL    C5234594   0.893   1.657   0.063  0.0087  0.2667  0.0469
  172MOL    O5334595   0.972   1.631   0.160  0.1090 -0.2886  0.1575
  172MOL    C5434596   0.788   1.764   0.073  1.1595 -0.1422  0.6232
  172MOL    C5534597   0.791   1.849   0.204  0.4208  0.3650  0.5886
  172MOL    N5634598   0.757   1.775   0.324 -0.2710  0.1570 -0.0240
  172MOL    H5734599   0.786   1.828   7.766 -0.1738  2.4031  2.4509
  172MOL    H5834600   0.694   1.709   0.073  1.1976 -0.2706 -2.1204
  172MOL    H5934601   0.732   1.939   0.191 -2.7632 -1.8877 -1.5791
  172MOL    H6034602   0.891   1.885   0.229  0.4670  1.4912 -1.1198
  172MOL    H6134603   0.834   1.766   0.389  0.6220  0.4678 -1.0342
  172MOL    C6234604   0.627   1.760   0.357  0.1041 -1.0297  0.1371
  172MOL    O6334605   0.532   1.774   0.282  0.5041  0.9590 -0.3149
  172MOL    C6434606   0.610   1.730   0.503 -0.9328 -1.1013 -0.4552
  172MOL    C6534607   0.573   1.586   0.529  0.6633 -0.0124  0.2117
  172MOL    N6634608   0.687   1.499   0.543  0.1127 -0.1691 -0.5968
  172MOL    H6734609   0.697   1.763   0.560 -0.6770  0.0816 -1.4960
  172MOL    H6834610   0.518   1.786   0.520 -0.8178 -1.3835  1.1290
  172MOL    H6934611   0.520   1.571   0.623  1.3511 -0.4377  0.5257
  172MOL    H7034612   0.508   1.547   0.451 -1.0465 -0.7073  1.9412
  172MOL    H7134613   0.745   1.507   0.626  0.7721 -2.8710 -0.7486
  172MOL    C7234614   0.743   1.438   0.435  1.0873  0.4780  0.0827
  172MOL    O7334615   0.687   1.406   0.329 -0.0951  0.3416  0.4300
  172MOL    C7434616   0.891   1.400   0.449  0.1060  0.6287  0.3450
  172MOL    C7534617   0.926   1.253   0.435 -0.1210  0.2008  1.2173
  172MOL    N7634618   0.859   1.177   0.542 -0.1090 -0.3002  0.7656
  172MOL    H7734619   0.939   1.447   0.363  2.0528 -0.8502  0.5893
  172MOL    H7834620   0.926   1.442   0.544 -0.7021  1.0941  0.4398
  172MOL    H7934621   0.894   1.222   0.335  2.4584 -0.4201  0.5398
  172MOL    H8034622   1.034   1.247   0.449 -0.0088  1.1982  0.8648
  172MOL    H8134623   0.758   1.184   0.534  0.0937  1.2992 -0.7766
  172MOL    C8234624   0.903   1.105   0.651  1.5037  0.8325  0.8413
  172MOL    O8334625   1.018   1.064   0.664  0.3799 -0.7298  0.2437
  172MOL    C8434626   0.797   1.066   0.753  1.1051  0.0619 -0.0507
  172MOL    C8534627   0.860   0.996   0.878 -0.3515 -0.0308  0.3857
  172MOL    N8634628   0.767   0.967   0.991  0.1996 -0.1854  0.2979
  172MOL    H8734629   0.728   1.142   0.789  0.6482  1.0121 -2.8225
  172MOL    H8834630   0.728   0.992   0.711  0.9080  1.2496 -1.8513
  172MOL    H8934631   0.918   0.907   0.857 -1.8891 -1.3188  1.4940
  172MOL    H9034632   0.930   1.069   0.918  0.0144 -0.8557  1.2568
  172MOL    H9134633   0.745   0.873   1.019  2.5067 -0.7309  0.3074
  172MOL    C9234634   0.710   1.056   1.076  0.1755 -0.3144 -0.3961
  172MOL    O9334635   0.727   1.176   1.061 -0.0773 -0.1319  0.1676
  172MOL    C9434636   0.609   1.006   1.179 -0.4451  0.0343  0.3997
  172MOL    C9534637   0.481   1.091   1.193  0.2703 -0.2278 -0.1878
  172MOL    N9634638   0.486   1.199   1.285 -0.3103  0.0905  0.6107
  172MOL    H9734639   0.571   0.906   1.159 -1.3719  0.4618 -0.0503
  172MOL    H9834640   0.660   1.002   1.275  2.1001  1.1659 -0.8673
  172MOL    H9934641   0.455   1.128   1.094 -1.2693  0.9764  0.6490
  172MOL   H10034642   0.395   1.029   1.219  0.1579 -0.0075 -0.0406
  172MOL   H10134643   0.558   1.192   1.355  0.5996 -1.2851 -0.4339
  172MOL   C10234644   0.397   1.301   1.289  0.8260  0.3334 -0.5715
  172MOL   O10334645   0.313   1.310   1.198 -0.3863  0.4572  0.1650
  172MOL   C10434646   0.410   1.404   1.402  0.2365 -0.1817 -0.0085
  172MOL   C10534647   0.296   1.494   1.428  0.1583 -0.7107 -0.0953
  172MOL   N10634648   0.314   1.555   1.556 -0.3482  0.8734  0.3946
  172MOL   H10734649   0.502   1.457   1.378  0.4436 -0.1716  0.7948
  172MOL   H10834650   0.423   1.343   1.492  0.1065 -1.1525 -0.6377
  172MOL   H10934651   0.314   1.572   1.354  0.3682 -1.0195 -0.3711
  172MOL   H11034652   0.197   1.449   1.416  0.5395 -1.4258 -0.5905
  172MOL   H11134653   0.287   1.505   1.640 -0.3441  0.5969  0.2318
  172MOL   C11234654   0.398   1.659   1.577 -0.4873  0.2017  0.3280
  172MOL   O11334655   0.410   1.738   1.487 -0.1698  0.0678 -0.2681
  172MOL   C11434656   0.459   1.672   1.719  0.5178 -0.3927 -0.3113
  172MOL   C11534657   0.616   1.645   1.712  0.2306  0.9213 -0.1377
  172MOL   N11634658   0.680   1.760   1.658  0.2600 -1.0478  0.1634
  172MOL   H11734659   0.431   1.593   1.789  0.4086 -0.1287 -0.0574
  172MOL   H11834660   0.436   1.768   1.765  1.3967 -0.0966 -0.4991
  172MOL   H11934661   0.655   1.625   1.812  1.8852 -1.0299 -1.1326
  172MOL   H12034662   0.637   1.552   1.660 -0.9452  0.2841  0.5073
  172MOL   H12134663   0.631   1.815   1.588  2.1462  0.3606 -0.0798
  172MOL   C12234664   0.796   1.809   1.701 -0.3181  0.0749  0.0461
  172MOL   O12334665   0.865   1.751   1.790  0.1338 -0.1357  0.4943
  172MOL   C12434666   0.848   1.935   1.636 -0.4787 -0.5723 -0.1186
  172MOL   C12534667   0.787   2.058   1.707  0.5201  0.2309  0.1250
  172MOL   N12634668   0.802   2.185   1.641  0.4059 -0.4394 -0.1812
  172MOL   H12734669   0.819   1.944   1.532 -1.1428 -1.4269 -0.0119
  172MOL   H12834670   0.954   1.944   1.660 -1.2833 -0.3976  3.7357
  172MOL   H12934671   0.680   2.035   1.717  0.8369 -2.2665 -1.7352
  172MOL   H13034672   0.835   2.065   1.804 -0.0345  1.7386  0.3016
  172MOL   H13134673   0.874   2.250   1.668 -0.5214 -0.1331  1.6072
  172MOL   C13234674   0.707   2.237   1.562  0.5986 -0.0917  0.3185
  172MOL   O13334675   0.602   2.171   1.531 -1.0789 -0.1028  0.0198
  172MOL   C13434676   0.738   2.380   1.510 -0.0361  0.5739  0.8239
  172MOL   C13534677   0.675   2.420   1.376  0.4444 -0.0429  0.0582
  172MOL   N13634678   0.715   2.336   1.260 -0.0227 -0.3643 -0.7090
  172MOL   H13734679   0.846   2.391   1.511  0.1458 -0.5863 -1.6050
  172MOL   H13834680   0.699   2.456   1.578  1.2516  0.4145  1.7531
  172MOL   H13934681   0.566   2.412   1.380  0.4468 -0.3946 -0.5024
  172MOL   H14034682   0.693   2.527   1.372  0.5215 -0.1275 -2.2561
  172MOL   H14134683   0.677   2.242   1.264 -0.9463 -0.0099 -0.9080
  172MOL   C14234684   0.798   2.376   1.163  0.8209  0.3713 -0.0868
  172MOL   O14334685   0.864   2.479   1.176  0.3987  0.4624 -0.3405
  172MOL   C14434686   0.804   2.283   1.047 -0.4937  0.5556  0.4083
  172MOL   C14534687   0.933   2.285   0.964 -0.2054 -0.2693  0.0201
  172MOL   N14634688   1.022   2.180   1.009 -0.0362  0.4730 -0.0557
  172MOL   H14734689   0.727   2.299   0.971 -0.5389 -3.0914 -0.4390
  172MOL   H14834690   0.777   2.181   1.076 -0.5783  0.3879 -0.2426
  172MOL   H14934691   0.903   2.264   0.861  0.7455  2.3588 -0.8367
  172MOL   H15034692   0.992   2.376   0.955  0.6390 -0.7248  0.8420
  172MOL   H15134693   0.990   2.113   1.078 -0.3730  1.8777  1.1817
  172MOL   C15234694   1.141   2.156   0.958 -0.1944  0.5254  0.1255
  172MOL   O15334695   1.196   2.242   0.889 -0.3249  0.2372 -1.1101
  172MOL   C15434696   1.225   2.046   1.013  0.0767  0.4009  0.0131
  172MOL   C15534697   1.204   1.906   0.945 -0.3137  0.0721  0.0154
  172MOL   N15634698   1.309   1.820   0.985  0.2484  0.0239 -0.3371
  172MOL   H15734699   1.223   2.033   1.122  2.0817 -3.3304 -0.3362
  172MOL   H15834700   1.328   2.082   1.013 -0.1332  1.0253 -0.0209
  172MOL   H15934701   1.115   1.852   0.976 -0.4555 -1.3232 -2.6133
  172MOL   H16034702   1.199   1.920   0.837 -0.5215 -0.6012 -0.0621
  172MOL   H16134703   1.315   1.792   1.082  1.1507 -0.2710 -0.4748
  172MOL   C16234704   1.409   1.778   0.907 -0.7378 -0.2953  0.3833
  172MOL   O16334705   1.421   1.798   0.787  0.1994 -0.4915  0.0548
  172MOL   C16434706   1.517   1.702   0.983  0.3618 -0.7487 -0.3428
  172MOL   C16534707   1.545   1.560   0.926 -0.0961  0.2749 -0.1261
  172MOL   N16634708   1.450   1.461   0.982  0.3737  0.1867 -0.2711
  172MOL   H16734709   1.497   1.700   1.090  2.6857  0.2547  0.1450
  172MOL   H16834710   1.609   1.760   0.975  0.5618 -1.1907 -1.2874
  172MOL   H16934711   1.529   1.563   0.818  0.2619 -0.7766 -0.2138
  172MOL   H17034712   1.647   1.525   0.943 -0.0333 -0.0306 -1.1041
  172MOL   H17134713   1.365   1.441   0.931 -0.3980  1.5725  0.4471
  172MOL   C17234714   1.453   1.403   1.106 -0.0465 -0.0545  0.1731
  172MOL   O17334715   1.542   1.425   1.191  1.2391 -0.0888  0.7522
  172MOL   C17434716   1.314   1.343   1.140  0.0151 -0.1891  0.7923
  172MOL   C17534717   1.295   1.277   1.277 -0.5295  0.2105  0.4119
  172MOL   N17634718   1.203   1.170   1.278  0.4888  0.2423  0.1033
  172MOL   H17734719   1.295   1.283   1.052  0.0433  0.9454  0.0013
  172MOL   H17834720   1.242   1.424   1.125  0.4773 -0.0220 -0.5573
  172MOL   H17934721   1.384   1.222   1.308  0.3122  1.8465  0.9721
  172MOL   H18034722   1.265   1.351   1.351 -0.6870 -0.0819  0.6420
  172MOL   H18134723   1.229   1.095   1.340  1.7616 -0.0244 -0.7386
  172MOL   C18234724   1.082   1.151   1.220 -0.2688  0.4637  0.6491
  172MOL   O18334725   1.039   1.231   1.132  0.3164 -0.0375 -0.1013
  172MOL   C18434726   0.998   1.027   1.245 -0.4569 -0.3345 -0.0141
  172MOL   C18534727   1.049   0.922   1.344 -0.4638 -0.3922 -0.4847
  172MOL   N18634728   1.162   0.838   1.302 -0.1503 -0.0892  0.4791
  172MOL   H18734729   0.985   0.986   1.145  1.6798  0.1054 -0.4982
  172MOL   H18834730   0.897   1.053   1.275  0.0326  1.5027  0.0714
  172MOL   H18934731   1.065   0.966   1.443  1.7243 -1.3562 -0.3904
  172MOL   H19034732   0.971   0.846   1.345  0.0707 -0.9361  1.1558
  172MOL   H19134733   1.142   0.762   1.239  0.8797 -0.5656  0.7167
  172MOL   C19234734   1.290   0.851   1.338  0.5297 -0.8721  0.3324
  172MOL   O19334735   1.316   0.946   1.410  0.6164  0.6052  0.0404
  172MOL   C19434736   1.396   0.763   1.272 -0.5133 -0.0384 -0.3534
  172MOL   C19534737   1.527   0.739   1.362 -0.4106  0.1371 -0.0509
  172MOL   N19634738   1.494   0.660   1.478  0.1295  0.6635 -0.5744
  172MOL   H19734739   1.341   0.671   1.251  0.2868 -0.5920 -0.0663
  172MOL   H19834740   1.426   0.799   1.173 -2.0042  1.1210 -0.3933
  172MOL   H19934741   1.602   0.686   1.305 -0.6386  0.6209 -0.8061
  172MOL   H20034742   1.569   0.840   1.371  0.3780 -0.2135  0.2657
  172MOL   H20134743   1.398   0.690   1.494 -0.3125 -0.7419 -0.5144
  172MOL   H20234744   1.553   0.697   1.551 -1.0433  0.5107  0.4747
  173MOL     C134745   2.493   2.169   4.424  0.2362  0.1855 -0.1904
  173MOL     O234746   2.465   2.151   4.304  0.3420  0.4097  0.1963
  173MOL     C334747   2.618   2.252   4.460 -0.1777 -0.4223 -0.2858
  173MOL     C434748   2.614   2.410   4.458  0.2637 -0.4243  0.3680
  173MOL     N534749   2.684   2.468   4.575 -0.4643 -0.3747  0.0758
  173MOL     H634750   2.701   2.226   4.394 -1.0589 -2.8901 -0.4771
  173MOL     H734751   2.640   2.220   4.562  0.0794 -2.3317 -0.9022
  173MOL     H834752   2.510   2.442   4.463  0.8733  1.6134  0.5065
  173MOL     H934753   2.641   2.450   4.360 -0.1204 -0.4919  0.2333
  173MOL    H1034754   2.639   2.476   4.665 -0.0489  1.6216  0.1273
  173MOL    H1134755   2.447   2.120   4.509  2.6099 -0.8595  0.5512
  173MOL    C1234756   2.814   2.505   4.567  0.2897 -0.0334  0.9683
  173MOL    O1334757   2.872   2.502   4.457 -0.5735  0.1491  0.0660
  173MOL    C1434758   2.888   2.537   4.705  0.0505  0.4385 -0.1838
  173MOL    C1534759   3.042   2.533   4.694 -0.1249 -0.4214 -0.6680
  173MOL    N1634760   3.094   2.652   4.624 -0.0123 -0.2182  0.3012
  173MOL    H1734761   2.841   2.481   4.786 -2.3313  1.5683 -0.7232
  173MOL    H1834762   2.870   2.643   4.726 -0.6150  0.3467 -0.2786
  173MOL    H1934763   3.083   2.515   4.794 -4.9242  2.9898  2.1129
  173MOL    H2034764   3.072   2.453   4.626  1.8565 -0.1243 -0.1658
  173MOL    H2134765   3.070   2.649   4.526 -1.8595 -1.0552  0.7767
  173MOL    C2234766   3.118   2.774   4.678 -0.1108 -0.4757  0.5170
  173MOL    O2334767   3.139   2.790   4.801  0.4007 -0.2469  0.0864
  173MOL    C2434768   3.116   2.899   4.596 -0.7579 -0.0658  0.4740
  173MOL    C2534769   2.976   2.947   4.551  0.3434 -0.0782  0.6598
  173MOL    N2634770   2.917   2.853   4.453  0.0234 -0.2381 -0.4041
  173MOL    H2734771   3.185   2.876   4.515  0.3577 -2.1747  1.9671
  173MOL    H2834772   3.164   2.981   4.649 -1.0317  0.1261  0.4307
  173MOL    H2934773   2.912   2.951   4.639 -0.7189 -0.7100 -0.0677
  173MOL    H3034774   2.972   3.046   4.506 -1.0844  0.1128  1.1691
  173MOL    H3134775   2.973   2.775   4.421  0.2953 -1.3768  2.5965
  173MOL    C3234776   2.801   2.873   4.388 -0.5847 -0.1413  0.0488
  173MOL    O3334777   2.725   2.970   4.403  0.1194 -0.0140 -0.8669
  173MOL    C3434778   2.769   2.762   4.290  0.1643  0.6517 -0.7124
  173MOL    C3534779   2.693   2.804   4.154  0.0000  0.2099  0.2968
  173MOL    N3634780   2.621   2.690   4.094  0.5549  1.1282  0.2400
  173MOL    H3734781   2.719   2.688   4.352  1.8252  0.5214  0.5262
  173MOL    H3834782   2.863   2.710   4.272  0.5205  1.1418 -0.2915
  173MOL    H3934783   2.623   2.885   4.173  1.1124  1.1615  0.3717
  173MOL    H4034784   2.754   2.836   4.070 -1.9745  0.4986 -1.0628
  173MOL    H4134785   2.621   2.689   3.993  0.2074 -0.9368  0.2406
  173MOL    C4234786   2.517   2.618   4.138  0.5790  0.2643 -0.2839
  173MOL    O4334787   2.469   2.634   4.251  0.4508 -0.1857  0.2301
  173MOL    C4434788   2.458   2.519   4.045 -0.7664  0.3929  1.0151
  173MOL    C4534789   2.301   2.497   4.069  0.4513 -0.4246 -0.0908
  173MOL    N4634790   2.227   2.434   3.957  0.9119  0.3482  0.4019
  173MOL    H4734791   2.464   2.553   3.942  1.4069 -3.1706 -0.1315
  173MOL    H4834792   2.510   2.424   4.057  0.3198  0.8434  0.0650
  173MOL    H4934793   2.285   2.446   4.164  0.4985  1.5615  1.0076
  173MOL    H5034794   2.249   2.588   4.099  0.2717 -0.7708  0.6600
  173MOL    H5134795   2.275   2.357   3.911  0.0260 -0.2311  0.4472
  173MOL    C5234796   2.098   2.458   3.926  0.2161  0.5714 -0.5317
  173MOL    O5334797   2.045   2.554   3.978 -0.1583  0.1867 -0.1627
  173MOL    C5434798   2.022   2.355   3.837  0.4981  0.1611 -0.3776
  173MOL    C5534799   1.914   2.411   3.738 -0.3212 -0.2428  0.1131
  173MOL    N5634800   1.972   2.476   3.615  0.7833 -0.1261 -0.2100
  173MOL    H5734801   2.105   2.306   3.785 -0.0013 -1.0693 -0.0226
  173MOL    H5834802   1.979   2.276   3.897 -0.5585  0.7304 -0.3733
  173MOL    H5934803   1.866   2.491   3.794  2.9885  1.6045  0.4613
  173MOL    H6034804   1.837   2.336   3.724  0.0035 -0.5894  0.1658
  173MOL    H6134805   2.056   2.529   3.634  1.1195 -0.7961  0.2014
  173MOL    C6234806   1.921   2.486   3.490 -0.2144 -0.0315 -0.1155
  173MOL    O6334807   1.976   2.559   3.412  0.4002  0.0904 -0.0709
  173MOL    C6434808   1.789   2.422   3.454 -0.4726  0.0706  0.1844
  173MOL    C6534809   1.793   2.275   3.415 -0.0361 -0.1057  0.1479
  173MOL    N6634810   1.683   2.225   3.336 -0.3562  0.2066  0.5355
  173MOL    H6734811   1.721   2.435   3.538 -0.3179 -1.4424  0.5497
  173MOL    H6834812   1.747   2.482   3.373 -2.1430 -0.6111  0.5193
  173MOL    H6934813   1.889   2.264   3.364  0.9250  1.1688  1.6167
  173MOL    H7034814   1.802   2.224   3.511 -1.8379 -0.9892 -0.1426
  173MOL    H7134815   1.593   2.232   3.381 -0.1939  0.3308  0.8427
  173MOL    C7234816   1.686   2.160   3.216 -0.4767 -0.9181 -0.5933
  173MOL    O7334817   1.788   2.138   3.150 -0.1218  0.7204  0.8359
  173MOL    C7434818   1.547   2.111   3.166 -0.2856 -0.6219 -0.3622
  173MOL    C7534819   1.552   1.970   3.101  0.1626 -0.5282 -0.1012
  173MOL    N7634820   1.588   1.962   2.965 -0.1343 -0.4523  0.9341
  173MOL    H7734821   1.479   2.100   3.251  0.3190  1.2755  0.3977
  173MOL    H7834822   1.501   2.188   3.104 -1.8220 -1.9719 -0.9444
  173MOL    H7934823   1.614   1.899   3.156  0.1105  0.0281  0.6818
  173MOL    H8034824   1.452   1.927   3.098  0.4317 -1.3768  2.2002
  173MOL    H8134825   1.606   2.047   2.914  2.8399  1.7086  5.3039
  173MOL    C8234826   1.586   1.844   2.899 -0.1303 -0.6811 -0.4973
  173MOL    O8334827   1.548   1.735   2.943 -0.8475  0.1029  0.3847
  173MOL    C8434828   1.649   1.847   2.754  0.4162 -0.1113 -1.0197
  173MOL    C8534829   1.734   1.723   2.715 -0.5978 -0.2810  0.6407
  173MOL    N8634830   1.716   1.686   2.575  0.1243 -0.8310 -0.9773
  173MOL    H8734831   1.556   1.840   2.697 -0.4405 -2.6173  0.6241
  173MOL    H8834832   1.703   1.939   2.732  2.7521 -1.5808 -1.5887
  173MOL    H8934833   1.840   1.739   2.738  0.2737 -0.2877 -2.9519
  173MOL    H9034834   1.707   1.635   2.772  1.0431 -1.1668  0.1087
  173MOL    H9134835   1.671   1.761   2.524 -0.7400  0.2525  1.3019
  173MOL    C9234836   1.784   1.587   2.521  0.0346 -0.1607  0.0036
  173MOL    O9334837   1.844   1.503   2.587  0.3484  0.2742  0.5360
  173MOL    C9434838   1.786   1.573   2.372  0.2328  0.1625  0.4588
  173MOL    C9534839   1.930   1.577   2.312  0.0455 -0.6029  0.5969
  173MOL    N9634840   1.934   1.584   2.164 -0.3514 -0.4508 -0.0220
  173MOL    H9734841   1.741   1.477   2.347  0.3031  0.5693 -1.2718
  173MOL    H9834842   1.728   1.658   2.336  1.0074  0.7722  0.6342
  173MOL    H9934843   1.985   1.661   2.355 -0.3174  0.7459 -1.5231
  173MOL   H10034844   1.987   1.492   2.350  2.2170  0.5795  0.0483
  173MOL   H10134845   1.957   1.495   2.123  3.4431  1.0764 -1.3930
  173MOL   C10234846   1.909   1.693   2.090  0.7535 -0.2866  0.0749
  173MOL   O10334847   1.869   1.802   2.139 -0.5291 -0.1054  0.2650
  173MOL   C10434848   1.920   1.680   1.934  0.4843 -0.3126  0.9824
  173MOL   C10534849   1.781   1.687   1.867  0.1455 -0.9042  0.1998
  173MOL   N10634850   1.716   1.564   1.863  0.5449  0.2463 -0.7004
  173MOL   H10734851   1.977   1.594   1.897 -0.2179 -1.0196  1.5238
  173MOL   H10834852   1.982   1.763   1.902  0.7135 -0.0748  2.0155
  173MOL   H10934853   1.733   1.774   1.912 -0.1632  0.3418 -2.4453
  173MOL   H11034854   1.782   1.726   1.765  0.7474 -1.3031  0.0467
  173MOL   H11134855   1.713   1.517   1.774 -0.3513 -0.3615 -0.3628
  173MOL   C11234856   1.631   1.522   1.962 -0.2253  0.8431  0.0578
  173MOL   O11334857   1.604   1.597   2.056 -0.1268  0.1484  0.0387
  173MOL   C11434858   1.561   1.388   1.931  0.4836  0.2861 -0.5177
  173MOL   C11534859   1.493   1.312   2.046  0.8044 -0.7155  0.1565
  173MOL   N11634860   1.583   1.266   2.143  0.4009  0.4110 -0.0649
  173MOL   H11734861   1.630   1.319   1.881 -1.7200 -1.3763 -1.3660
  173MOL   H11834862   1.484   1.409   1.857  0.9355  0.5549 -0.9109
  173MOL   H11934863   1.416   1.371   2.094 -1.4375 -0.2491 -3.8042
  173MOL   H12034864   1.430   1.231   2.010 -1.6373  0.8548  0.8461
  173MOL   H12134865   1.555   1.302   2.233  1.3429  1.7905 -0.3017
  173MOL   C12234866   1.684   1.179   2.135 -0.6632 -0.2185  0.1336
  173MOL   O12334867   1.696   1.122   2.028  0.2177  0.0846 -0.0297
  173MOL   C12434868   1.781   1.163   2.249 -0.0318  0.2269  0.6585
  173MOL   C12534869   1.913   1.102   2.217  0.1739 -0.0124  0.0212
  173MOL   N12634870   1.916   0.954   2.235  0.2452  0.1526 -0.5722
  173MOL   H12734871   1.733   1.108   2.329  0.0848 -1.4931 -0.4381
  173MOL   H12834872   1.800   1.261   2.294 -0.7046  1.3444 -1.4026
  173MOL   H12934873   1.945   1.120   2.114  1.0274 -2.0665 -0.0997
  173MOL   H13034874   1.990   1.122   2.291  1.0583  1.0984 -1.1719
  173MOL   H13134875   1.837   0.905   2.193 -0.3654 -0.0936  0.8237
  173MOL   C13234876   1.978   0.881   2.325 -0.0357  0.6970 -0.2166
  173MOL   O13334877   2.068   0.928   2.397  0.0769 -0.8934 -0.3669
  173MOL   C13434878   1.934   0.734   2.346 -0.4214  0.4105  0.4944
  173MOL   C13534879   1.929   0.695   2.493 -0.0080 -0.0623  0.8090
  173MOL   N13634880   1.805   0.738   2.553 -0.0825 -0.6254  0.1441
  173MOL   H13734881   2.008   0.673   2.295  0.1602  1.1403  0.4633
  173MOL   H13834882   1.839   0.716   2.296  1.1408 -1.8290 -1.7759
  173MOL   H13934883   1.942   0.588   2.509  2.8943 -0.2442 -2.2460
  173MOL   H14034884   2.014   0.743   2.543  2.2003 -2.0295 -0.9477
  173MOL   H14134885   1.732   0.767   2.489 -0.4450  3.1110  2.1647
  173MOL   C14234886   1.775   0.729   2.679 -0.0033 -0.6224 -0.3470
  173MOL   O14334887   1.851   0.669   2.751 -0.2598  0.2852  0.5353
  173MOL   C14434888   1.642   0.784   2.733  0.1978  0.6749  0.7474
  173MOL   C14534889   1.552   0.691   2.818 -0.8296 -0.0390 -0.5079
  173MOL   N14634890   1.519   0.568   2.756 -0.0971 -0.0616  0.1908
  173MOL   H14734891   1.591   0.826   2.646  0.5900 -0.6568 -0.1236
  173MOL   H14834892   1.666   0.875   2.789 -0.5983  1.0833  0.4427
  173MOL   H14934893   1.607   0.662   2.907 -0.2769  1.7429 -0.2600
  173MOL   H15034894   1.472   0.754   2.856  1.0736  2.1021  0.0240
  173MOL   H15134895   1.591   0.504   2.725  0.9523  2.2391 -2.2602
  173MOL   C15234896   1.393   0.536   2.722 -0.7702  0.0755 -0.5998
  173MOL   O15334897   1.299   0.614   2.726  0.0347  0.2067  0.5174
  173MOL   C15434898   1.373   0.390   2.675 -0.0035 -0.1475  0.0367
  173MOL   C15534899   1.233   0.354   2.629 -0.1270  0.2250  0.0825
  173MOL   N15634900   1.211   0.218   2.594  0.3359  0.4342  0.7550
  173MOL   H15734901   1.401   0.336   2.766 -0.2372  0.9967  0.7958
  173MOL   H15834902   1.443   0.365   2.596  2.2708 -0.5109  2.1120
  173MOL   H15934903   1.158   0.383   2.702 -0.0090 -1.5678  0.9538
  173MOL   H16034904   1.212   0.418   2.543 -1.4616  0.2422  0.4130
  173MOL   H16134905   1.164   0.148   2.650  1.1310 -1.7346 -1.1631
  173MOL   C16234906   1.233   0.164   2.475 -0.3102  0.0982 -0.1484
  173MOL   O16334907   1.275   0.225   2.377 -0.7682  0.7022 -0.1847
  173MOL   C16434908   1.208   0.016   2.447  0.2418 -0.0519 -0.2061
  173MOL   C16534909   1.111   7.780   2.327  0.1165  0.0333 -0.2305
  173MOL   N16634910   0.970   0.027   2.354  0.0067  0.2168  0.5438
  173MOL   H16734911   1.172   7.746   2.537  1.5833 -2.3091 -0.8953
  173MOL   H16834912   1.309   7.766   2.420  0.4297  0.3424  0.0421
  173MOL   H16934913   1.140   0.061   2.242 -2.1922 -0.8699 -1.7226
  173MOL   H17034914   1.121   7.679   2.286  1.8084  1.4162 -3.3349
  173MOL   H17134915   0.919   7.726   2.384  2.4958 -0.6969  2.4161
  173MOL   C17234916   0.904   0.138   2.341  0.2889  0.0516 -0.3648
  173MOL   O17334917   0.959   0.249   2.313  0.2592 -0.4271 -0.0494
  173MOL   C17434918   0.751   0.127   2.364 -0.3352 -0.2185  0.4149
  173MOL   C17534919   0.677   0.261   2.347 -0.7359  0.4405 -0.1689
  173MOL   N17634920   0.717   0.360   2.443  0.2296 -0.0336  0.5190
  173MOL   H17734921   0.734   0.100   2.469  0.0006  2.7217  1.2798
  173MOL   H17834922   0.707   0.046   2.306 -0.2770  0.4918 -0.6136
  173MOL   H17934923   0.697   0.293   2.245  0.8480  0.5997  0.1816
  173MOL   H18034924   0.572   0.230   2.349 -0.2187 -1.5331 -1.8029
  173MOL   H18134925   0.714   0.331   2.540 -0.2913  0.7065  0.7367
  173MOL   C18234926   0.746   0.489   2.414  0.3883  0.2231 -0.0745
  173MOL   O18334927   0.716   0.540   2.304  0.4807 -0.0137 -0.2155
  173MOL   C18434928   0.817   0.570   2.530 -0.5609  0.3603 -0.1495
  173MOL   C18534929   0.953   0.606   2.492 -0.7457  0.4449  0.0436
  173MOL   N18634930   1.002   0.703   2.589 -0.6046 -0.0330 -0.4842
  173MOL   H18734931   0.812   0.516   2.624 -1.9982  2.3102  0.9553
  173MOL   H18834932   0.747   0.653   2.541 -0.4065  0.4401  0.2593
  173MOL   H18934933   1.016   0.516   2.497 -0.0516  0.8143 -1.7434
  173MOL   H19034934   0.960   0.637   2.388  0.9565  2.5612  0.7643
  173MOL   H19134935   0.983   0.675   2.685  1.5779 -0.6089 -0.1913
  173MOL   C19234936   1.000   0.835   2.562  0.7063  0.0588  0.0780
  173MOL   O19334937   0.994   0.883   2.443 -0.1337  0.3136 -0.0575
  173MOL   C19434938   1.014   0.931   2.685 -0.2370 -0.1086  0.1953
  173MOL   C19534939   1.147   1.012   2.705  0.5329  0.5183 -0.0201
  173MOL   N19634940   1.254   0.930   2.757 -0.0863 -0.3279  0.1914
  173MOL   H19734941   0.933   1.003   2.671 -0.4142 -0.1677  0.9291
  173MOL   H19834942   0.987   0.881   2.778 -0.2742  1.0782  0.8317
  173MOL   H19934943   1.198   1.028   2.610  2.4197  0.3620  0.9353
  173MOL   H20034944   1.126   1.100   2.765  0.9528  0.0311  0.8462
  173MOL   H20134945   1.270   0.848   2.700  1.5577  1.2432 -1.6497
  173MOL   H20234946   1.217   0.878   2.836 -0.5325 -0.4873 -0.1192
  174MOL     C134947   2.430   1.705   6.427 -0.5784 -1.0264  0.4042
  174MOL     O234948   2.419   1.642   6.320 -1.1397 -0.3426 -0.1615
  174MOL     C334949   2.317   1.794   6.491  0.1586  0.2879 -0.0975
  174MOL     C434950   2.190   1.725   6.516 -0.5398  0.9068  0.0819
  174MOL     N534951   2.190   1.651   6.645  0.5210  0.6671  0.2006
  174MOL     H634952   2.317   1.872   6.416  2.8463 -0.1630 -0.6207
  174MOL     H734953   2.344   1.834   6.588  1.4160  2.0362 -1.1521
  174MOL     H834954   2.150   1.655   6.443 -1.5837  2.1818 -0.5605
  174MOL     H934955   2.117   1.804   6.531  0.8384  2.2519 -0.1374
  174MOL    H1034956   2.270   1.665   6.706  0.3272 -0.4986  0.7344
  174MOL    H1134957   2.525   1.716   6.480 -1.4466  1.9926  1.4852
  174MOL    C1234958   2.097   1.571   6.685  0.4283  0.2906  0.0461
  174MOL    O1334959   1.992   1.561   6.619 -0.0271  1.0017 -0.1935
  174MOL    C1434960   2.111   1.490   6.808 -0.4269 -0.3962  0.0726
  174MOL    C1534961   2.093   1.338   6.790 -0.0686  0.2727  0.0989
  174MOL    N1634962   2.202   1.266   6.720 -0.5512 -0.4531  0.0703
  174MOL    H1734963   2.033   1.519   6.878 -2.1766 -2.1938 -1.0801
  174MOL    H1834964   2.207   1.522   6.849 -1.3368  1.1126  1.0687
  174MOL    H1934965   2.085   1.288   6.887 -1.3491  0.2731 -0.0027
  174MOL    H2034966   1.993   1.329   6.748 -0.4360  0.3054  0.9455
  174MOL    H2134967   2.296   1.303   6.725 -0.3269 -1.0648  0.4832
  174MOL    C2234968   2.192   1.181   6.625  0.3715  0.6210 -0.6813
  174MOL    O2334969   2.084   1.141   6.584 -0.3596 -0.6387 -0.0191
  174MOL    C2434970   2.325   1.139   6.555  0.4816  0.0086  0.1859
  174MOL    C2534971   2.312   1.026   6.441 -0.2545  0.3886 -0.0887
  174MOL    N2634972   2.417   1.037   6.342 -0.6069 -0.1772 -1.2082
  174MOL    H2734973   2.392   1.101   6.632  1.2378 -1.3114 -1.1019
  174MOL    H2834974   2.365   1.232   6.513  1.6350 -0.4486  0.2411
  174MOL    H2934975   2.314   0.924   6.479 -2.1156  0.0516 -0.8186
  174MOL    H3034976   2.216   1.036   6.391  0.0651  0.6458 -0.6620
  174MOL    H3134977   2.497   0.981   6.369 -1.4617  0.3734  2.7699
  174MOL    C3234978   2.428   1.115   6.238  0.0468 -0.7309  0.7223
  174MOL    O3334979   2.336   1.191   6.206  0.6465 -0.2666  0.0581
  174MOL    C3434980   2.561   1.136   6.170  0.7233  0.2164 -0.5473
  174MOL    C3534981   2.556   1.147   6.018 -0.2000  0.4964 -0.1923
  174MOL    N3634982   2.566   1.016   5.952 -0.0510 -0.0944  0.1492
  174MOL    H3734983   2.628   1.055   6.199 -0.6214  0.6330  4.0186
  174MOL    H3834984   2.592   1.221   6.231  0.5782  0.9902 -1.5424
  174MOL    H3934985   2.461   1.194   5.996  0.4376  1.8417 -0.1264
  174MOL    H4034986   2.628   1.221   5.983  0.3396 -0.8829 -2.1217
  174MOL    H4134987   2.481   0.964   5.937  0.3491 -0.7488  0.1318
  174MOL    C4234988   2.671   0.985   5.868 -0.0033  0.2432 -0.0733
  174MOL    O4334989   2.771   1.062   5.851  0.2621 -0.0337 -0.1207
  174MOL    C4434990   2.664   0.856   5.786 -0.1511 -0.2222 -0.0703
  174MOL    C4534991   2.692   0.883   5.632  0.5319  0.3345  0.4614
  174MOL    N4634992   2.665   0.766   5.550 -0.2152 -0.1409  0.3083
  174MOL    H4734993   2.740   0.800   5.841  2.3634  2.8989 -0.2275
  174MOL    H4834994   2.564   0.818   5.802 -1.5734  3.4197  0.2981
  174MOL    H4934995   2.640   0.964   5.581  0.6475 -0.7861 -1.4688
  174MOL    H5034996   2.794   0.916   5.613  0.4233  0.9843  1.0010
  174MOL    H5134997   2.583   0.786   5.494  0.9806  1.8884 -0.7554
  174MOL    C5234998   2.731   0.657   5.531  0.9018  1.1242  0.4366
  174MOL    O5334999   2.835   0.633   5.589 -0.0061 -0.7167 -0.3272
  174MOL    C5435000   2.674   0.554   5.437  0.5232  0.2768 -0.3572
  174MOL    C5535001   2.747   0.417   5.440 -0.2875 -0.5960  0.2374
  174MOL    N5635002   2.675   0.335   5.339 -0.2247 -0.8890  0.3703
  174MOL    H5735003   2.571   0.527   5.458  1.4293 -0.8002  3.0716
  174MOL    H5835004   2.687   0.602   5.340  1.2649 -2.0178 -1.4185
  174MOL    H5935005   2.756   0.368   5.536  3.3454 -1.3305 -0.4337
  174MOL    H6035006   2.845   0.437   5.398 -0.6851  1.1156  0.0945
  174MOL    H6135007   2.701   0.340   5.242  0.4085  0.1293  0.5767
  174MOL    C6235008   2.585   0.239   5.362 -0.3478 -0.5020  0.2126
  174MOL    O6335009   2.556   0.200   5.475 -0.2644  0.1762 -0.4283
  174MOL    C6435010   2.520   0.173   5.240 -0.5247  0.4339  0.4868
  174MOL    C6535011   2.368   0.182   5.258  0.4281 -0.0460 -0.5091
  174MOL    N6635012   2.325   0.075   5.347  0.6703 -0.5355  0.2767
  174MOL    H6735013   2.558   0.241   5.164 -1.1718  1.6245  1.2146
  174MOL    H6835014   2.560   0.072   5.234 -0.3890  0.5795 -1.2118
  174MOL    H6935015   2.340   0.275   5.308  0.2838 -0.1849 -0.3300
  174MOL    H7035016   2.325   0.191   5.159 -0.1632  0.0810 -0.2442
  174MOL    H7135017   2.396   0.008   5.376  1.1472 -0.8221 -1.5123
  174MOL    C7235018   2.201   0.038   5.375  0.0591  0.1668 -0.0792
  174MOL    O7335019   2.108   0.113   5.340  0.1000  0.0225  0.1107
  174MOL    C7435020   2.170   7.701   5.466 -0.1611  0.5293  0.0074
  174MOL    C7535021   2.081   7.599   5.395  0.3291  0.6709 -0.1361
  174MOL    N7635022   1.942   7.638   5.371  0.4195 -0.7883 -0.1756
  174MOL    H7735023   2.259   7.648   5.501 -0.2104  0.1828 -0.3900
  174MOL    H7835024   2.115   7.741   5.551 -0.2042 -0.3558  0.3953
  174MOL    H7935025   2.132   7.591   5.299  1.1451 -4.4476  0.6104
  174MOL    H8035026   2.081   7.505   5.449  1.7494  0.4051 -0.5921
  174MOL    H8135027   1.923   7.737   5.368 -0.1081 -0.9055 -1.0213
  174MOL    C8235028   1.840   7.564   5.321 -1.7279  1.0896 -0.1963
  174MOL    O8335029   1.856   7.444   5.302  0.0875 -0.0586 -0.1026
  174MOL    C8435030   1.710   7.639   5.295 -0.0153 -0.8900 -0.1917
  174MOL    C8535031   1.603   7.541   5.258 -0.1195 -0.6393  0.6134
  174MOL    N8635032   1.499   7.612   5.180  0.0437  0.4801 -0.3593
  174MOL    H8735033   1.688   7.679   5.394  0.3258  0.2974 -0.5833
  174MOL    H8835034   1.716   7.715   5.217 -2.3443  1.3859  1.7282
  174MOL    H8935035   1.640   7.471   5.183  0.3717  1.1550 -0.8674
  174MOL    H9035036   1.568   7.486   5.346  1.7463 -0.9822  1.1518
  174MOL    H9135037   1.532   7.692   5.129 -2.3953  0.3354 -2.2608
  174MOL    C9235038   1.368   7.579   5.183 -0.0226  0.9715 -0.2250
  174MOL    O9335039   1.323   7.480   5.243  0.3926 -0.9086  0.2688
  174MOL    C9435040   1.278   7.669   5.098 -0.2292 -0.0666 -0.3144
  174MOL    C9535041   1.139   7.709   5.152 -1.4889 -0.0167 -1.2453
  174MOL    N9635042   1.039   7.607   5.173 -0.4399  0.1455 -0.3232
  174MOL    H9735043   1.327   7.764   5.076 -3.7669  2.0198  0.5747
  174MOL    H9835044   1.269   7.633   4.995  0.3167 -0.1954 -0.3225
  174MOL    H9935045   1.167   7.760   5.243  1.1798 -0.3727 -1.8226
  174MOL   H10035046   1.103   0.014   5.095  0.7248  1.1467 -0.9676
  174MOL   H10135047   1.024   7.588   5.271  3.4347  1.9938  0.7365
  174MOL   C10235048   0.949   7.562   5.087 -0.5039 -0.0161 -0.0657
  174MOL   O10335049   0.950   7.592   4.968  0.2536  0.2914  0.2533
  174MOL   C10435050   0.840   7.471   5.140  0.5154 -0.2924 -0.0866
  174MOL   C10535051   0.789   7.353   5.055  0.7052 -0.9154 -0.3184
  174MOL   N10635052   0.781   7.231   5.128 -0.5713 -0.4306  0.3341
  174MOL   H10735053   0.760   7.535   5.178 -0.2510 -0.6919 -0.9888
  174MOL   H10835054   0.876   7.427   5.232  0.9002 -1.2360 -0.6916
  174MOL   H10935055   0.689   7.373   5.015  0.5058 -0.3992  0.4331
  174MOL   H11035056   0.856   7.336   4.971  0.3796 -0.4373 -0.6799
  174MOL   H11135057   0.690   7.209   5.167 -0.7220  1.8901  1.4358
  174MOL   C11235058   0.885   7.153   5.162 -0.5892 -0.1396 -0.8696
  174MOL   O11335059   0.861   7.057   5.236  0.5629 -0.0700  0.2826
  174MOL   C11435060   1.023   7.188   5.108 -0.2908  0.5878  0.7321
  174MOL   C11535061   1.129   7.164   5.213  0.2270 -0.0760 -0.2039
  174MOL   N11635062   1.131   7.270   5.315 -0.1491 -0.0731  0.1915
  174MOL   H11735063   1.031   7.287   5.064  0.6354 -0.3613 -1.2841
  174MOL   H11835064   1.036   7.116   5.027 -3.1177 -0.6884  1.3417
  174MOL   H11935065   1.105   7.074   5.268 -0.9986 -0.3963 -1.2490
  174MOL   H12035066   1.232   7.163   5.176  0.5600  2.0599  0.5934
  174MOL   H12135067   1.184   7.354   5.297 -1.4616  0.4269 -1.5151
  174MOL   C12235068   1.107   7.258   5.448 -0.0929 -0.2616  0.6870
  174MOL   O12335069   1.052   7.159   5.496 -0.1875  0.4620 -0.4718
  174MOL   C12435070   1.164   7.372   5.534 -0.7126  0.3167  0.0382
  174MOL   C12535071   1.064   7.413   5.641 -0.4803 -0.3722 -0.4725
  174MOL   N12635072   0.927   7.437   5.604  0.8161  0.6428  0.1414
  174MOL   H12735073   1.198   7.466   5.491  0.5450  0.6111  1.6266
  174MOL   H12835074   1.263   7.344   5.570 -0.1061  2.4539  0.0998
  174MOL   H12935075   1.087   7.344   5.722  2.5911 -0.2616 -1.2023
  174MOL   H13035076   1.095   7.510   5.681 -1.2703 -1.0870  1.9594
  174MOL   H13135077   0.859   7.366   5.627 -0.1255  1.8047  1.0037
  174MOL   C13235078   0.883   7.544   5.531 -0.2630  0.3751  0.5392
  174MOL   O13335079   0.968   7.618   5.477  0.2616  0.6208 -0.1830
  174MOL   C13435080   0.733   7.556   5.504 -0.7099 -0.2247  0.0335
  174MOL   C13535081   0.687   7.681   5.435  0.0339 -0.2046 -0.8026
  174MOL   N13635082   0.544   7.689   5.426  0.5919 -0.3951  1.1779
  174MOL   H13735083   0.670   7.553   5.593  1.4782  0.7704  1.6622
  174MOL   H13835084   0.701   7.471   5.444 -0.9591  0.5604 -0.9581
  174MOL   H13935085   0.727   7.758   5.502 -0.3995  0.0971 -0.8925
  174MOL   H14035086   0.725   7.682   5.333 -0.5737  1.1363 -1.0282
  174MOL   H14135087   0.494   7.754   5.485  0.0019 -0.5152  0.8102
  174MOL   C14235088   0.460   7.629   5.343 -1.2422  0.1479  0.1474
  174MOL   O14335089   0.491   7.551   5.255 -0.6553 -0.2995 -0.2938
  174MOL   C14435090   0.310   7.657   5.361  0.4016 -0.3760 -0.2921
  174MOL   C14535091   0.239   7.710   5.239 -0.2842 -0.6612 -0.2025
  174MOL   N14635092   0.094   7.682   5.241 -0.0065  0.2148 -0.1135
  174MOL   H14735093   0.301   7.725   5.445 -0.6546 -2.1649  1.0714
  174MOL   H14835094   0.272   7.559   5.390  0.4970 -0.0384  1.0223
  174MOL   H14935095   0.258   0.037   5.233 -1.9355 -0.2158  1.8702
  174MOL   H15035096   0.273   7.668   5.145  0.6041 -0.2393 -0.0729
  174MOL   H15135097   0.053   7.625   5.314  0.2794 -0.7066 -0.6733
  174MOL   C15235098   0.010   7.715   5.144 -0.3005 -0.4073 -0.5805
  174MOL   O15335099   0.041   7.769   5.038 -0.0903  0.7334 -0.0575
  174MOL   C15435100   7.648   7.684   5.172  0.4578  0.2388  0.9791
  174MOL   C15535101   7.576   0.030   5.220 -0.0668  0.3960 -0.1448
  174MOL   N15635102   7.457   0.052   5.140 -0.2779  0.1262 -0.1089
  174MOL   H15735103   7.637   7.602   5.244 -1.3576 -0.8697 -0.5194
  174MOL   H15835104   7.600   7.646   5.082  0.5981 -1.8505  1.7566
  174MOL   H15935105   7.533   0.005   5.317 -1.5228 -3.1865 -1.6272
  174MOL   H16035106   7.639   0.118   5.234 -2.2157  1.7579  1.4435
  174MOL   H16135107   7.450   0.004   5.052  0.5683 -2.4032  1.1716
  174MOL   C16235108   7.356   0.130   5.163  0.0757  0.2119 -0.4852
  174MOL   O16335109   7.265   0.148   5.082  1.1537 -0.0542 -0.1928
  174MOL   C16435110   7.352   0.204   5.292  0.1519 -0.2148  0.7547
  174MOL   C16535111   7.266   0.332   5.292  0.4298 -0.0663  0.7242
  174MOL   N16635112   7.271   0.398   5.418  0.2693 -0.2090 -0.1308
  174MOL   H16735113   7.456   0.228   5.315 -0.2064  0.6167  1.5073
  174MOL   H16835114   7.330   0.132   5.371 -0.7094 -1.7805 -0.8569
  174MOL   H16935115   7.303   0.397   5.213 -2.2022  0.8420  0.2059
  174MOL   H17035116   7.163   0.313   5.265  0.0680  2.1989  0.3551
  174MOL   H17135117   7.270   0.330   5.494 -0.5263 -0.6520 -0.5291
  174MOL   C17235118   7.227   0.525   5.445 -0.2925 -0.0836 -0.4944
  174MOL   O17335119   7.202   0.609   5.355  0.4510  0.2651  0.3725
  174MOL   C17435120   7.236   0.561   5.595  0.7743 -0.3015 -0.0376
  174MOL   C17535121   7.105   0.612   5.652  0.1204  0.0383  0.0331
  174MOL   N17635122   7.130   0.690   5.775 -0.2362  0.4807 -0.3500
  174MOL   H17735123   7.317   0.633   5.606  0.3339  0.6566 -2.7312
  174MOL   H17835124   7.266   0.479   5.661  1.5172  0.3733  0.4697
  174MOL   H17935125   7.051   0.683   5.589 -0.8824 -2.1452 -1.6426
  174MOL   H18035126   7.046   0.525   5.680 -0.4317  1.1841  2.5938
  174MOL   H18135127   7.176   0.778   5.759 -1.5443  1.8347  2.8347
  174MOL   C18235128   7.139   0.649   5.905 -0.0559 -0.2277  0.1836
  174MOL   O18335129   7.113   0.542   5.946  0.1875 -0.4315 -0.0676
  174MOL   C18435130   7.187   0.756   6.007  0.4623  0.4693  0.1465
  174MOL   C18535131   7.234   0.703   6.149  0.6979 -0.2375  0.5659
  174MOL   N18635132   7.241   0.803   6.257  0.1012  0.2476 -0.3310
  174MOL   H18735133   7.113   0.835   6.022  0.1216 -0.4904  4.1694
  174MOL   H18835134   7.271   0.811   5.965  1.6292 -0.6237  1.0056
  174MOL   H18935135   7.155   0.639   6.188  2.2611 -1.7394  1.3464
  174MOL   H19035136   7.332   0.654   6.146  0.0979 -1.4285 -0.2925
  174MOL   H19135137   7.153   0.832   6.297  0.3546  0.8997 -0.2454
  174MOL   C19235138   7.353   0.878   6.288  1.0170  0.0176  0.0806
  174MOL   O19335139   7.458   0.856   6.228 -0.0086  0.6275 -0.2344
  174MOL   C19435140   7.344   1.000   6.376  0.1667 -0.4602  0.3405
  174MOL   C19535141   7.479   1.042   6.448  0.6050 -0.4077 -0.6650
  174MOL   N19635142   7.516   0.955   6.560 -0.0760 -0.1159 -0.1419
  174MOL   H19735143   7.321   1.076   6.302  2.4176 -1.3497 -1.3237
  174MOL   H19835144   7.266   0.997   6.452  0.4080 -1.0191  0.5690
  174MOL   H19935145   7.560   1.049   6.375  1.2245  0.2998  0.0878
  174MOL   H20035146   7.466   1.142   6.489 -0.9534 -0.1499 -1.7486
  174MOL   H20135147   7.612   0.980   6.582 -0.3775  1.4658 -0.5409
  174MOL   H20235148   7.534   0.862   6.527 -0.7166  0.4167 -2.0334
  175MOL     C135149   4.305   6.816   0.803  0.2765 -0.8412 -0.4873
  175MOL     O235150   4.294   6.917   0.872  0.3093  0.0898  0.2291
  175MOL     C335151   4.184   6.750   0.745  0.8903  0.3898 -0.3367
  175MOL     C435152   4.056   6.816   0.773  0.4225 -0.1156  0.0827
  175MOL     N535153   3.993   6.759   0.890 -0.4777 -1.1922 -0.4600
  175MOL     H635154   4.184   6.643   0.766  0.0241  0.1800 -1.2981
  175MOL     H735155   4.211   6.757   0.639  0.8854  1.1279 -0.2907
  175MOL     H835156   3.993   6.804   0.685  0.3130  1.3262 -0.0427
  175MOL     H935157   4.067   6.924   0.767 -1.5426  0.0801 -0.2189
  175MOL    H1035158   4.038   6.785   0.977 -0.7210  0.6704 -0.8534
  175MOL    H1135159   4.397   6.759   0.793  0.6615 -0.8116  2.4117
  175MOL    C1235160   3.877   6.700   0.904  0.2730  0.0946  0.2389
  175MOL    O1335161   3.802   6.676   0.813  0.3905  0.0577  0.1412
  175MOL    C1435162   3.847   6.666   1.044  0.1398  0.3121  0.9105
  175MOL    C1535163   3.739   6.555   1.061 -0.3331 -0.5968 -0.4859
  175MOL    N1635164   3.783   6.424   1.026  0.1610  0.4039 -0.6311
  175MOL    H1735165   3.808   6.758   1.088 -2.1029  0.8882 -2.0792
  175MOL    H1835166   3.943   6.637   1.085  0.4418 -2.0165 -1.2841
  175MOL    H1935167   3.693   6.555   1.159 -0.1186  1.4145 -0.3588
  175MOL    H2035168   3.656   6.574   0.993  1.1850  0.0609 -2.2272
  175MOL    H2135169   3.728   6.362   0.967  1.6125  1.2986 -2.9961
  175MOL    C2235170   3.877   6.350   1.084 -0.4392 -0.8810 -0.4886
  175MOL    O2335171   3.946   6.393   1.179 -0.0540  0.1799 -0.5796
  175MOL    C2435172   3.911   6.221   1.010  0.3615  0.2069 -0.0016
  175MOL    C2535173   4.032   6.143   1.058  0.2544  0.1457 -0.1483
  175MOL    N2635174   4.078   6.037   0.971  0.2844 -0.1707 -0.1899
  175MOL    H2735175   3.930   6.254   0.908 -0.9717 -0.8614 -0.6092
  175MOL    H2835176   3.825   6.155   1.017  0.2773  0.3950  0.7613
  175MOL    H2935177   4.121   6.204   1.043  0.4336  0.2646  1.3823
  175MOL    H3035178   4.047   6.124   1.164  2.2898  0.5352 -0.3517
  175MOL    H3135179   4.060   6.049   0.872  2.6070  0.0356 -0.5940
  175MOL    C3235180   4.154   5.928   1.002 -0.1224  0.2429 -0.1995
  175MOL    O3335181   4.193   5.900   1.111 -0.2553 -0.1245  0.1661
  175MOL    C3435182   4.196   5.831   0.885  0.0949  0.1061  0.1142
  175MOL    C3535183   4.178   5.680   0.907  0.0041  0.1561  0.3130
  175MOL    N3635184   4.041   5.634   0.860 -0.6030 -0.2526  0.2040
  175MOL    H3735185   4.305   5.843   0.882  0.1498 -0.7765 -2.8154
  175MOL    H3835186   4.162   5.857   0.784 -1.7099  2.0045  1.1826
  175MOL    H3935187   4.253   5.620   0.855  0.3229 -1.1275  2.2013
  175MOL    H4035188   4.184   5.654   1.012 -0.1521  1.6125  0.6938
  175MOL    H4135189   3.968   5.704   0.867  1.1698  1.8413 -1.4869
  175MOL    C4235190   4.011   5.516   0.808 -0.0961  0.1159 -0.0722
  175MOL    O4335191   4.098   5.431   0.801 -0.2940 -0.5320 -0.0340
  175MOL    C4435192   3.869   5.492   0.755 -0.3781  0.4293 -0.8615
  175MOL    C4535193   3.835   5.359   0.696  0.4339 -0.5917  0.8851
  175MOL    N4635194   3.813   5.249   0.787 -0.4368 -0.1463 -0.0123
  175MOL    H4735195   3.801   5.513   0.838  0.7219 -2.6963  0.9396
  175MOL    H4835196   3.856   5.576   0.688 -0.8131  2.2079  1.3997
  175MOL    H4935197   3.735   5.375   0.654  0.7090  0.2046  0.5287
  175MOL    H5035198   3.903   5.325   0.619  1.8703  0.6299  1.5953
  175MOL    H5135199   3.825   5.267   0.885 -0.4112 -1.5540  0.2462
  175MOL    C5235200   3.776   5.127   0.743  0.8425 -0.2831  0.0493
  175MOL    O5335201   3.773   5.102   0.625 -0.4487 -0.1311 -0.2992
  175MOL    C5435202   3.728   5.023   0.846  0.4962  0.2259  0.0338
  175MOL    C5535203   3.613   4.923   0.813  0.6991 -0.2993  0.2157
  175MOL    N5635204   3.497   4.975   0.732  0.6319  0.1230 -0.0038
  175MOL    H5735205   3.815   4.967   0.880  0.0369 -0.4904  0.0229
  175MOL    H5835206   3.691   5.081   0.930  1.3128  1.9491 -0.7493
  175MOL    H5935207   3.573   4.885   0.907  0.2759 -0.8050 -0.1686
  175MOL    H6035208   3.657   4.839   0.758  1.6561  0.4060 -0.1160
  175MOL    H6135209   3.511   5.069   0.697  2.2981 -0.5942 -1.3360
  175MOL    C6235210   3.386   4.909   0.697 -0.1925 -0.1204 -0.2634
  175MOL    O6335211   3.361   4.793   0.735  0.2216  0.5045 -0.3037
  175MOL    C6435212   3.286   5.000   0.624 -0.5166  0.3540 -0.0508
  175MOL    C6535213   3.198   5.083   0.718 -0.2309 -0.4600  0.4206
  175MOL    N6635214   3.145   5.200   0.657  0.4501  0.2292 -0.7351
  175MOL    H6735215   3.346   5.060   0.555 -2.1286  0.5852 -1.2788
  175MOL    H6835216   3.220   4.948   0.555 -0.3960 -0.4315  0.4260
  175MOL    H6935217   3.116   5.021   0.756 -0.2922  0.7211  2.2698
  175MOL    H7035218   3.254   5.119   0.804 -2.5820  3.0747  0.5785
  175MOL    H7135219   3.132   5.194   0.557  1.4888  0.8138 -0.9086
  175MOL    C7235220   3.116   5.320   0.715 -0.2095 -0.3593  0.1206
  175MOL    O7335221   3.123   5.344   0.835 -0.2298  0.7057  0.0536
  175MOL    C7435222   3.082   5.433   0.621 -0.0335 -0.2672 -0.7332
  175MOL    C7535223   2.972   5.527   0.667 -0.8002  0.4366 -0.0999
  175MOL    N7635224   2.842   5.475   0.709  0.2552 -0.5824  0.8055
  175MOL    H7735225   3.172   5.485   0.586 -0.6294  2.1022  1.1238
  175MOL    H7835226   3.053   5.385   0.528  3.4973  0.7095 -2.4574
  175MOL    H7935227   3.004   5.577   0.759  0.8863  1.9285 -1.4604
  175MOL    H8035228   2.962   5.597   0.584 -1.5933  1.0951  0.5376
  175MOL    H8135229   2.832   5.457   0.808 -0.5862 -1.3390  0.5890
  175MOL    C8235230   2.747   5.428   0.633  0.2308 -0.2871  0.1408
  175MOL    O8335231   2.759   5.422   0.509 -0.1626  0.1701  0.2406
  175MOL    C8435232   2.617   5.375   0.696  0.2625 -0.0307  0.6210
  175MOL    C8535233   2.489   5.415   0.630 -0.1074  0.3835 -0.3572
  175MOL    N8635234   2.464   5.557   0.634 -0.1864  0.5049 -0.2431
  175MOL    H8735235   2.623   5.266   0.689 -0.1287  0.0225 -0.5627
  175MOL    H8835236   2.614   5.400   0.802 -1.0891  4.4097 -0.3665
  175MOL    H8935237   2.499   5.367   0.533  0.2164  0.2465 -0.2556
  175MOL    H9035238   2.405   5.354   0.665  0.2204 -0.1182 -0.4425
  175MOL    H9135239   2.528   5.612   0.577 -0.0031  0.6117  0.0665
  175MOL    C9235240   2.360   5.620   0.691 -0.2759 -0.7980  0.8233
  175MOL    O9335241   2.292   5.545   0.762  0.9688 -0.2488  0.5476
  175MOL    C9435242   2.336   5.761   0.669  0.4711 -0.0282  0.2619
  175MOL    C9535243   2.341   5.838   0.797  0.0153  0.0913 -0.2429
  175MOL    N9635244   2.485   5.841   0.844  0.0705  0.3083 -0.3873
  175MOL    H9735245   2.417   5.808   0.613 -0.0417  2.3004  1.3848
  175MOL    H9835246   2.237   5.780   0.627  0.4538  2.2783  1.2712
  175MOL    H9935247   2.301   5.938   0.781  2.2054  0.8404 -1.1313
  175MOL   H10035248   2.284   5.794   0.879 -1.1263 -2.4323 -2.3272
  175MOL   H10135249   2.523   5.760   0.889  0.6761 -0.2799 -1.9224
  175MOL   C10235250   2.579   5.932   0.804  0.5542  0.1752 -0.0837
  175MOL   O10335251   2.543   6.038   0.749  0.2378 -0.4613 -0.1491
  175MOL   C10435252   2.722   5.888   0.804  0.4890 -0.7172 -0.4441
  175MOL   C10535253   2.794   5.894   0.947  0.3629 -0.5462  0.4397
  175MOL   N10635254   2.704   5.836   1.047 -0.1860 -0.1202 -0.2023
  175MOL   H10735255   2.771   5.971   0.753  0.0652 -0.9364 -1.2155
  175MOL   H10835256   2.738   5.792   0.756  3.0745 -0.7777  0.4639
  175MOL   H10935257   2.884   5.833   0.943  1.4042  0.9553  0.7269
  175MOL   H11035258   2.815   5.994   0.983 -0.0966 -1.5827  3.6911
  175MOL   H11135259   2.652   5.894   1.111 -4.0204 -1.3544 -2.0577
  175MOL   C11235260   2.678   5.708   1.062  0.4418  0.8120 -0.0470
  175MOL   O11335261   2.728   5.619   0.988 -0.3343 -0.3762 -0.2545
  175MOL   C11435262   2.587   5.654   1.173 -0.4139 -0.3259 -0.0809
  175MOL   C11535263   2.447   5.615   1.127 -0.1164 -0.1854 -0.0152
  175MOL   N11635264   2.451   5.485   1.070 -0.0401 -1.1895 -0.1640
  175MOL   H11735265   2.577   5.746   1.230 -1.5773 -0.7899  0.4927
  175MOL   H11835266   2.636   5.587   1.244 -0.2206  2.3159  2.3424
  175MOL   H11935267   2.370   5.611   1.204 -0.0537  0.5349  0.0893
  175MOL   H12035268   2.412   5.686   1.053  3.0048  1.5803  0.1030
  175MOL   H12135269   2.437   5.472   0.971 -3.9011 -0.3970  0.2317
  175MOL   C12235270   2.457   5.368   1.144  0.8551  0.7136  0.1502
  175MOL   O12335271   2.454   5.369   1.265  0.2392 -0.7223 -0.1876
  175MOL   C12435272   2.471   5.236   1.064  0.2171 -0.8896 -0.2378
  175MOL   C12535273   2.561   5.138   1.156  0.7274  0.4896  0.0499
  175MOL   N12635274   2.666   5.073   1.072 -0.4989 -0.7859  0.0606
  175MOL   H12735275   2.516   5.246   0.965  0.9568  0.5882  0.2187
  175MOL   H12835276   2.370   5.200   1.046  0.5931 -2.7157  1.1613
  175MOL   H12935277   2.610   5.186   1.240 -0.8706 -1.3771  2.1016
  175MOL   H13035278   2.509   5.051   1.196 -1.2094  1.5200 -0.1879
  175MOL   H13135279   2.681   4.975   1.092  0.3048 -0.9265 -1.1701
  175MOL   C13235280   2.773   5.130   1.001  0.1863  0.0382 -0.1436
  175MOL   O13335281   2.770   5.256   0.979  0.2268  0.3531  0.0501
  175MOL   C13435282   2.890   5.040   0.943 -0.0921  0.3970  0.2194
  175MOL   C13535283   3.008   5.021   1.037 -0.1573  0.0872 -0.1204
  175MOL   N13635284   3.085   5.142   1.048 -0.2201 -0.2099 -0.4244
  175MOL   H13735285   2.917   5.085   0.847 -0.0691 -1.4621 -0.6526
  175MOL   H13835286   2.846   4.943   0.925  0.4331  0.2725 -0.3947
  175MOL   H13935287   2.967   4.989   1.133  1.8208 -1.5708  0.2114
  175MOL   H14035288   3.073   4.942   0.999 -1.4615 -0.0218 -2.1918
  175MOL   H14135289   3.071   5.215   0.980 -0.2930  1.3989  1.2851
  175MOL   C14235290   3.199   5.162   1.117 -0.1926  0.2617 -0.8230
  175MOL   O14335291   3.242   5.077   1.195  0.3676  0.4476  0.1821
  175MOL   C14435292   3.264   5.293   1.095 -0.2269  0.2794 -0.3287
  175MOL   C14535293   3.375   5.334   1.197  0.2246 -0.1865  0.3574
  175MOL   N14635294   3.338   5.339   1.340 -0.1261  0.5426  0.2341
  175MOL   H14735295   3.192   5.374   1.084 -1.0313 -0.3399  0.3671
  175MOL   H14835296   3.298   5.274   0.993 -0.6992  0.1576 -0.4646
  175MOL   H14935297   3.463   5.271   1.181  0.2760 -0.6793  2.4420
  175MOL   H15035298   3.401   5.438   1.176  1.5396 -1.1226 -3.0296
  175MOL   H15135299   3.241   5.358   1.361  0.5371  3.1107  1.2246
  175MOL   C15235300   3.417   5.331   1.446 -0.2909  0.5346  0.4694
  175MOL   O15335301   3.540   5.321   1.438 -0.1222  0.3832 -0.2159
  175MOL   C15435302   3.350   5.352   1.585 -0.3232 -0.2206 -1.0822
  175MOL   C15535303   3.390   5.472   1.679 -0.0321 -0.2983 -0.1072
  175MOL   N15635304   3.515   5.440   1.747 -0.3354  0.4995 -0.3880
  175MOL   H15735305   3.369   5.262   1.642  0.2358  1.1798  0.9797
  175MOL   H15835306   3.242   5.355   1.570 -0.7344 -3.0323  1.0718
  175MOL   H15935307   3.398   5.565   1.622 -1.2538 -0.0650  0.0809
  175MOL   H16035308   3.312   5.489   1.753  0.4940  1.4939  0.0679
  175MOL   H16135309   3.579   5.375   1.703 -0.0418  1.1470 -0.9284
  175MOL   C16235310   3.566   5.515   1.846  1.1038 -0.3456  0.0206
  175MOL   O16335311   3.507   5.613   1.893 -0.2194 -0.1532 -0.0053
  175MOL   C16435312   3.693   5.463   1.909  0.2245  0.1445  0.5078
  175MOL   C16535313   3.744   5.525   2.038  0.5552 -0.0834 -0.2840
  175MOL   N16635314   3.650   5.504   2.146 -0.1220 -0.2916  0.5570
  175MOL   H16735315   3.771   5.478   1.834 -0.8834 -1.1819 -0.9493
  175MOL   H16835316   3.688   5.356   1.932  0.8144  0.2876  1.3357
  175MOL   H16935317   3.838   5.483   2.074 -0.0949 -1.8633 -0.6379
  175MOL   H17035318   3.763   5.632   2.032  1.5469 -0.3464 -2.0448
  175MOL   H17135319   3.558   5.490   2.106 -0.3028  2.0749  0.0568
  175MOL   C17235320   3.670   5.527   2.272 -0.5237 -0.9364  0.1560
  175MOL   O17335321   3.782   5.543   2.316 -0.1375 -0.2487 -0.3490
  175MOL   C17435322   3.549   5.560   2.359  0.1429 -0.1098 -0.2426
  175MOL   C17535323   3.533   5.453   2.477 -0.0521 -0.3535  0.1067
  175MOL   N17635324   3.509   5.322   2.424  0.0678 -0.0325  0.4913
  175MOL   H17735325   3.463   5.554   2.293  0.2724 -1.9151 -0.2888
  175MOL   H17835326   3.553   5.661   2.399  0.6956 -0.1538 -0.1799
  175MOL   H17935327   3.622   5.470   2.537 -1.1635  0.6864  1.4957
  175MOL   H18035328   3.454   5.488   2.545 -0.7686 -0.1408 -0.8211
  175MOL   H18135329   3.430   5.315   2.362 -1.0482 -0.7901  1.9694
  175MOL   C18235330   3.579   5.212   2.455 -0.2404  0.3059  0.0471
  175MOL   O18335331   3.670   5.203   2.536  0.1692  0.6103 -0.4731
  175MOL   C18435332   3.541   5.093   2.363  0.1526 -0.2213 -0.9931
  175MOL   C18535333   3.625   5.063   2.247 -0.4277  0.2892 -0.2795
  175MOL   N18635334   3.570   4.959   2.170  0.0356  0.3398 -0.3956
  175MOL   H18735335   3.437   5.099   2.332 -0.3679  1.6795  0.9768
  175MOL   H18835336   3.552   5.008   2.431  0.7082 -1.1402 -2.2180
  175MOL   H18935337   3.634   5.148   2.180 -0.8275 -0.3719 -1.1921
  175MOL   H19035338   3.728   5.040   2.277  0.1241  2.0933 -0.7117
  175MOL   H19135339   3.574   4.868   2.214 -1.0898  1.1883  1.5432
  175MOL   C19235340   3.459   4.965   2.092 -0.4138  0.0099  0.2907
  175MOL   O19335341   3.397   4.863   2.066 -0.4251 -0.0687  0.3771
  175MOL   C19435342   3.420   5.101   2.028 -0.1345  1.1565 -0.4127
  175MOL   C19535343   3.310   5.098   1.920 -0.2006 -1.4004 -0.1856
  175MOL   N19635344   3.181   5.098   1.990 -0.1659 -0.4457 -0.1347
  175MOL   H19735345   3.388   5.172   2.104 -0.6279  1.4804 -0.9087
  175MOL   H19835346   3.501   5.150   1.974  0.9097  0.0176  0.0937
  175MOL   H19935347   3.321   5.180   1.849  0.5399 -0.4760  0.9627
  175MOL   H20035348   3.340   5.015   1.857  0.4268 -1.4677  0.1950
  175MOL   H20135349   3.163   5.000   2.006  1.6727 -0.7861 -0.0353
  175MOL   H20235350   3.120   5.125   1.914 -0.7471 -0.6327  0.2541
  176MOL     C135351   4.828   4.594   2.866  0.3238  0.4478  0.2971
  176MOL     O235352   4.716   4.644   2.884 -0.1396  0.2827  0.7075
  176MOL     C335353   4.950   4.658   2.921  0.7922 -0.2093  0.4389
  176MOL     C435354   5.034   4.576   3.023  0.2350  0.5295  0.0649
  176MOL     N535355   5.157   4.645   3.051 -0.3290 -0.1649  0.4748
  176MOL     H635356   4.929   4.764   2.939  0.4534 -0.3510  0.8741
  176MOL     H735357   5.007   4.654   2.828 -1.9437 -0.9033 -1.2624
  176MOL     H835358   5.049   4.471   2.997  1.5522  1.5180 -3.4002
  176MOL     H935359   4.974   4.572   3.114  2.4842  1.8289  1.6580
  176MOL    H1035360   5.245   4.621   3.009 -0.9892 -1.3571 -0.2469
  176MOL    H1135361   4.839   4.513   2.795 -0.5521  1.1818 -0.6952
  176MOL    C1235362   5.164   4.756   3.126 -0.0716 -0.2817  0.6157
  176MOL    O1335363   5.074   4.795   3.195 -0.3933 -0.7604 -0.4150
  176MOL    C1435364   5.293   4.831   3.109  0.1585  0.6166 -0.2835
  176MOL    C1535365   5.285   4.987   3.133  0.3595  0.0486  0.3037
  176MOL    N1635366   5.316   5.029   3.266  0.0723  0.0257 -0.3722
  176MOL    H1735367   5.335   4.824   3.009  1.3605  0.5695  0.2117
  176MOL    H1835368   5.365   4.793   3.181  2.2118  1.0438 -2.0426
  176MOL    H1935369   5.349   5.042   3.063 -0.2330 -0.1788 -0.4271
  176MOL    H2035370   5.183   5.023   3.121  0.9123  0.6568 -3.1583
  176MOL    H2135371   5.261   5.105   3.303 -2.5506 -2.3860  0.8144
  176MOL    C2235372   5.435   5.016   3.329  0.5104 -0.2796  0.3845
  176MOL    O2335373   5.537   4.952   3.287  1.1248  0.2919 -0.0782
  176MOL    C2435374   5.452   5.102   3.454 -0.3606 -0.9535 -0.1494
  176MOL    C2535375   5.465   5.031   3.596 -0.5272 -0.3243  0.2352
  176MOL    N2635376   5.594   4.971   3.630  0.1751 -0.4051 -0.7732
  176MOL    H2735377   5.372   5.175   3.460  0.8528  0.3596  0.2245
  176MOL    H2835378   5.537   5.164   3.426 -1.6098 -0.4420 -2.9614
  176MOL    H2935379   5.444   5.108   3.670  0.8914  0.5996 -0.2976
  176MOL    H3035380   5.400   4.945   3.616 -0.2758 -0.7610 -0.7771
  176MOL    H3135381   5.604   4.873   3.609  1.3867 -0.9127  1.9224
  176MOL    C3235382   5.698   5.016   3.698 -0.4485 -0.5783  0.5681
  176MOL    O3335383   5.702   5.127   3.746 -0.1056 -0.4068  0.0220
  176MOL    C3435384   5.825   4.930   3.720  0.0315  0.4992  0.9235
  176MOL    C3535385   5.838   4.884   3.870  0.0119  0.3727 -0.4443
  176MOL    N3635386   5.767   4.762   3.897 -0.3885  0.5349  0.6735
  176MOL    H3735387   5.902   4.995   3.679 -0.6179  2.0717  2.1429
  176MOL    H3835388   5.827   4.842   3.657 -0.7157 -0.6500  2.4525
  176MOL    H3935389   5.942   4.892   3.901 -0.3634  1.5362  0.5229
  176MOL    H4035390   5.781   4.951   3.934 -1.9004 -1.4253 -0.1945
  176MOL    H4135391   5.821   4.679   3.916  1.2306  2.0310  2.8693
  176MOL    C4235392   5.636   4.751   3.922  0.5652 -0.2881 -0.0928
  176MOL    O4335393   5.564   4.845   3.937 -0.7364 -0.5407  0.0005
  176MOL    C4435394   5.587   4.609   3.943  0.2420  0.4355  0.4994
  176MOL    C4535395   5.445   4.591   3.896 -0.1575 -0.1909 -0.3665
  176MOL    N4635396   5.391   4.455   3.904  0.8796 -0.2544 -0.2790
  176MOL    H4735397   5.653   4.534   3.900 -0.7866 -1.1550  1.6495
  176MOL    H4835398   5.585   4.598   4.051 -0.5178 -0.9294  0.3519
  176MOL    H4935399   5.375   4.654   3.952  3.0003  2.6420  0.5777
  176MOL    H5035400   5.439   4.619   3.791  0.4724 -2.5053 -1.0252
  176MOL    H5135401   5.400   4.404   3.818 -1.9016 -2.2587  0.5426
  176MOL    C5235402   5.351   4.382   4.012  0.0601 -0.4854  0.3501
  176MOL    O5335403   5.332   4.442   4.119 -0.1284  0.6751 -0.8442
  176MOL    C5435404   5.344   4.232   3.999 -0.2131 -0.2656  0.5589
  176MOL    C5535405   5.229   4.159   4.063 -0.0386  0.1317 -0.1994
  176MOL    N5635406   5.104   4.180   3.999  0.5885  0.2624 -0.8257
  176MOL    H5735407   5.342   4.209   3.892  1.5504  1.1309  0.1923
  176MOL    H5835408   5.440   4.189   4.030  1.0916  2.2195  0.1483
  176MOL    H5935409   5.226   4.206   4.162 -0.4265 -0.1343 -0.0798
  176MOL    H6035410   5.263   4.059   4.090  0.0246 -0.3288 -1.9876
  176MOL    H6135411   5.052   4.260   4.032  0.0597 -0.6446  0.6260
  176MOL    C6235412   5.050   4.111   3.896 -0.2525 -0.9780 -1.6314
  176MOL    O6335413   5.097   4.012   3.843  0.0552  0.3141 -0.4936
  176MOL    C6435414   4.937   4.183   3.824 -0.0788  1.2062  0.0409
  176MOL    C6535415   4.840   4.088   3.749  0.5696  0.2886 -0.5453
  176MOL    N6635416   4.725   4.040   3.830  0.6154  0.2560 -0.8309
  176MOL    H6735417   4.884   4.243   3.898 -1.9834  0.2597 -0.5126
  176MOL    H6835418   4.979   4.258   3.758 -1.3728  1.8640 -0.0563
  176MOL    H6935419   4.789   4.147   3.673 -2.1679 -0.1070  0.9163
  176MOL    H7035420   4.889   4.011   3.689  0.0329 -1.1936  0.8985
  176MOL    H7135421   4.721   4.050   3.930 -1.6031  0.6975 -0.9478
  176MOL    C7235422   4.626   3.974   3.775  0.0492  0.0219 -0.2162
  176MOL    O7335423   4.610   3.956   3.653  0.7098  0.0461  0.0070
  176MOL    C7435424   4.532   3.915   3.876 -0.1741 -0.3417 -0.4430
  176MOL    C7535425   4.445   3.797   3.825 -0.2486 -0.3472 -0.1582
  176MOL    N7635426   4.341   3.845   3.731 -0.2679  0.3917  0.1992
  176MOL    H7735427   4.580   3.888   3.970 -0.1180 -0.1870 -0.4281
  176MOL    H7835428   4.465   3.996   3.908 -1.4359 -2.2335  1.8914
  176MOL    H7935429   4.512   3.722   3.783  0.4250  0.4180 -0.4770
  176MOL    H8035430   4.397   3.751   3.911  2.8853 -1.1815  1.2187
  176MOL    H8135431   4.353   3.937   3.692  0.3000  0.1040 -0.2907
  176MOL    C8235432   4.259   3.761   3.663 -0.1491  0.1081 -0.5815
  176MOL    O8335433   4.230   3.644   3.688 -1.3317  0.1126  0.0761
  176MOL    C8435434   4.199   3.809   3.537 -0.3424 -0.0347 -0.1371
  176MOL    C8535435   4.046   3.802   3.529  0.2840  0.2767  0.9008
  176MOL    N8635436   3.983   3.906   3.603 -0.6388  0.2779 -0.1397
  176MOL    H8735437   4.236   3.911   3.528  0.0752 -0.0860  0.9195
  176MOL    H8835438   4.233   3.745   3.456  2.4822  1.1627  0.0239
  176MOL    H8935439   4.025   3.798   3.422 -1.3276  0.8843  1.1805
  176MOL    H9035440   4.016   3.704   3.565 -0.9222  0.4357  0.3404
  176MOL    H9135441   3.947   3.885   3.695  0.8597 -1.4444  0.0856
  176MOL    C9235442   3.977   4.037   3.588  0.3630 -0.7129 -0.0849
  176MOL    O9335443   4.023   4.098   3.491 -0.1707  0.4217 -0.2371
  176MOL    C9435444   3.923   4.122   3.707  0.6185  0.4410 -0.0718
  176MOL    C9535445   3.888   4.266   3.661  0.0299 -0.0703  0.3248
  176MOL    N9635446   3.842   4.341   3.781  0.3472 -0.4088  0.6319
  176MOL    H9735447   3.830   4.075   3.738 -0.4369  1.8574 -1.0001
  176MOL    H9835448   4.005   4.135   3.777  0.1886  1.1378  0.2994
  176MOL    H9935449   3.983   4.309   3.632  1.6225 -3.4787  0.2108
  176MOL   H10035450   3.818   4.272   3.578  0.7780 -2.2644 -0.4976
  176MOL   H10135451   3.788   4.283   3.843 -2.2659  0.0271 -1.1631
  176MOL   C10235452   3.865   4.467   3.808 -0.0835 -0.0949  0.3886
  176MOL   O10335453   3.911   4.547   3.724  0.8370  0.6781 -0.2724
  176MOL   C10435454   3.833   4.517   3.946  0.1446 -0.4038  0.2643
  176MOL   C10535455   3.926   4.637   3.984  0.1982 -0.1324 -0.3645
  176MOL   N10635456   3.896   4.699   4.113 -0.2392 -0.0798 -0.2068
  176MOL   H10735457   3.852   4.434   4.014  0.3902 -0.4486  0.1419
  176MOL   H10835458   3.729   4.545   3.958  0.6154  0.7071  2.0261
  176MOL   H10935459   4.025   4.592   3.975  0.0430 -0.8382  1.3400
  176MOL   H11035460   3.908   4.721   3.916 -1.9272  0.2388  0.6041
  176MOL   H11135461   3.943   4.669   4.198  0.2145  0.4760 -0.2567
  176MOL   C11235462   3.815   4.799   4.137  0.4197 -0.1844  0.4627
  176MOL   O11335463   3.751   4.855   4.045 -0.1560  0.3578  0.1860
  176MOL   C11435464   3.804   4.846   4.285  0.0722  0.4333  0.4342
  176MOL   C11535465   3.868   4.982   4.318 -0.9199 -0.1926 -0.3958
  176MOL   N11635466   4.008   4.960   4.378 -0.1640  0.4106 -0.2579
  176MOL   H11735467   3.844   4.766   4.348  0.5597 -0.8959 -1.5126
  176MOL   H11835468   3.699   4.852   4.312 -0.1774 -2.6303  0.3198
  176MOL   H11935469   3.879   5.045   4.230 -0.2889  0.2517 -0.0057
  176MOL   H12035470   3.807   5.034   4.392  2.3109  1.7317  1.0448
  176MOL   H12135471   4.008   4.955   4.478 -1.7012  2.7871 -0.1035
  176MOL   C12235472   4.118   4.951   4.301 -0.9482  0.2694 -0.1991
  176MOL   O12335473   4.109   4.934   4.181  0.4467 -0.5701 -0.1107
  176MOL   C12435474   4.250   4.961   4.374  0.1998  0.1302 -0.6330
  176MOL   C12535475   4.380   4.982   4.286  0.0182 -0.2261 -0.6746
  176MOL   N12635476   4.386   5.110   4.212 -0.4945 -0.5581  0.1949
  176MOL   H12735477   4.261   4.868   4.430  2.9509  1.0470  0.4326
  176MOL   H12835478   4.250   5.045   4.444 -1.9129  0.0429 -0.5074
  176MOL   H12935479   4.470   4.976   4.348 -1.5455 -0.1455  1.6688
  176MOL   H13035480   4.379   4.895   4.221 -0.4026 -0.2713 -0.6100
  176MOL   H13135481   4.344   5.113   4.120  0.3059 -0.9792 -0.1867
  176MOL   C13235482   4.463   5.219   4.232  0.1691 -0.2990  0.3766
  176MOL   O13335483   4.533   5.232   4.332 -0.5561  0.0840 -0.3723
  176MOL   C13435484   4.448   5.335   4.133 -0.2028  0.7987 -0.0788
  176MOL   C13535485   4.455   5.466   4.201  0.2453 -0.6139 -0.2561
  176MOL   N13635486   4.368   5.566   4.140 -0.0012 -0.2554 -0.3055
  176MOL   H13735487   4.359   5.316   4.073 -0.5111  2.5693 -0.1845
  176MOL   H13835488   4.524   5.334   4.055  1.2310 -0.0479  1.2926
  176MOL   H13935489   4.421   5.449   4.303  0.4189  2.9154  0.4400
  176MOL   H14035490   4.557   5.504   4.202 -0.5646  1.6364  1.6522
  176MOL   H14135491   4.327   5.554   4.048 -0.2375  2.3668 -0.5640
  176MOL   C14235492   4.314   5.664   4.205  0.2824 -0.0002  0.5332
  176MOL   O14335493   4.348   5.699   4.322  0.5236 -0.1743 -0.1007
  176MOL   C14435494   4.207   5.741   4.133  0.3207  0.1417  0.6298
  176MOL   C14535495   4.239   5.887   4.104 -0.6121  0.6754  0.6167
  176MOL   N14635496   4.135   5.964   4.033 -0.9121  0.4205  0.5399
  176MOL   H14735497   4.116   5.731   4.192 -0.2617  2.2443  0.1139
  176MOL   H14835498   4.205   5.690   4.036  1.5078 -0.5129  0.9406
  176MOL   H14935499   4.277   5.946   4.187 -1.1898  0.3686  1.1041
  176MOL   H15035500   4.310   5.885   4.021  2.1464  1.0739  2.9016
  176MOL   H15135501   4.097   5.940   3.943  2.0542 -1.2422 -0.3335
  176MOL   C15235502   4.078   6.077   4.083  0.4960  0.6526  0.1172
  176MOL   O15335503   4.131   6.133   4.180  0.1960 -0.4172  0.3870
  176MOL   C15435504   3.956   6.133   4.011 -0.0754  0.4068 -0.9319
  176MOL   C15535505   3.830   6.099   4.088  0.0593  0.2299 -0.1032
  176MOL   N15635506   3.710   6.171   4.035 -0.1428 -0.7314  0.5382
  176MOL   H15735507   3.955   6.095   3.909 -0.4202 -0.5691 -0.5623
  176MOL   H15835508   3.962   6.237   3.979  0.3411  0.3429 -1.0608
  176MOL   H15935509   3.807   5.992   4.089  0.8192  0.0702  1.0022
  176MOL   H16035510   3.830   6.115   4.196 -1.3539  1.0364 -0.2144
  176MOL   H16135511   3.671   6.141   3.946 -1.0512  2.1417 -0.0877
  176MOL   C16235512   3.661   6.290   4.080  1.0855 -0.2789  0.0533
  176MOL   O16335513   3.704   6.350   4.184  0.2014  0.7092  0.0140
  176MOL   C16435514   3.549   6.349   3.990  0.3634  0.2520  0.2653
  176MOL   C16535515   3.448   6.436   4.063 -0.4088  0.7692 -0.0626
  176MOL   N16635516   3.312   6.424   4.010 -0.1267 -0.5699  0.3791
  176MOL   H16735517   3.498   6.262   3.949 -2.1915  1.7681  0.1466
  176MOL   H16835518   3.601   6.396   3.907  2.4522 -0.3886  1.1631
  176MOL   H16935519   3.458   6.415   4.169  1.7837 -2.7709 -0.8706
  176MOL   H17035520   3.469   6.543   4.061  1.2604  0.4732  1.3583
  176MOL   H17135521   3.293   6.432   3.911 -1.0197  1.4251  0.6863
  176MOL   C17235522   3.202   6.404   4.083 -0.8775 -0.5719  0.8134
  176MOL   O17335523   3.205   6.407   4.205  0.1699 -0.1198 -0.6821
  176MOL   C17435524   3.066   6.388   4.001 -0.4979  0.6570  0.1406
  176MOL   C17535525   2.949   6.471   4.066 -0.3286  0.5749  0.2198
  176MOL   N17635526   2.951   6.613   4.034 -0.1614 -0.5421  0.7356
  176MOL   H17735527   3.049   6.280   4.004  0.2435  0.5424  0.6411
  176MOL   H17835528   3.095   6.419   3.901  1.0336 -0.6470  0.1491
  176MOL   H17935529   2.858   6.419   4.036  0.1238  0.2968 -0.6750
  176MOL   H18035530   2.944   6.452   4.174 -0.5242 -1.0307 -0.0584
  176MOL   H18135531   3.008   6.626   3.952 -1.9942 -0.0333 -0.4974
  176MOL   C18235532   2.871   6.708   4.081  0.3542  0.3716 -0.2573
  176MOL   O18335533   2.789   6.682   4.163  0.3777 -0.3025 -0.0033
  176MOL   C18435534   2.864   6.848   4.014  0.2272 -0.0550  0.1070
  176MOL   C18535535   2.723   6.901   3.993 -0.3880  0.4845 -0.4907
  176MOL   N18635536   2.680   6.852   3.864  0.3664 -0.2843 -0.2940
  176MOL   H18735537   2.909   6.838   3.915  1.4347  1.1836  0.5114
  176MOL   H18835538   2.921   6.916   4.077 -0.5654  0.5314  0.1925
  176MOL   H18935539   2.652   6.880   4.073  0.7239  1.4088  0.7706
  176MOL   H19035540   2.728   7.010   3.995  0.7634  0.4312 -0.1971
  176MOL   H19135541   2.747   6.797   3.811  0.6556  0.1269 -0.3630
  176MOL   C19235542   2.561   6.868   3.808 -0.2149  0.1544  0.5062
  176MOL   O19335543   2.468   6.932   3.866 -0.0402 -0.0766  0.5129
  176MOL   C19435544   2.544   6.797   3.668  0.3126 -0.3549  0.0511
  176MOL   C19535545   2.540   6.901   3.561 -0.2170 -0.4203  0.4000
  176MOL   N19635546   2.569   6.843   3.433 -0.6829  0.5413 -0.8084
  176MOL   H19735547   2.633   6.734   3.657 -0.6757 -2.1887  2.3675
  176MOL   H19835548   2.457   6.731   3.664  1.5760 -2.0360 -0.2718
  176MOL   H19935549   2.439   6.942   3.551 -0.2644 -0.8033 -0.8716
  176MOL   H20035550   2.607   6.985   3.573 -0.3969 -0.3326  0.8098
  176MOL   H20135551   2.556   6.744   3.445 -0.0225  0.2297 -2.5756
  176MOL   H20235552   2.501   6.869   3.363 -0.9167  1.5525 -0.2185
  177MOL     C135553   5.592   0.413   3.181  0.4036  0.2105 -0.7018
  177MOL     O235554   5.472   0.406   3.210 -0.2862 -0.1562 -0.1598
  177MOL     C335555   5.643   0.498   3.057  0.1992  0.7442 -0.0682
  177MOL     C435556   5.650   0.424   2.922 -0.6127  0.7669 -0.3614
  177MOL     N535557   5.767   0.330   2.916  0.0657 -0.2637  0.1600
  177MOL     H635558   5.742   0.532   3.088  0.8047 -0.9169 -0.1311
  177MOL     H735559   5.579   0.586   3.050 -0.7480  0.0585 -0.0540
  177MOL     H835560   5.651   0.493   2.838 -2.1165  1.3984  0.1178
  177MOL     H935561   5.563   0.358   2.917 -0.0774 -0.0750  1.0959
  177MOL    H1035562   5.759   0.238   2.957  0.3409 -0.7621 -0.8911
  177MOL    H1135563   5.669   0.364   3.241 -1.7724 -0.2478  1.8056
  177MOL    C1235564   5.890   0.366   2.888  0.4716 -0.5505 -0.1312
  177MOL    O1335565   5.913   0.488   2.863 -0.0860  0.3645  0.6083
  177MOL    C1435566   5.997   0.260   2.890 -0.4751  0.0561  0.4830
  177MOL    C1535567   6.105   0.280   2.777 -0.4834  0.3450  0.4765
  177MOL    N1635568   6.180   0.159   2.753 -0.6627 -0.3058  0.3324
  177MOL    H1735569   5.952   0.162   2.873 -1.1442  0.6161 -1.0172
  177MOL    H1835570   6.050   0.244   2.984 -0.1102  0.4272  0.3405
  177MOL    H1935571   6.057   0.308   2.683  0.0565 -0.8807 -0.1822
  177MOL    H2035572   6.166   0.365   2.805  0.2663  0.0773 -0.3274
  177MOL    H2135573   6.203   0.102   2.833  2.0620  5.0763  3.7027
  177MOL    C2235574   6.221   0.111   2.635  0.1385  0.2878  0.3804
  177MOL    O2335575   6.185   0.157   2.532 -0.1823  0.0312 -0.1697
  177MOL    C2435576   6.320   7.777   2.652 -0.4094 -0.2166 -0.0610
  177MOL    C2535577   6.468   0.036   2.688  0.8706 -0.3324  0.6458
  177MOL    N2635578   6.540   0.118   2.588  0.1947  0.3107  0.0605
  177MOL    H2735579   6.321   7.713   2.564  1.5016 -0.1450 -0.1149
  177MOL    H2835580   6.275   7.713   2.727 -1.3081  0.6277  0.1330
  177MOL    H2935581   6.471   0.091   2.783  0.6637 -1.2492  1.1891
  177MOL    H3035582   6.525   7.724   2.703 -0.1992 -1.4416 -1.8936
  177MOL    H3135583   6.479   0.142   2.511  1.0663  1.1153 -0.3859
  177MOL    C3235584   6.669   0.153   2.594 -0.0577  0.2715 -0.0123
  177MOL    O3335585   6.746   0.110   2.679  0.1246  0.2487 -0.0846
  177MOL    C3435586   6.716   0.251   2.486 -0.0008  0.0647 -0.1768
  177MOL    C3535587   6.797   0.375   2.538  0.3579 -0.1128  0.1876
  177MOL    N3635588   6.718   0.470   2.620  0.3797  0.3087  0.3021
  177MOL    H3735589   6.635   0.286   2.422 -2.0780  2.9300  3.8232
  177MOL    H3835590   6.788   0.196   2.426  0.7122  1.9903 -1.1385
  177MOL    H3935591   6.873   0.340   2.607  0.0851 -0.4721  0.3098
  177MOL    H4035592   6.853   0.431   2.464 -2.7866 -0.2401 -2.3752
  177MOL    H4135593   6.709   0.449   2.718  2.4925  1.1786  0.6976
  177MOL    C4235594   6.641   0.572   2.585 -0.0184  0.4184 -0.4236
  177MOL    O4335595   6.634   0.618   2.474  0.5463  0.6901 -0.1256
  177MOL    C4435596   6.545   0.615   2.700  0.3356  0.3876  0.5218
  177MOL    C4535597   6.603   0.742   2.772 -0.9057  0.5129  0.0069
  177MOL    N4635598   6.708   0.706   2.872  0.4893  0.7104 -1.0200
  177MOL    H4735599   6.453   0.629   2.643  1.1992  1.0817 -0.7397
  177MOL    H4835600   6.523   0.541   2.777 -0.9900  0.1062 -0.1153
  177MOL    H4935601   6.651   0.795   2.689 -1.1943 -2.0634 -1.8583
  177MOL    H5035602   6.522   0.801   2.815 -3.4547 -1.8497 -1.3627
  177MOL    H5135603   6.673   0.679   2.962  2.3477  0.5680 -0.3349
  177MOL    C5235604   6.842   0.712   2.865  0.2798  0.0941  0.3527
  177MOL    O5335605   6.895   0.755   2.759  0.8152  0.0298  0.2293
  177MOL    C5435606   6.932   0.677   2.981  0.2925  0.1716 -0.6217
  177MOL    C5535607   6.903   0.540   3.036  0.4765  1.1335  0.1067
  177MOL    N5635608   6.938   0.429   2.945 -0.3706  0.0424  0.1385
  177MOL    H5735609   7.034   0.701   2.950  0.2795 -2.7473 -3.1554
  177MOL    H5835610   6.917   0.744   3.066 -1.0484 -0.3810 -0.4142
  177MOL    H5935611   6.798   0.520   3.059  0.4774  0.7965 -0.1778
  177MOL    H6035612   6.957   0.528   3.129  1.2652 -1.8954 -0.7021
  177MOL    H6135613   6.860   0.372   2.915 -0.4146  0.2224 -0.1006
  177MOL    C6235614   7.061   0.384   2.930 -0.7455  0.2192 -0.0816
  177MOL    O6335615   7.159   0.443   2.978  0.2047 -0.3654 -0.1621
  177MOL    C6435616   7.063   0.266   2.838 -0.0552  0.4275  0.5978
  177MOL    C6535617   7.184   0.247   2.743  0.1106  0.0445  0.1549
  177MOL    N6635618   7.140   0.260   2.602  0.1834  0.2707  0.1513
  177MOL    H6735619   7.078   0.184   2.908 -0.8458  0.1068  0.3986
  177MOL    H6835620   6.969   0.247   2.786  0.1133  2.6369 -0.5844
  177MOL    H6935621   7.264   0.318   2.763  0.5143 -0.0458 -1.1397
  177MOL    H7035622   7.223   0.146   2.755  0.6034  0.0381 -1.4642
  177MOL    H7135623   7.168   0.346   2.557  2.3444 -1.0581 -1.1054
  177MOL    C7235624   7.105   0.160   2.515 -0.1780 -0.0552 -0.3626
  177MOL    O7335625   7.076   0.049   2.560 -0.1223 -0.2389 -0.4532
  177MOL    C7435626   7.102   0.185   2.363  0.3546  0.2170 -0.9473
  177MOL    C7535627   7.197   0.092   2.284  0.1873  0.3790  0.3482
  177MOL    N7635628   7.332   0.077   2.347  0.1643 -0.2594 -0.3141
  177MOL    H7735629   6.998   0.169   2.334  0.2093  0.2373 -0.4277
  177MOL    H7835630   7.127   0.289   2.341  0.1371  0.4985  0.1134
  177MOL    H7935631   7.150   7.775   2.269 -0.9457  1.0404 -0.4368
  177MOL    H8035632   7.209   0.128   2.182  0.8654 -1.2415 -0.1673
  177MOL    H8135633   7.361   7.764   2.374  1.5059  0.3406  0.3601
  177MOL    C8235634   7.423   0.171   2.385  0.1444 -0.3478  0.0234
  177MOL    O8335635   7.415   0.285   2.340 -0.2409  0.0890  0.3111
  177MOL    C8435636   7.537   0.137   2.474 -0.1088 -0.2599 -0.1935
  177MOL    C8535637   7.659   0.235   2.442  0.2548  0.0003  0.4678
  177MOL    N8635638   7.775   0.154   2.472 -0.0635 -0.6263  0.2914
  177MOL    H8735639   7.508   0.157   2.577 -0.1731  0.8391 -0.4116
  177MOL    H8835640   7.565   0.034   2.451 -0.4867 -0.2823 -0.5554
  177MOL    H8935641   7.678   0.265   2.339  2.6679  0.0217  0.8867
  177MOL    H9035642   7.659   0.329   2.497  1.3544  1.4026 -1.8256
  177MOL    H9135643   7.760   0.092   2.551 -0.8044 -1.0639 -0.1866
  177MOL    C9235644   0.123   0.169   2.436 -0.2543  0.8031 -0.4162
  177MOL    O9335645   0.158   0.243   2.340 -0.8763 -0.2660  0.2246
  177MOL    C9435646   0.225   0.088   2.500  0.1203 -0.2317 -0.3430
  177MOL    C9535647   0.361   0.163   2.531 -0.7690  0.0879 -0.1371
  177MOL    N9635648   0.374   0.197   2.671  0.1134 -0.6336  0.8264
  177MOL    H9735649   0.198   0.042   2.595  0.9783  1.8677  0.9339
  177MOL    H9835650   0.256   0.000   2.443  1.0867  0.8181 -1.4575
  177MOL    H9935651   0.449   0.103   2.506 -0.6285 -0.8485  2.4378
  177MOL   H10035652   0.368   0.258   2.478  0.6524  0.0711 -0.0047
  177MOL   H10135653   0.294   0.180   2.730 -0.5807 -1.9700 -0.4954
  177MOL   C10235654   0.485   0.224   2.732 -0.0680  0.1938  0.5878
  177MOL   O10335655   0.601   0.228   2.685 -0.6746 -0.5002 -0.1333
  177MOL   C10435656   0.471   0.260   2.879  0.1244  0.3006  0.3404
  177MOL   C10535657   0.478   0.145   2.980  0.0650  0.3571 -0.1102
  177MOL   N10635658   0.395   0.025   2.958  0.2162 -0.5828  0.2754
  177MOL   H10735659   0.379   0.316   2.896  0.7090  1.2356  0.4690
  177MOL   H10835660   0.546   0.333   2.909 -0.3342  1.0054 -0.2113
  177MOL   H10935661   0.579   0.106   2.990 -0.7097 -2.2219 -1.9500
  177MOL   H11035662   0.458   0.196   3.074  1.0938  1.2037 -0.3405
  177MOL   H11135663   0.438   7.719   2.929  0.7197  0.0950 -1.0697
  177MOL   C11235664   0.266   0.013   2.998 -0.1835  0.8790 -0.0930
  177MOL   O11335665   0.191   0.108   3.031  0.0181 -0.0546 -0.2523
  177MOL   C11435666   0.203   7.653   2.988  0.6131 -0.2380  0.2674
  177MOL   C11535667   0.051   7.651   2.985  0.1085 -0.1585  0.0583
  177MOL   N11635668   0.000   7.665   2.848  0.5157 -0.4975 -0.8321
  177MOL   H11735669   0.244   7.598   3.073 -0.1629  1.2784  1.6277
  177MOL   H11835670   0.256   7.615   2.900  1.3130 -0.2880  0.7054
  177MOL   H11935671   0.008   7.560   3.028 -0.3635 -0.0449 -0.1747
  177MOL   H12035672   0.002   7.726   3.047  0.6801 -1.2306  1.8557
  177MOL   H12135673   7.759   7.758   2.814  0.5098 -0.9300 -2.0618
  177MOL   C12235674   7.771   7.563   2.766 -0.1048  0.6193  0.1411
  177MOL   O12335675   0.015   7.448   2.810 -0.7421 -0.1071 -0.7285
  177MOL   C12435676   7.729   7.576   2.619  1.0252 -0.9408 -0.0137
  177MOL   C12535677   0.020   7.485   2.526 -0.2780  0.1734 -0.2994
  177MOL   N12635678   7.748   7.478   2.387  0.1888  0.3281 -0.1874
  177MOL   H12735679   7.745   7.682   2.599  3.3809 -1.6099 -1.9035
  177MOL   H12835680   7.622   7.559   2.611  0.3994  2.0779  1.2143
  177MOL   H12935681   0.127   7.508   2.535 -0.5196  0.9085  0.6836
  177MOL   H13035682   0.005   7.387   2.570  4.3242 -0.5603 -0.0695
  177MOL   H13135683   7.682   7.404   2.372 -0.8203  0.8440  1.5599
  177MOL   C13235684   7.768   7.567   2.289  0.6229  0.2047 -0.3371
  177MOL   O13335685   0.071   7.661   2.292 -0.2772 -0.4541  0.2486
  177MOL   C13435686   7.700   7.532   2.158  0.1342 -0.9927 -0.0037
  177MOL   C13535687   7.724   7.630   2.041  0.8879 -0.7906  0.0888
  177MOL   N13635688   7.676   7.766   2.074  0.0007  0.6021  0.5830
  177MOL   H13735689   7.594   7.518   2.179  0.3850 -1.0144  1.2609
  177MOL   H13835690   7.719   7.427   2.134 -2.1525 -1.7551  1.3605
  177MOL   H13935691   0.045   7.634   2.001  0.2184  1.9757 -1.4423
  177MOL   H14035692   7.664   7.587   1.961 -0.1837  0.2016  0.3504
  177MOL   H14135693   7.666   0.006   2.172 -0.4316  0.0762  0.6473
  177MOL   C14235694   7.671   0.087   1.989  0.1447 -0.2469 -0.3889
  177MOL   O14335695   7.714   0.085   1.872 -0.0822 -0.1564  0.5389
  177MOL   C14435696   7.612   0.215   2.046  0.1163 -0.1093 -0.1552
  177MOL   C14535697   7.569   0.321   1.943 -0.5498  0.0531  0.0217
  177MOL   N14635698   7.440   0.377   1.979  0.8692  1.0740  0.2562
  177MOL   H14735699   7.682   0.264   2.114  0.5296  0.8073 -1.2198
  177MOL   H14835700   7.528   0.181   2.106 -0.1875 -1.9299 -1.5581
  177MOL   H14935701   7.650   0.394   1.935  0.2738 -0.7567  0.8439
  177MOL   H15035702   7.560   0.273   1.846  0.3781  0.2199 -0.1555
  177MOL   H15135703   7.439   0.473   2.012  0.5206  0.0559  3.3579
  177MOL   C15235704   7.320   0.325   1.951  0.4247 -0.5770  0.8214
  177MOL   O15335705   7.315   0.214   1.894  0.2099 -0.1919  0.5816
  177MOL   C15435706   7.203   0.414   1.986 -0.4734 -0.4703  0.1155
  177MOL   C15535707   7.066   0.351   1.966 -0.7203  0.5961 -0.4240
  177MOL   N15635708   7.005   0.363   1.835  0.4510 -0.1768  0.1651
  177MOL   H15735709   7.207   0.498   1.917  1.0457 -0.9047 -0.3532
  177MOL   H15835710   7.227   0.458   2.083 -3.1031  1.8418 -0.2101
  177MOL   H15935711   7.057   0.248   2.002  1.2997  0.5571 -0.0024
  177MOL   H16035712   7.001   0.399   2.039 -0.8148  1.5952 -1.1662
  177MOL   H16135713   7.039   0.295   1.768  0.7106 -0.2533  0.3745
  177MOL   C16235714   6.895   0.436   1.806 -0.3064 -0.5846 -0.8571
  177MOL   O16335715   6.843   0.511   1.895  0.0134 -1.0749 -0.0549
  177MOL   C16435716   6.834   0.437   1.665  0.0100 -0.4604 -0.5572
  177MOL   C16535717   6.834   0.575   1.602 -0.6541 -0.9297  0.3082
  177MOL   N16635718   6.966   0.640   1.587 -0.3401 -0.4684  0.5364
  177MOL   H16735719   6.736   0.389   1.658  0.4257 -1.2999 -0.6723
  177MOL   H16835720   6.884   0.368   1.598 -0.7955 -1.3874 -0.2316
  177MOL   H16935721   6.791   0.575   1.502  0.7581  0.4320 -0.3201
  177MOL   H17035722   6.775   0.635   1.671  1.8594  2.8744 -0.7007
  177MOL   H17135723   6.986   0.700   1.666 -0.4550 -1.6840  1.5040
  177MOL   C17235724   7.046   0.639   1.478  0.1369  0.3416  0.3651
  177MOL   O17335725   7.033   0.569   1.380 -0.0643  0.6329  0.0660
  177MOL   C17435726   7.167   0.737   1.478  0.1002  0.1217  0.2674
  177MOL   C17535727   7.122   0.873   1.431 -0.2854 -0.2337  0.1831
  177MOL   N17635728   7.196   0.979   1.498  0.0969 -0.4945 -0.2125
  177MOL   H17735729   7.245   0.700   1.412  0.1427  1.2776 -0.3311
  177MOL   H17835730   7.197   0.739   1.583  1.6422  0.1745 -0.1588
  177MOL   H17935731   7.137   0.884   1.324  2.2974 -0.6839  0.4774
  177MOL   H18035732   7.018   0.896   1.456 -0.6801 -0.4211 -1.2511
  177MOL   H18135733   7.136   1.051   1.534  0.6782 -1.4113  2.6796
  177MOL   C18235734   7.327   0.993   1.504  0.1729 -0.4020  0.4870
  177MOL   O18335735   7.403   0.917   1.435 -0.0638 -0.1991  0.3270
  177MOL   C18435736   7.384   1.123   1.560 -0.2034  0.4768 -0.1284
  177MOL   C18535737   7.510   1.106   1.640  0.2023 -0.4391  0.2432
  177MOL   N18635738   7.584   1.232   1.638 -0.1888  0.7056  0.5004
  177MOL   H18735739   7.309   1.169   1.624 -0.7873 -0.3069 -0.2423
  177MOL   H18835740   7.395   1.183   1.470 -1.3492 -1.1496 -1.3661
  177MOL   H18935741   7.476   1.086   1.742  1.6294 -0.8543  0.6578
  177MOL   H19035742   7.568   1.020   1.605  2.1117  0.0130  2.1605
  177MOL   H19135743   7.561   1.294   1.562 -3.4176 -0.6845  0.2438
  177MOL   C19235744   7.690   1.263   1.717  0.0612  0.7612 -0.1620
  177MOL   O19335745   7.747   1.185   1.796 -0.7327  0.3552  0.3804
  177MOL   C19435746   7.740   1.402   1.695 -0.0771  0.1881 -0.9058
  177MOL   C19535747   0.093   1.439   1.769 -0.7646  0.4355 -0.0824
  177MOL   N19635748   0.220   1.370   1.742  0.1277 -0.8593  0.3693
  177MOL   H19735749   7.763   1.410   1.588  0.5339  0.6719 -0.7464
  177MOL   H19835750   7.659   1.473   1.707  1.8083  2.3092 -0.3671
  177MOL   H19935751   0.100   1.547   1.757 -0.3621  0.3824 -0.3253
  177MOL   H20035752   0.083   1.420   1.876 -2.0471  1.0683 -0.0815
  177MOL   H20135753   0.211   1.271   1.759 -0.5746 -0.7289  0.7812
  177MOL   H20235754   0.296   1.399   1.801  0.3998 -1.1785  0.1737
  178MOL     C135755   6.556   7.030   3.466  0.5739  0.4177 -0.4975
  178MOL     O235756   6.596   7.098   3.557  1.0743  0.1182  0.3058
  178MOL     C335757   6.444   7.077   3.376  0.1910 -0.2106 -0.5468
  178MOL     C435758   6.410   7.231   3.387  0.2708 -0.4672 -0.2827
  178MOL     N535759   6.280   7.261   3.453  0.9227  0.4111 -0.3273
  178MOL     H635760   6.348   7.028   3.394  0.5234 -0.7085 -0.1238
  178MOL     H735761   6.479   7.054   3.276  0.2171 -0.7420 -0.4171
  178MOL     H835762   6.415   7.276   3.288  0.6325  1.3499  0.5435
  178MOL     H935763   6.484   7.289   3.442 -1.6600  1.0919  0.7189
  178MOL    H1035764   6.258   7.186   3.518  0.6966  0.1739 -0.6729
  178MOL    H1135765   6.594   6.930   3.443  1.2117  0.4030  0.5892
  178MOL    C1235766   6.199   7.367   3.437  0.4751  0.4268  0.0216
  178MOL    O1335767   6.231   7.460   3.357 -0.0478  0.4382 -0.1256
  178MOL    C1435768   6.081   7.379   3.536 -0.2528 -0.0547  0.1937
  178MOL    C1535769   5.978   7.487   3.501  0.6123 -0.8036  0.0273
  178MOL    N1635770   5.846   7.459   3.546  0.6036  0.4094 -0.3363
  178MOL    H1735771   6.130   7.409   3.628 -0.4559  0.7000  0.0549
  178MOL    H1835772   6.035   7.282   3.558 -1.4967  0.3000 -0.7788
  178MOL    H1935773   6.019   7.579   3.543  0.2660 -1.8021  2.6663
  178MOL    H2035774   5.959   7.504   3.395 -0.3797 -1.3315  0.1138
  178MOL    H2135775   5.833   7.414   3.636 -1.6119  3.1672  0.7871
  178MOL    C2235776   5.735   7.492   3.485  0.3924  0.1439  0.0694
  178MOL    O2335777   5.730   7.548   3.381 -0.0224  0.2253  0.0195
  178MOL    C2435778   5.600   7.468   3.547  0.3049  0.6179  0.5596
  178MOL    C2535779   5.519   7.357   3.479 -0.4817  0.1108 -0.0152
  178MOL    N2635780   5.477   7.389   3.344 -0.5007  0.3010  0.2345
  178MOL    H2735781   5.547   7.562   3.560 -0.7066  0.3764 -1.5679
  178MOL    H2835782   5.610   7.434   3.650 -2.4345 -1.8917  0.0849
  178MOL    H2935783   5.587   7.273   3.467 -0.5264  0.0431  0.2050
  178MOL    H3035784   5.432   7.328   3.538 -2.0616  3.6301 -0.4784
  178MOL    H3135785   5.499   7.481   3.308  1.2712 -1.0002 -2.1821
  178MOL    C3235786   5.421   7.303   3.263 -0.1099  0.4104  0.5739
  178MOL    O3335787   5.360   7.204   3.301  0.9973  0.3815  0.3827
  178MOL    C3435788   5.434   7.336   3.116  0.5796  0.0482 -0.3837
  178MOL    C3535789   5.416   7.218   3.018  0.1101  0.5555 -0.1826
  178MOL    N3635790   5.512   7.212   2.911 -0.0387 -0.1093 -0.2928
  178MOL    H3735791   5.527   7.392   3.104 -0.2001  1.4851  0.1810
  178MOL    H3835792   5.360   7.410   3.087 -0.4310 -0.0907  1.7608
  178MOL    H3935793   5.441   7.126   3.071 -1.6735 -0.0522 -0.3749
  178MOL    H4035794   5.316   7.215   2.975 -0.6104 -1.1922  1.5252
  178MOL    H4135795   5.591   7.150   2.920 -0.2237 -0.2693  0.2279
  178MOL    C4235796   5.486   7.260   2.788  0.1226  0.2445 -0.1924
  178MOL    O4335797   5.381   7.320   2.764 -0.2464 -0.4884  0.2128
  178MOL    C4435798   5.609   7.245   2.691 -0.5423  0.2080 -0.0523
  178MOL    C4535799   5.608   7.359   2.597  0.1018  0.2955 -0.4317
  178MOL    N4635800   5.717   7.357   2.506 -0.2068  0.7447  0.4609
  178MOL    H4735801   5.702   7.249   2.747  0.4718  0.5497 -1.7275
  178MOL    H4835802   5.594   7.160   2.625 -0.0346  0.6518 -0.7391
  178MOL    H4935803   5.510   7.372   2.551 -0.5809  1.9447  1.4317
  178MOL    H5035804   5.626   7.453   2.649  2.3791 -0.7821  0.8022
  178MOL    H5135805   5.796   7.418   2.523 -1.3308  2.3645 -0.0285
  178MOL    C5235806   5.724   7.303   2.385  1.2414  0.2614  0.1742
  178MOL    O5335807   5.644   7.228   2.335 -0.2734  0.0641 -0.4664
  178MOL    C5435808   5.851   7.333   2.314  0.2222  0.0917 -0.4854
  178MOL    C5535809   5.888   7.244   2.194  0.9127  0.3066  0.0216
  178MOL    N5635810   5.974   7.132   2.233 -0.1580 -0.1870  0.1328
  178MOL    H5735811   5.825   7.429   2.269  0.7120  0.2084 -0.5280
  178MOL    H5835812   5.941   7.362   2.368 -0.2354  0.9701 -0.1925
  178MOL    H5935813   5.936   7.314   2.125  0.2864  1.3603  0.6341
  178MOL    H6035814   5.802   7.205   2.141  0.7767  0.7498 -0.0842
  178MOL    H6135815   5.936   7.038   2.233 -0.3865 -0.1197 -1.8099
  178MOL    C6235816   6.105   7.145   2.256 -0.4428 -0.3796 -0.7783
  178MOL    O6335817   6.161   7.257   2.269  0.6868  0.4766 -0.1138
  178MOL    C6435818   6.183   7.018   2.251  0.0130 -0.3257 -1.1260
  178MOL    C6535819   6.237   6.969   2.387  0.4115  0.3524  0.0709
  178MOL    N6635820   6.131   6.922   2.473  0.0235 -0.0874  0.6346
  178MOL    H6735821   6.128   6.942   2.196 -1.7857  0.7047 -0.7923
  178MOL    H6835822   6.273   7.042   2.194 -0.1220  2.0135 -0.4079
  178MOL    H6935823   6.313   6.892   2.379 -0.6390 -0.8184  1.1216
  178MOL    H7035824   6.293   7.052   2.431 -0.1338 -0.6446  2.7901
  178MOL    H7135825   6.046   6.878   2.444 -1.0567  1.6423  1.1162
  178MOL    C7235826   6.141   6.929   2.606 -0.1726  0.7140  0.6123
  178MOL    O7335827   6.215   7.008   2.664  0.3341  0.1967  0.2452
  178MOL    C7435828   6.049   6.840   2.681  0.4194  0.1458  0.0838
  178MOL    C7535829   5.931   6.923   2.743 -0.5219 -0.6715 -0.5736
  178MOL    N7635830   5.843   6.840   2.821  0.0530 -0.2746 -0.0462
  178MOL    H7735831   6.018   6.760   2.614 -1.8494  1.3947 -0.4405
  178MOL    H7835832   6.103   6.798   2.765 -0.0655 -1.8780 -0.5966
  178MOL    H7935833   5.969   7.005   2.803  1.0879 -1.3670 -0.6371
  178MOL    H8035834   5.875   6.975   2.664 -1.9002 -1.3518 -0.0691
  178MOL    H8135835   5.865   6.742   2.834 -0.3899 -0.4796 -0.8370
  178MOL    C8235836   5.730   6.881   2.874  0.4085  0.2273 -0.6359
  178MOL    O8335837   5.684   6.994   2.864 -0.2437 -0.8844 -0.6412
  178MOL    C8435838   5.653   6.775   2.952  0.3906  0.1303 -0.7466
  178MOL    C8535839   5.508   6.784   2.931 -0.2467  0.5321 -0.6096
  178MOL    N8635840   5.418   6.693   3.008 -0.0036  0.0126  0.0946
  178MOL    H8735841   5.689   6.674   2.935  0.9691  0.2935 -0.5056
  178MOL    H8835842   5.661   6.794   3.059 -1.4765 -0.4867 -0.4658
  178MOL    H8935843   5.472   6.883   2.959 -0.0853  0.0648  1.3389
  178MOL    H9035844   5.489   6.778   2.824  0.0551  0.1541 -0.6462
  178MOL    H9135845   5.452   6.642   3.088  0.9801  0.2528 -0.1746
  178MOL    C9235846   5.321   6.624   2.948  0.3897  0.0324  0.4379
  178MOL    O9335847   5.291   6.642   2.825 -0.2276  0.2506  0.1795
  178MOL    C9435848   5.245   6.520   3.035 -0.1199 -1.0392 -0.2645
  178MOL    C9535849   5.124   6.575   3.116  0.0219  0.2993 -0.2583
  178MOL    N9635850   5.022   6.652   3.042  0.6585 -0.1838 -0.1434
  178MOL    H9735851   5.211   6.433   2.978  0.9267 -0.4930 -1.7387
  178MOL    H9835852   5.326   6.497   3.104 -0.8448 -1.2236  0.5272
  178MOL    H9935853   5.076   6.494   3.171  1.0508  0.6085  1.1143
  178MOL   H10035854   5.149   6.648   3.193  0.0100  0.9453 -0.8569
  178MOL   H10135855   5.001   6.746   3.073  0.9096 -0.0628 -0.3411
  178MOL   C10235856   4.940   6.607   2.948  0.0828 -0.3742 -0.9012
  178MOL   O10335857   4.942   6.494   2.906 -0.6883  0.6201  0.1716
  178MOL   C10435858   4.831   6.698   2.892  0.0516 -0.1487 -0.6733
  178MOL   C10535859   4.860   6.773   2.758  0.1368 -0.2957 -0.1389
  178MOL   N10635860   4.803   6.906   2.749  0.5694  0.3597 -0.1364
  178MOL   H10735861   4.816   6.781   2.962  0.6497 -0.2540 -0.4179
  178MOL   H10835862   4.737   6.644   2.881 -0.7818  0.3500  3.0294
  178MOL   H10935863   4.967   6.786   2.743  0.1711  1.2316  1.2383
  178MOL   H11035864   4.823   6.713   2.675  0.6604 -0.9081  0.0633
  178MOL   H11135865   4.869   6.983   2.745 -0.6868  1.4252 -0.6678
  178MOL   C11235866   4.674   6.935   2.746  0.6036 -0.3054 -0.1298
  178MOL   O11335867   4.588   6.854   2.732 -0.3512 -0.3449  0.6067
  178MOL   C11435868   4.641   7.081   2.747 -0.4639 -0.5941  0.0219
  178MOL   C11535869   4.514   7.127   2.675  0.0254 -0.1386 -0.1398
  178MOL   N11635870   4.469   7.265   2.707 -0.0818  0.3572  1.1854
  178MOL   H11735871   4.728   7.141   2.720 -1.2856  0.1115 -1.0927
  178MOL   H11835872   4.621   7.104   2.852 -0.1400 -0.0146 -0.0415
  178MOL   H11935873   4.528   7.124   2.567  1.8492  1.2974  0.0278
  178MOL   H12035874   4.432   7.060   2.700  0.1661 -0.2255  0.0884
  178MOL   H12135875   4.388   7.280   2.765  0.1130  0.3366  1.4630
  178MOL   C12235876   4.538   7.377   2.672 -0.4350  0.8151  0.7524
  178MOL   O12335877   4.651   7.385   2.621 -0.2864 -0.5437 -0.1593
  178MOL   C12435878   4.453   7.495   2.711  0.6086 -0.2153  0.7321
  178MOL   C12535879   4.400   7.585   2.605 -0.6683  0.2244  0.5199
  178MOL   N12635880   4.299   7.522   2.519  0.5145 -0.3570 -0.3543
  178MOL   H12735881   4.525   7.546   2.775  0.0096 -0.7640  1.8517
  178MOL   H12835882   4.370   7.466   2.776 -0.7550 -0.9701 -1.2730
  178MOL   H12935883   4.351   7.672   2.649 -1.1570 -0.3825  1.2039
  178MOL   H13035884   4.479   7.615   2.536 -1.0102  1.5047  0.6743
  178MOL   H13135885   4.322   7.491   2.426 -0.2472  0.4406 -0.8132
  178MOL   C13235886   4.171   7.511   2.560 -0.1308 -0.4325 -0.1842
  178MOL   O13335887   4.135   7.558   2.668  0.1641  0.0872  0.4020
  178MOL   C13435888   4.093   7.421   2.468  0.0067  0.1750  0.3540
  178MOL   C13535889   3.953   7.388   2.523  0.1789 -0.6916 -0.1586
  178MOL   N13635890   3.946   7.256   2.592 -0.3663 -0.2568 -0.1037
  178MOL   H13735891   4.159   7.338   2.447  0.0801  0.2512  0.2907
  178MOL   H13835892   4.087   7.472   2.372 -0.6141 -0.8733 -0.1715
  178MOL   H13935893   3.905   7.458   2.591 -0.0144  0.2281 -1.2214
  178MOL   H14035894   3.887   7.392   2.436 -0.2610 -2.7018  0.0630
  178MOL   H14135895   3.998   7.179   2.552  1.4689  1.5320 -1.2962
  178MOL   C14235896   3.853   7.218   2.678  0.5193  0.1484  0.8972
  178MOL   O14335897   3.757   7.286   2.709  0.0801 -0.0359  0.5258
  178MOL   C14435898   3.885   7.069   2.718  0.1461 -0.3506  0.5262
  178MOL   C14535899   3.795   7.023   2.836 -0.0107 -0.1214  0.5717
  178MOL   N14635900   3.838   7.064   2.968  0.0252 -0.0500  0.0997
  178MOL   H14735901   3.989   7.042   2.733  1.2898  1.9805 -2.7487
  178MOL   H14835902   3.860   7.012   2.628  0.2313 -1.6956  1.3369
  178MOL   H14935903   3.693   7.061   2.829  0.5117  1.2619  0.3091
  178MOL   H15035904   3.794   6.915   2.843  0.7461 -0.0082  2.7947
  178MOL   H15135905   3.922   7.120   2.968 -1.0928  1.6519  0.0637
  178MOL   C15235906   3.782   7.036   3.089 -0.3368  0.2873  0.6210
  178MOL   O15335907   3.682   6.966   3.089  0.3041  0.0375 -0.4856
  178MOL   C15435908   3.831   7.095   3.214 -0.5768  0.3616  0.1153
  178MOL   C15535909   3.770   7.042   3.349  0.0395 -0.1345  1.2010
  178MOL   N15635910   3.836   6.919   3.385  0.8415 -0.2875 -0.0496
  178MOL   H15735911   3.818   7.201   3.195 -1.0608  0.3327  0.2828
  178MOL   H15835912   3.938   7.079   3.226 -0.4149  0.6381 -0.9128
  178MOL   H15935913   3.788   7.115   3.427 -2.2459  0.4090  1.2557
  178MOL   H16035914   3.662   7.039   3.333  0.0616 -0.2885  1.0797
  178MOL   H16135915   3.935   6.916   3.363  0.8888  0.4179  0.0574
  178MOL   C16235916   3.773   6.816   3.437 -0.5317 -0.3313 -0.1817
  178MOL   O16335917   3.656   6.800   3.456 -0.2357 -0.3399  0.0691
  178MOL   C16435918   3.859   6.693   3.469  0.3906  0.2064  0.4902
  178MOL   C16535919   3.953   6.725   3.588 -0.3251  0.6606 -0.3837
  178MOL   N16635920   3.888   6.695   3.715 -0.4688 -0.0893  0.4506
  178MOL   H16735921   3.913   6.672   3.377 -1.6076 -2.4746 -0.1269
  178MOL   H16835922   3.794   6.608   3.487 -0.5159  0.6538 -0.5888
  178MOL   H16935923   4.033   6.653   3.569 -0.5670  0.2306  0.2074
  178MOL   H17035924   3.996   6.825   3.585  2.0309 -0.3688 -2.6979
  178MOL   H17135925   3.816   6.624   3.715  0.2185 -0.7965 -0.0708
  178MOL   C17235926   3.900   6.764   3.831  0.2360 -0.1840 -0.0921
  178MOL   O17335927   3.985   6.854   3.839  0.3364 -0.7361 -0.4179
  178MOL   C17435928   3.807   6.728   3.949  0.7181  0.2284 -0.0972
  178MOL   C17535929   3.860   6.779   4.084 -0.0790 -0.1731 -0.0573
  178MOL   N17635930   3.792   6.727   4.201 -0.1346  0.0291  0.5285
  178MOL   H17735931   3.786   6.621   3.945 -0.2595  0.4533 -1.0924
  178MOL   H17835932   3.708   6.769   3.933  0.1580 -0.7879  0.6819
  178MOL   H17935933   3.964   6.753   4.103 -0.1940 -2.3080 -2.0206
  178MOL   H18035934   3.850   6.887   4.085 -0.7453 -0.2122  3.4046
  178MOL   H18135935   3.851   6.666   4.255 -1.5519  1.2307  3.5287
  178MOL   C18235936   3.666   6.753   4.245 -0.1476 -0.3161  0.3781
  178MOL   O18335937   3.594   6.825   4.175  0.0480 -0.1712  0.0638
  178MOL   C18435938   3.611   6.688   4.376 -0.5967 -0.9800  0.8600
  178MOL   C18535939   3.585   6.799   4.487  0.0180 -0.6559 -0.3258
  178MOL   N18635940   3.708   6.875   4.527 -1.2576  0.0226 -0.2010
  178MOL   H18735941   3.685   6.614   4.408 -2.0516 -2.8508 -0.0153
  178MOL   H18835942   3.512   6.644   4.373 -1.7735  1.5801  1.1806
  178MOL   H18935943   3.516   6.871   4.444  0.0541  0.3712  1.2924
  178MOL   H19035944   3.538   6.760   4.578  2.2872  2.7629  2.4498
  178MOL   H19135945   3.714   6.974   4.511 -1.0619 -0.1058 -0.9454
  178MOL   C19235946   3.822   6.821   4.573  0.5464 -0.5957 -0.1196
  178MOL   O19335947   3.830   6.700   4.602  0.2903  0.1691  0.0792
  178MOL   C19435948   3.946   6.904   4.573  0.0351  0.1679 -0.1421
  178MOL   C19535949   4.022   6.888   4.442  0.5471 -0.7871  0.2539
  178MOL   N19635950   4.099   6.767   4.417 -0.0988  0.1544 -0.0632
  178MOL   H19735951   3.921   7.008   4.592  0.2838  0.7389 -2.7146
  178MOL   H19835952   4.001   6.856   4.654  0.0526 -0.3720 -0.4658
  178MOL   H19935953   3.955   6.898   4.357 -0.5395  0.1470  1.2003
  178MOL   H20035954   4.095   6.969   4.434  0.2762 -0.6933 -1.2894
  178MOL   H20135955   4.124   6.774   4.319  1.3645 -1.6429  0.1482
  178MOL   H20235956   4.032   6.692   4.416 -1.8213  1.6577  0.9497
  179MOL     C135957   0.653   1.141   6.152 -0.1362  0.2991 -0.1938
  179MOL     O235958   0.698   1.256   6.138 -0.5220 -0.0434 -0.1448
  179MOL     C335959   0.613   1.052   6.036 -0.1823 -0.2365  0.3147
  179MOL     C435960   0.496   0.963   6.070 -0.5672 -0.0858 -0.1469
  179MOL     N535961   0.519   0.863   6.181  0.4187 -0.1424  0.2503
  179MOL     H635962   0.697   0.989   6.010 -1.1243 -1.7641  0.9194
  179MOL     H735963   0.580   1.108   5.948 -0.1191 -1.0758 -0.2432
  179MOL     H835964   0.452   0.913   5.984 -1.4380 -0.6393  0.5971
  179MOL     H935965   0.409   1.022   6.102 -0.2781 -0.0641  0.6157
  179MOL    H1035966   0.501   0.895   6.274 -3.1152 -0.6931 -0.1667
  179MOL    H1135967   0.640   1.091   6.248  1.1737 -0.1508 -0.2364
  179MOL    C1235968   0.577   0.747   6.154  0.3213 -1.0252 -0.5459
  179MOL    O1335969   0.600   0.713   6.041  0.6073  0.7277 -0.0046
  179MOL    C1435970   0.641   0.655   6.268 -0.3723 -0.7721 -1.0226
  179MOL    C1535971   0.660   0.514   6.215  0.2584  0.5936  0.4588
  179MOL    N1635972   0.797   0.485   6.160  0.1113  0.3551 -0.2678
  179MOL    H1735973   0.562   0.667   6.343 -1.0923  2.4396 -2.2013
  179MOL    H1835974   0.734   0.701   6.304  1.3066 -3.4978 -1.7481
  179MOL    H1935975   0.637   0.433   6.284 -2.0865  1.8019  1.1606
  179MOL    H2035976   0.583   0.504   6.139 -0.1225  2.0344  0.6317
  179MOL    H2135977   0.805   0.519   6.065 -0.5744  1.6829  0.1477
  179MOL    C2235978   0.888   0.407   6.216 -0.2199 -0.2517  0.0864
  179MOL    O2335979   0.869   0.356   6.324  0.2768  0.3713 -0.1870
  179MOL    C2435980   1.012   0.387   6.136  0.2694  0.1849  0.7045
  179MOL    C2535981   1.128   0.308   6.210 -0.0546 -0.2216  0.2368
  179MOL    N2635982   1.217   0.254   6.112  0.8128 -0.2547 -0.0520
  179MOL    H2735983   1.040   0.473   6.076  0.5195 -0.0116  0.5397
  179MOL    H2835984   0.979   0.311   6.065  1.3135 -0.5904  1.0468
  179MOL    H2935985   1.170   0.389   6.269  0.5960  1.2126 -2.1091
  179MOL    H3035986   1.087   0.233   6.277 -1.3050  0.7330  0.5591
  179MOL    H3135987   1.172   0.174   6.069  1.8209  0.1199 -1.8316
  179MOL    C3235988   1.346   0.282   6.110  0.0358  0.5921 -0.7006
  179MOL    O3335989   1.399   0.357   6.186 -0.0492 -0.2333 -0.1453
  179MOL    C3435990   1.433   0.209   6.009  0.3935 -1.5619  0.5984
  179MOL    C3535991   1.576   0.189   6.062  0.3394  0.0912  0.3925
  179MOL    N3635992   1.654   0.090   5.985  0.2738  0.4275 -0.1966
  179MOL    H3735993   1.423   0.265   5.916 -1.1186 -3.9418 -0.7622
  179MOL    H3835994   1.384   0.112   5.997  0.3578 -1.2746 -1.8338
  179MOL    H3935995   1.631   0.281   6.042  1.0648 -0.6589 -1.2210
  179MOL    H4035996   1.569   0.163   6.167 -2.7650 -1.1493 -0.0780
  179MOL    H4135997   1.681   0.010   6.040 -0.9209 -0.1916 -0.4892
  179MOL    C4235998   1.690   0.112   5.862  0.5146  0.2491  0.4065
  179MOL    O4335999   1.638   0.201   5.797  0.2445  0.0575 -0.6304
  179MOL    C4436000   1.805   0.032   5.803 -0.1233 -0.8973 -0.3583
  179MOL    C4536001   1.797   0.019   5.652  0.1409  0.1345  0.5071
  179MOL    N4636002   1.847   0.145   5.588 -0.1075 -0.0306 -0.3311
  179MOL    H4736003   1.896   0.074   5.847 -2.0846  1.7592  1.3063
  179MOL    H4836004   1.789   7.715   5.850  1.0010 -0.6839  0.4967
  179MOL    H4936005   1.856   7.713   5.622  0.4066 -0.2444  2.0567
  179MOL    H5036006   1.694   0.008   5.617  0.2172 -1.2720  0.6843
  179MOL    H5136007   1.941   0.172   5.615 -1.0412  0.1728  2.9589
  179MOL    C5236008   1.789   0.224   5.496 -0.0796  0.2301  0.0059
  179MOL    O5336009   1.696   0.188   5.421  0.3598 -0.3390  0.1687
  179MOL    C5436010   1.856   0.361   5.472  0.3935 -0.0294  0.4598
  179MOL    C5536011   1.849   0.448   5.602 -0.5506 -0.2046 -0.1453
  179MOL    N5636012   1.718   0.465   5.657 -0.1819 -0.3439 -0.4421
  179MOL    H5736013   1.958   0.348   5.436 -0.2825 -0.5702 -1.3188
  179MOL    H5836014   1.798   0.413   5.396 -2.7034 -0.5390  2.3632
  179MOL    H5936015   1.891   0.547   5.588  0.1755 -0.3347  1.0714
  179MOL    H6036016   1.917   0.399   5.672  1.4023  2.5876 -0.0193
  179MOL    H6136017   1.717   0.429   5.751  1.4563 -1.7911 -0.9513
  179MOL    C6236018   1.618   0.537   5.611  0.1960 -0.5908 -0.6339
  179MOL    O6336019   1.617   0.592   5.500 -0.0386  0.7463 -0.0588
  179MOL    C6436020   1.498   0.554   5.706 -0.3761 -0.2712  0.3398
  179MOL    C6536021   1.386   0.449   5.683 -0.8273  0.8599 -0.2453
  179MOL    N6636022   1.300   0.492   5.579 -0.1828 -0.0057 -0.7363
  179MOL    H6736023   1.537   0.543   5.807  0.0278 -0.6550  0.1427
  179MOL    H6836024   1.456   0.654   5.694  0.1653 -0.1690 -0.8785
  179MOL    H6936025   1.436   0.354   5.664  3.6936  2.8532  0.9982
  179MOL    H7036026   1.339   0.441   5.781 -2.0565 -0.6074 -0.9280
  179MOL    H7136027   1.329   0.473   5.484  0.0461 -2.3949 -0.2215
  179MOL    C7236028   1.177   0.549   5.589  0.8030  0.8405  0.1287
  179MOL    O7336029   1.124   0.579   5.699 -0.4911  0.2130 -0.4483
  179MOL    C7436030   1.111   0.583   5.463  0.0065  0.4226 -0.3476
  179MOL    C7536031   1.064   0.727   5.462 -0.1116 -0.2363 -0.5470
  179MOL    N7636032   0.959   0.742   5.364 -0.5387 -0.2076 -0.5614
  179MOL    H7736033   1.185   0.558   5.387 -1.6494 -2.1837 -1.1906
  179MOL    H7836034   1.029   0.512   5.448  1.3030 -0.7114 -2.3531
  179MOL    H7936035   1.015   0.753   5.556  0.7332  2.5826 -0.8205
  179MOL    H8036036   1.141   0.804   5.454 -0.3196  0.3669  2.5544
  179MOL    H8136037   0.866   0.751   5.403  0.3906 -0.6542  1.8516
  179MOL    C8236038   0.983   0.753   5.230 -0.2319  0.0818  0.2148
  179MOL    O8336039   1.094   0.757   5.180 -0.6039  0.0289  0.1715
  179MOL    C8436040   0.858   0.750   5.136  0.0995  0.5354 -0.5594
  179MOL    C8536041   0.795   0.615   5.113  0.1959 -0.0763 -0.1246
  179MOL    N8636042   0.729   0.576   5.234 -0.0398 -0.0980 -0.1706
  179MOL    H8736043   0.776   0.814   5.166  0.0687 -0.0808  0.7013
  179MOL    H8836044   0.888   0.789   5.039 -1.2730  1.2300 -0.7199
  179MOL    H8936045   0.728   0.614   5.028 -1.1137  1.2519  0.8722
  179MOL    H9036046   0.873   0.541   5.095  0.5564  0.4734 -0.8589
  179MOL    H9136047   0.670   0.646   5.279 -1.7290 -1.2962 -0.4626
  179MOL    C9236048   0.712   0.449   5.281  0.4901  0.8724  0.6576
  179MOL    O9336049   0.756   0.348   5.221 -0.5842 -0.1391 -0.0937
  179MOL    C9436050   0.617   0.430   5.399 -0.0004 -0.1989 -0.6296
  179MOL    C9536051   0.670   0.324   5.497 -0.5354 -0.0968 -0.2180
  179MOL    N9636052   0.582   0.302   5.609 -1.0204  0.1125 -0.1224
  179MOL    H9736053   0.600   0.523   5.454 -0.5190 -0.4735 -0.3182
  179MOL    H9836054   0.520   0.385   5.377 -0.9444  1.4226  0.0863
  179MOL    H9936055   0.683   0.225   5.453 -1.9140 -0.2157 -0.3691
  179MOL   H10036056   0.765   0.357   5.539  0.3613 -2.5467 -0.2911
  179MOL   H10136057   0.602   0.365   5.686 -3.3741  0.0669  0.5663
  179MOL   C10236058   0.486   0.216   5.638 -0.4338  0.2589  0.5803
  179MOL   O10336059   0.448   0.117   5.571 -0.4499 -0.0019 -0.2639
  179MOL   C10436060   0.419   0.238   5.777 -0.2872 -0.1606  0.3071
  179MOL   C10536061   0.432   0.120   5.876  0.3009 -0.1681 -0.0326
  179MOL   N10636062   0.562   0.119   5.944 -0.3104  0.2370  0.1556
  179MOL   H10736063   0.312   0.259   5.773 -0.1375  1.0175  1.9016
  179MOL   H10836064   0.455   0.330   5.824 -1.7263 -0.0619  1.2534
  179MOL   H10936065   0.352   0.124   5.950  0.5959 -0.0841  0.2827
  179MOL   H11036066   0.423   0.024   5.825 -1.6249  0.1754 -0.3946
  179MOL   H11136067   0.645   0.139   5.891 -2.7418  2.1305 -3.1713
  179MOL   C11236068   0.570   0.117   6.080 -0.6447  0.3823  0.2509
  179MOL   O11336069   0.474   0.118   6.152 -0.2124  0.5141  0.1369
  179MOL   C11436070   0.711   0.097   6.139  0.5670 -0.2373 -0.2209
  179MOL   C11536071   0.726   7.755   6.233  0.2438  0.4984 -0.1763
  179MOL   N11636072   0.858   7.760   6.289 -0.8411 -0.1196  0.2065
  179MOL   H11736073   0.726   0.190   6.195 -0.1239  0.1626 -0.6818
  179MOL   H11836074   0.791   0.095   6.065  1.0656 -1.2683  0.3337
  179MOL   H11936075   0.644   7.742   6.304  0.0137 -1.7848 -0.8287
  179MOL   H12036076   0.725   7.672   6.162  0.0413 -0.0767  0.4936
  179MOL   H12136077   0.929   7.765   6.218 -2.6789  1.2641 -1.6210
  179MOL   C12236078   0.888   7.752   6.418 -0.4693  0.3130  0.0061
  179MOL   O12336079   0.796   7.738   6.501 -0.2806  0.0145  0.8993
  179MOL   C12436080   1.041   7.754   6.453  1.0922  0.6789  0.0325
  179MOL   C12536081   1.075   7.711   6.599 -0.8974 -0.3695  0.4788
  179MOL   N12636082   1.090   7.572   6.624 -0.5873  0.0003  0.3402
  179MOL   H12736083   1.079   0.075   6.441  1.7359  0.4373  0.0148
  179MOL   H12836084   1.089   7.691   6.377  1.1537  0.3021  0.3829
  179MOL   H12936085   1.165   7.766   6.624 -0.0292 -1.0686 -1.0642
  179MOL   H13036086   1.003   7.751   6.671  0.9943  1.0535  1.6429
  179MOL   H13136087   1.065   7.507   6.551 -2.0769  0.3002  0.5546
  179MOL   C13236088   1.147   7.519   6.735  0.0578 -0.4533  0.4826
  179MOL   O13336089   1.198   7.577   6.829 -0.2181  0.6317 -0.0893
  179MOL   C13436090   1.137   7.367   6.746 -0.3588 -0.7427  0.4497
  179MOL   C13536091   1.269   7.286   6.756 -0.0032 -0.4509 -0.3522
  179MOL   N13636092   1.242   7.144   6.774 -0.4136 -0.8403  0.6346
  179MOL   H13736093   1.072   7.327   6.668 -0.7208  1.5043 -0.4475
  179MOL   H13836094   1.073   7.347   6.833 -2.5921 -0.1120 -0.9971
  179MOL   H13936095   1.338   7.313   6.676  1.6392 -0.2742  1.0950
  179MOL   H14036096   1.318   7.325   6.845  3.5532  1.1758 -2.9115
  179MOL   H14136097   1.147   7.122   6.800 -0.4089 -0.0069  1.3845
  179MOL   C14236098   1.341   7.049   6.757 -0.8142  0.4432  0.6757
  179MOL   O14336099   1.458   7.076   6.731  0.2093  0.2353 -0.1239
  179MOL   C14436100   1.303   6.895   6.760  0.2017 -0.7026  0.0453
  179MOL   C14536101   1.372   6.818   6.867 -0.3665  1.1375 -0.1396
  179MOL   N14636102   1.373   6.677   6.827 -0.0337  0.1096 -0.4267
  179MOL   H14736103   1.332   6.853   6.664  0.9430  1.1202 -0.5322
  179MOL   H14836104   1.196   6.877   6.765  0.1138  0.0298  0.8318
  179MOL   H14936105   1.475   6.851   6.883  0.1990 -0.1027 -1.1243
  179MOL   H15036106   1.328   6.823   6.967 -1.2818  4.2864 -0.6390
  179MOL   H15136107   1.462   6.638   6.798  0.5057  0.1395  1.1552
  179MOL   C15236108   1.269   6.598   6.825  0.0781 -0.0072 -0.8665
  179MOL   O15336109   1.157   6.634   6.870  0.1552  0.1530 -0.0116
  179MOL   C15436110   1.286   6.466   6.742  0.0308  0.0116 -0.9474
  179MOL   C15536111   1.223   6.348   6.821  0.3272  0.4962  0.4025
  179MOL   N15636112   1.321   6.282   6.909  0.4535  0.2456  0.0333
  179MOL   H15736113   1.392   6.451   6.722  0.4617  0.9687  0.5292
  179MOL   H15836114   1.234   6.477   6.647 -0.6168 -0.6249 -0.6813
  179MOL   H15936115   1.131   6.366   6.876 -0.1512  1.0452 -0.5464
  179MOL   H16036116   1.188   6.285   6.739  0.2033 -1.3312  1.8477
  179MOL   H16136117   1.323   6.312   7.005  1.0115 -1.8722  0.7105
  179MOL   C16236118   1.394   6.185   6.869 -0.3229 -0.0045 -0.2387
  179MOL   O16336119   1.371   6.118   6.763 -0.4853 -0.0244  0.5447
  179MOL   C16436120   1.512   6.155   6.962 -0.0825 -0.2301 -0.3556
  179MOL   C16536121   1.648   6.167   6.888  0.0542 -0.1034  0.2973
  179MOL   N16636122   1.714   6.291   6.907  0.6277 -0.2307 -0.0942
  179MOL   H16736123   1.494   6.056   7.004 -1.3001  0.2299  0.2207
  179MOL   H16836124   1.514   6.221   7.048  0.4079  0.8351 -1.1800
  179MOL   H16936125   1.717   6.088   6.918  0.6181  0.1883 -0.2204
  179MOL   H17036126   1.625   6.148   6.783 -0.4813  0.1490  0.3654
  179MOL   H17136127   1.666   6.363   6.960  0.0353 -1.2212  0.7340
  179MOL   C17236128   1.833   6.313   6.848 -0.9269  0.3591 -0.0147
  179MOL   O17336129   1.871   6.247   6.750 -0.6593 -0.2981  0.5343
  179MOL   C17436130   1.906   6.439   6.884  0.8241 -0.2066  0.7855
  179MOL   C17536131   2.054   6.449   6.844 -0.4390  0.0370 -0.1780
  179MOL   N17636132   2.119   6.568   6.907  0.7346  0.7079 -0.3498
  179MOL   H17736133   1.891   6.462   6.990  0.2485 -2.3460  1.1989
  179MOL   H17836134   1.855   6.524   6.838  1.6041 -0.2727 -0.2088
  179MOL   H17936135   2.110   6.361   6.877 -0.3948  0.2422  0.2975
  179MOL   H18036136   2.072   6.443   6.737 -0.7577 -2.3346 -0.1270
  179MOL   H18136137   2.108   6.571   7.007 -3.1724 -1.8165 -0.6251
  179MOL   C18236138   2.171   6.663   6.833  0.1272 -0.3514  0.0558
  179MOL   O18336139   2.158   6.666   6.709 -0.0518  0.3945 -0.7268
  179MOL   C18436140   2.249   6.769   6.909  0.0729  0.2288 -0.4424
  179MOL   C18536141   2.358   6.829   6.822  0.5650 -0.0485  0.2831
  179MOL   N18636142   2.322   6.951   6.757  0.1376 -0.5854 -0.4995
  179MOL   H18736143   2.292   6.725   6.999 -1.5886 -0.4761  0.0217
  179MOL   H18836144   2.185   6.849   6.947 -1.4523 -1.2322  0.1287
  179MOL   H18936145   2.450   6.845   6.878  1.5893 -0.3274 -1.2891
  179MOL   H19036146   2.389   6.758   6.745 -2.2256 -3.3375  2.0616
  179MOL   H19136147   2.253   6.944   6.684  0.2323 -2.3542 -0.4504
  179MOL   C19236148   2.359   7.076   6.793 -0.2719  0.1206  0.0134
  179MOL   O19336149   2.425   7.089   6.901 -0.5063  0.2055  0.2433
  179MOL   C19436150   2.313   7.198   6.706 -0.8431 -0.5896 -0.3797
  179MOL   C19536151   2.271   7.314   6.798  0.4462 -0.0215 -0.1994
  179MOL   N19636152   2.154   7.280   6.882 -0.0915  0.1357 -0.6294
  179MOL   H19736153   2.396   7.236   6.647 -0.3393  2.0175  1.8601
  179MOL   H19836154   2.238   7.160   6.637 -1.5520 -1.2346  0.7093
  179MOL   H19936155   2.355   7.343   6.860 -1.4286  1.8547  1.5395
  179MOL   H20036156   2.248   7.401   6.736  0.5715 -0.5678 -1.0268
  179MOL   H20136157   2.116   7.358   6.934  0.5306 -0.3672  0.6242
  179MOL   H20236158   2.080   7.228   6.838  1.3041 -0.7065 -2.0196
  180MOL     C136159   2.151   6.333   4.271 -0.6585  0.0799 -0.3264
  180MOL     O236160   2.248   6.349   4.347 -0.7250 -0.2362 -0.5424
  180MOL     C336161   2.137   6.195   4.205  0.3172 -0.2623  0.0232
  180MOL     C436162   2.000   6.161   4.143 -0.2370 -0.0832  0.2557
  180MOL     N536163   1.890   6.188   4.238  0.2600 -0.6506 -0.2101
  180MOL     H636164   2.163   6.125   4.285 -0.2354 -0.8306 -0.2863
  180MOL     H736165   2.207   6.165   4.127 -0.8838  0.5499 -1.3910
  180MOL     H836166   1.999   6.063   4.096 -0.0903  0.4941 -0.9449
  180MOL     H936167   1.978   6.225   4.057 -0.3107  0.9513  1.0288
  180MOL    H1036168   1.916   6.245   4.317  0.7079  2.2396 -2.3353
  180MOL    H1136169   2.072   6.406   4.254 -2.2526 -1.8806 -1.5259
  180MOL    C1236170   1.764   6.156   4.214 -0.1112 -0.2045  0.7246
  180MOL    O1336171   1.726   6.099   4.110 -0.1706  0.1777 -0.0780
  180MOL    C1436172   1.654   6.214   4.307 -0.9260  0.5157  0.2852
  180MOL    C1536173   1.507   6.193   4.278  0.1237  0.1439  0.1322
  180MOL    N1636174   1.480   6.050   4.294  0.0693 -0.2737  0.3152
  180MOL    H1736175   1.664   6.321   4.285  2.0456  0.0499 -0.8939
  180MOL    H1836176   1.694   6.202   4.407  0.5964  1.3544 -0.1900
  180MOL    H1936177   1.437   6.257   4.332 -0.9499  0.4166 -1.5412
  180MOL    H2036178   1.500   6.222   4.173 -2.1948 -0.8042 -0.0019
  180MOL    H2136179   1.552   5.991   4.255 -0.2256 -0.6925  0.4078
  180MOL    C2236180   1.395   5.989   4.374  0.4714  0.8013  0.3733
  180MOL    O2336181   1.302   6.024   4.447  0.2186 -0.9549  0.0329
  180MOL    C2436182   1.399   5.846   4.353  0.2487  0.0734 -0.3631
  180MOL    C2536183   1.512   5.775   4.447 -0.2740  1.1997  0.1077
  180MOL    N2636184   1.655   5.812   4.427  0.3344 -0.4255 -0.1401
  180MOL    H2736185   1.410   5.824   4.247  2.4759 -1.2601  0.1129
  180MOL    H2836186   1.300   5.809   4.380  1.0591 -0.4275  2.0292
  180MOL    H2936187   1.486   5.784   4.553 -1.1012  0.2054 -0.0049
  180MOL    H3036188   1.507   5.668   4.429 -1.6359  1.0873  1.0616
  180MOL    H3136189   1.707   5.841   4.508 -0.2587 -2.1357  0.8917
  180MOL    C3236190   1.733   5.793   4.320  1.2209  0.5733 -0.3539
  180MOL    O3336191   1.702   5.751   4.210 -0.0067 -0.6724 -0.0753
  180MOL    C3436192   1.879   5.813   4.358 -0.0762  0.5294  0.0701
  180MOL    C3536193   1.980   5.698   4.312 -0.1154 -0.0393 -0.7893
  180MOL    N3636194   2.101   5.749   4.242 -0.2552  0.4022  0.1216
  180MOL    H3736195   1.892   5.822   4.466  1.6438  0.7218 -0.1399
  180MOL    H3836196   1.908   5.914   4.330  1.7075  0.2007  0.7023
  180MOL    H3936197   2.009   5.636   4.397  1.8278 -0.3106 -1.6273
  180MOL    H4036198   1.926   5.625   4.251 -0.5914  0.1702 -0.6236
  180MOL    H4136199   2.154   5.812   4.301 -1.0653  0.0531  1.2527
  180MOL    C4236200   2.138   5.712   4.118  0.0183 -0.0031 -0.1941
  180MOL    O4336201   2.090   5.626   4.048  0.4376 -0.0615  0.0806
  180MOL    C4436202   2.267   5.789   4.068  0.2096 -0.3980 -0.5012
  180MOL    C4536203   2.260   5.789   3.914  0.1608  0.2305  0.0301
  180MOL    N4636204   2.138   5.845   3.858 -0.2337 -0.0372  0.8298
  180MOL    H4736205   2.252   5.891   4.105 -1.2886 -0.9656  0.5029
  180MOL    H4836206   2.357   5.761   4.122 -1.2785  0.5196  2.6046
  180MOL    H4936207   2.344   5.847   3.877 -0.0381  0.9123  0.6187
  180MOL    H5036208   2.277   5.692   3.869  0.9701 -0.7215  2.3215
  180MOL    H5136209   2.062   5.780   3.844  1.0180 -1.6768  1.4072
  180MOL    C5236210   2.107   5.972   3.838 -0.1231 -0.0062 -0.2495
  180MOL    O5336211   2.175   6.061   3.892 -0.3005 -0.4115 -0.0692
  180MOL    C5436212   1.987   6.007   3.745 -0.5566 -0.3217 -0.0984
  180MOL    C5536213   2.014   6.148   3.681  0.2540 -0.2304  0.1287
  180MOL    N5636214   2.092   6.128   3.562 -0.2180 -0.5697  0.0173
  180MOL    H5736215   1.967   5.936   3.664  0.1947 -0.3068 -0.3027
  180MOL    H5836216   1.893   6.007   3.800 -0.3731  2.6239  0.2684
  180MOL    H5936217   2.076   6.215   3.740  0.7198 -0.9553  0.4809
  180MOL    H6036218   1.923   6.199   3.650  0.2525 -1.5172 -2.0935
  180MOL    H6136219   2.116   6.033   3.539 -0.3061 -0.5183 -0.2844
  180MOL    C6236220   2.147   6.225   3.492 -0.0714  0.9661  0.0087
  180MOL    O6336221   2.131   6.343   3.517  0.2455  0.4552  0.6936
  180MOL    C6436222   2.230   6.191   3.367 -0.2837  0.8130  0.3774
  180MOL    C6536223   2.348   6.286   3.336  0.5883 -0.0645  0.5608
  180MOL    N6636224   2.471   6.266   3.417 -0.5551  0.6737  0.4552
  180MOL    H6736225   2.262   6.087   3.359 -2.6990  0.0291  0.6570
  180MOL    H6836226   2.161   6.211   3.285  0.6696 -0.2506 -0.7170
  180MOL    H6936227   2.374   6.274   3.231 -1.0918 -0.8433  0.2231
  180MOL    H7036228   2.313   6.389   3.349 -1.6079 -0.7233  0.0724
  180MOL    H7136229   2.530   6.184   3.413  1.3488  1.9408  1.7793
  180MOL    C7236230   2.520   6.357   3.506 -0.3854 -0.5293 -0.4982
  180MOL    O7336231   2.472   6.468   3.533 -0.1766 -0.4424  0.3180
  180MOL    C7436232   2.659   6.324   3.567  0.8213  0.3467  0.7274
  180MOL    C7536233   2.729   6.437   3.640  0.6391 -0.0360 -0.6196
  180MOL    N7636234   2.789   6.539   3.555  0.1667 -0.2838  0.4307
  180MOL    H7736235   2.647   6.240   3.636 -3.9299  0.1626 -0.1566
  180MOL    H7836236   2.730   6.293   3.491  1.7490 -0.1086  1.7734
  180MOL    H7936237   2.657   6.492   3.701  2.4187  0.1495  1.4163
  180MOL    H8036238   2.806   6.396   3.706  1.0588  1.3583 -0.2187
  180MOL    H8136239   2.759   6.529   3.459 -1.6756  2.8655  0.6033
  180MOL    C8236240   2.871   6.632   3.603 -0.4888  0.2806 -0.0914
  180MOL    O8336241   2.913   6.636   3.713  0.2396 -0.1722  0.3913
  180MOL    C8436242   2.929   6.723   3.496 -0.2108 -0.6097 -0.3524
  180MOL    C8536243   3.029   6.829   3.548 -0.0793  0.4799 -0.5430
  180MOL    N8636244   3.016   6.964   3.480  0.1537 -0.3418  0.4796
  180MOL    H8736245   2.984   6.668   3.419  0.0579 -2.3569  1.0605
  180MOL    H8836246   2.852   6.784   3.448 -0.3521 -1.4637 -1.2315
  180MOL    H8936247   3.004   6.844   3.653  0.8215 -0.2309 -0.2300
  180MOL    H9036248   3.128   6.787   3.562 -0.1028  0.2575 -1.0409
  180MOL    H9136249   3.061   6.979   3.391  2.0348 -0.7685  1.3174
  180MOL    C9236250   2.948   7.062   3.533  0.4492  0.3928  0.5222
  180MOL    O9336251   2.911   7.070   3.649  0.4138 -0.1045  0.3605
  180MOL    C9436252   2.917   7.179   3.442 -0.2945  0.9593 -0.1163
  180MOL    C9536253   3.004   7.309   3.471 -0.1929 -0.0846  0.3967
  180MOL    N9636254   3.148   7.295   3.444 -0.0162 -0.0275 -0.1349
  180MOL    H9736255   2.932   7.146   3.339 -1.3550 -0.5700  0.1873
  180MOL    H9836256   2.810   7.197   3.454  0.2546  2.6077  2.9143
  180MOL    H9936257   2.974   7.381   3.395 -1.4389 -1.1614 -0.1602
  180MOL   H10036258   2.980   7.357   3.566  3.0824  0.9094  0.7560
  180MOL   H10136259   3.180   7.266   3.353  1.5612 -0.8369  0.6428
  180MOL   C10236260   3.249   7.341   3.524 -0.2362  0.6050  0.3813
  180MOL   O10336261   3.223   7.383   3.636  0.0433 -0.2759 -0.4040
  180MOL   C10436262   3.394   7.317   3.481  0.2872 -0.1611  0.4236
  180MOL   C10536263   3.475   7.217   3.570 -0.2998 -0.1469 -0.0039
  180MOL   N10636264   3.406   7.099   3.618 -0.5234 -0.3140 -0.4140
  180MOL   H10736265   3.444   7.414   3.492 -1.1112  0.7219 -0.7700
  180MOL   H10836266   3.391   7.300   3.373 -0.5394  3.3491 -0.1844
  180MOL   H10936267   3.556   7.192   3.501  1.0458  1.3590  0.9945
  180MOL   H11036268   3.529   7.263   3.653  0.3922  0.5751 -0.8400
  180MOL   H11136269   3.316   7.077   3.580  0.0363 -1.0102 -1.3596
  180MOL   C11236270   3.448   7.019   3.720  0.6162  0.1405 -0.3694
  180MOL   O11336271   3.550   7.034   3.785  0.5318  0.1316 -0.1121
  180MOL   C11436272   3.353   6.895   3.739 -0.4955  0.1749  0.1570
  180MOL   C11536273   3.409   6.781   3.835  0.5493 -0.0201  0.2394
  180MOL   N11636274   3.394   6.803   3.980  0.4230 -0.4814 -0.3165
  180MOL   H11736275   3.332   6.855   3.640  0.3532  0.1833 -0.0281
  180MOL   H11836276   3.256   6.933   3.771 -0.7813  0.6322 -1.2446
  180MOL   H11936277   3.343   6.697   3.814 -0.3345  0.6120  0.4466
  180MOL   H12036278   3.504   6.731   3.814  1.5461  1.3855  1.3345
  180MOL   H12136279   3.483   6.825   4.023 -0.0120 -0.3078  0.4917
  180MOL   C12236280   3.278   6.807   4.049  0.5122 -0.0367  0.0000
  180MOL   O12336281   3.172   6.797   3.988  0.2745  0.3012  0.2986
  180MOL   C12436282   3.276   6.838   4.201 -0.1288  0.6458  0.2638
  180MOL   C12536283   3.218   6.979   4.227 -0.3436  0.3738 -0.2734
  180MOL   N12636284   3.280   7.045   4.339  0.4002 -0.0375  0.0115
  180MOL   H12736285   3.372   6.823   4.251 -0.0391  0.7833  0.1360
  180MOL   H12836286   3.217   6.765   4.255  0.9904  0.3277  1.0680
  180MOL   H12936287   3.236   7.052   4.149  0.3102  0.1500 -0.3406
  180MOL   H13036288   3.109   6.974   4.235 -0.2991  0.5656  0.5401
  180MOL   H13136289   3.331   7.131   4.325 -0.0568  0.2128 -0.1439
  180MOL   C13236290   3.256   7.019   4.469  0.0878  0.4378 -0.1232
  180MOL   O13336291   3.203   6.913   4.503 -0.2079 -0.4266 -0.0872
  180MOL   C13436292   3.288   7.128   4.570 -0.3795 -0.3801  0.1213
  180MOL   C13536293   3.161   7.222   4.577 -0.2917  0.5033  0.0840
  180MOL   N13636294   3.179   7.347   4.498  0.1333  0.1255 -0.4310
  180MOL   H13736295   3.376   7.187   4.544 -1.1893  0.4395 -0.8438
  180MOL   H13836296   3.298   7.072   4.663  1.2834 -1.1454 -0.4984
  180MOL   H13936297   3.065   7.175   4.554  0.7481 -1.5149 -0.2798
  180MOL   H14036298   3.151   7.239   4.684 -0.2276  1.2140 -0.0226
  180MOL   H14136299   3.156   7.337   4.400 -0.0818 -1.0122 -0.2762
  180MOL   C14236300   3.258   7.451   4.533  0.1802  0.0195  0.2704
  180MOL   O14336301   3.303   7.464   4.647 -0.6288 -0.0200 -0.1360
  180MOL   C14436302   3.295   7.554   4.425 -0.3553 -0.0288 -0.7952
  180MOL   C14536303   3.439   7.565   4.385  0.1720  0.0440 -0.0413
  180MOL   N14636304   3.473   7.496   4.263 -0.2039  0.1395 -0.5749
  180MOL   H14736305   3.284   7.648   4.480 -2.3420 -1.5862  1.4901
  180MOL   H14836306   3.224   7.567   4.343 -0.8405  0.9322 -0.2356
  180MOL   H14936307   3.466   7.667   4.357  0.0635  0.3533  0.9357
  180MOL   H15036308   3.505   7.527   4.464 -1.8086  0.4893  1.8839
  180MOL   H15136309   3.501   7.541   4.177 -2.7141 -0.0672 -1.5400
  180MOL   C15236310   3.485   7.365   4.248  0.2852 -0.0920 -0.0533
  180MOL   O15336311   3.461   7.284   4.335 -0.3309 -0.2877  0.1782
  180MOL   C15436312   3.547   7.315   4.117  0.5214  0.9017  0.7398
  180MOL   C15536313   3.611   7.175   4.123  0.4147  0.1957 -0.3543
  180MOL   N15636314   3.700   7.143   4.008  0.2402  0.0487 -0.2681
  180MOL   H15736315   3.632   7.381   4.098  2.0110 -1.0291  0.4284
  180MOL   H15836316   3.480   7.311   4.032  1.3847 -1.7092  0.1355
  180MOL   H15936317   3.678   7.160   4.208 -0.7914 -0.7342  0.4510
  180MOL   H16036318   3.533   7.102   4.144 -2.0300  2.2441 -1.9808
  180MOL   H16136319   3.661   7.083   3.936  0.3095 -0.6836  0.2950
  180MOL   C16236320   3.821   7.200   3.981 -0.0575 -0.0641  0.5354
  180MOL   O16336321   3.882   7.273   4.059 -0.3342  0.3460  0.2399
  180MOL   C16436322   3.880   7.149   3.850 -0.6274 -0.1290 -0.3124
  180MOL   C16536323   4.039   7.140   3.833 -0.3230  0.5407 -0.3206
  180MOL   N16636324   4.093   7.276   3.813 -0.3153  0.4596 -0.4088
  180MOL   H16736325   3.835   7.215   3.775 -0.5426 -0.3760 -0.5798
  180MOL   H16836326   3.829   7.055   3.833 -1.6809  0.4125 -0.1820
  180MOL   H16936327   4.102   7.116   3.918  0.8431  2.1414 -0.7198
  180MOL   H17036328   4.071   7.077   3.750  0.6624  2.4526 -1.3952
  180MOL   H17136329   4.034   7.355   3.790 -1.0613  0.0575  0.1106
  180MOL   C17236330   4.224   7.311   3.832 -0.6682  0.1777 -0.4248
  180MOL   O17336331   4.307   7.235   3.873 -1.1196 -0.2851  0.1428
  180MOL   C17436332   4.253   7.459   3.806 -0.4734  0.2307 -0.2358
  180MOL   C17536333   4.399   7.491   3.851 -1.0954  0.4997  0.4610
  180MOL   N17636334   4.417   7.639   3.855  0.3905 -0.7641 -0.3677
  180MOL   H17736335   4.194   7.519   3.875  0.1300 -1.2453  1.6052
  180MOL   H17836336   4.235   7.494   3.704  0.4197  1.9574  0.1798
  180MOL   H17936337   4.419   7.453   3.951 -1.1667  2.9989  1.4669
  180MOL   H18036338   4.470   7.436   3.788  1.0703  1.6042  1.8642
  180MOL   H18136339   4.338   7.697   3.880  1.5314  1.5056 -1.8650
  180MOL   C18236340   4.525   7.707   3.840 -1.0187 -0.2444 -0.4285
  180MOL   O18336341   4.626   7.644   3.810  0.0609 -0.0278 -0.1991
  180MOL   C18436342   4.511   0.080   3.868  0.1791 -0.5862 -0.2409
  180MOL   C18536343   4.597   0.152   3.777  0.2736 -0.4722  0.2577
  180MOL   N18636344   4.527   0.278   3.733 -0.3432 -0.6889 -0.2643
  180MOL   H18736345   4.514   0.102   3.975  0.0323  0.2900 -0.4122
  180MOL   H18836346   4.408   0.102   3.843 -0.0870 -1.5091  0.0359
  180MOL   H18936347   4.692   0.186   3.818  0.3347  1.8808 -1.6406
  180MOL   H19036348   4.623   0.100   3.685 -2.2998 -0.1769 -0.6732
  180MOL   H19136349   4.463   0.257   3.658  0.1282  0.3604 -0.9605
  180MOL   C19236350   4.550   0.399   3.785  0.3526  0.2101  0.2918
  180MOL   O19336351   4.633   0.417   3.872 -0.0638 -0.3174  0.1736
  180MOL   C19436352   4.461   0.512   3.729 -0.0172 -0.1709  0.3497
  180MOL   C19536353   4.531   0.634   3.684  0.4392  0.1241  0.0565
  180MOL   N19636354   4.618   0.602   3.570  0.0003 -0.3680  0.4825
  180MOL   H19736355   4.396   0.478   3.650  0.6749 -1.9478  0.5118
  180MOL   H19836356   4.405   0.543   3.818  0.2928  0.5148  0.3111
  180MOL   H19936357   4.468   0.719   3.660  1.0074  0.1294 -1.5191
  180MOL   H20036358   4.592   0.673   3.766 -1.8492  1.0055  1.3709
  180MOL   H20136359   4.686   0.674   3.547  1.3279 -0.3574  4.1771
  180MOL   H20236360   4.566   0.598   3.484 -0.8497 -0.2963  0.9946
  181MOL     C136361   5.072   2.946   0.532  0.5425  0.1826  0.0857
  181MOL     O236362   5.098   2.928   0.655 -0.2975  0.5174 -0.3073
  181MOL     C336363   5.022   2.831   0.444 -0.1887 -0.1391 -0.3430
  181MOL     C436364   4.884   2.864   0.385 -0.3213  0.2014  0.5906
  181MOL     N536365   4.774   2.837   0.484 -0.4074  0.2999  0.4893
  181MOL     H636366   5.014   2.740   0.504  2.1773 -0.6695 -0.7830
  181MOL     H736367   5.100   2.828   0.368 -0.3693  3.5628 -0.7497
  181MOL     H836368   4.867   2.820   0.286 -0.5747  1.9161 -0.1564
  181MOL     H936369   4.876   2.972   0.371 -2.0271  0.0997  0.6001
  181MOL    H1036370   4.736   2.926   0.511  1.4344  1.2730 -0.0418
  181MOL    H1136371   5.079   3.049   0.497 -0.1869 -0.3177 -1.5989
  181MOL    C1236372   4.752   2.715   0.533  0.2615  0.2896  0.2671
  181MOL    O1336373   4.801   2.607   0.487 -0.1141  0.0029  0.0806
  181MOL    C1436374   4.646   2.710   0.648  0.8791 -0.4514 -0.3747
  181MOL    C1536375   4.700   2.647   0.785 -0.3912 -0.3005 -0.2681
  181MOL    N1636376   4.689   2.498   0.804 -0.1709 -0.4552 -0.5748
  181MOL    H1736377   4.565   2.648   0.609  0.6051 -1.3371  1.5848
  181MOL    H1836378   4.615   2.814   0.661  0.7534 -0.3422 -1.4927
  181MOL    H1936379   4.805   2.676   0.783 -0.6226  0.6650 -4.3726
  181MOL    H2036380   4.644   2.690   0.868 -0.2754 -1.1311  0.2397
  181MOL    H2136381   4.632   2.442   0.742 -0.9438 -0.8397  0.4697
  181MOL    C2236382   4.745   2.434   0.906  0.6752  0.0668 -0.0091
  181MOL    O2336383   4.818   2.488   0.995 -0.1863  0.5192 -0.1054
  181MOL    C2436384   4.726   2.286   0.902 -0.2020 -0.1152 -0.2351
  181MOL    C2536385   4.779   2.201   1.026 -0.4661 -0.3022 -1.1385
  181MOL    N2636386   4.915   2.169   1.013 -0.6850 -0.2772  0.2694
  181MOL    H2736387   4.767   2.247   0.809 -0.8994 -1.5930  0.0462
  181MOL    H2836388   4.621   2.260   0.890  0.3991 -2.7178 -0.2304
  181MOL    H2936389   4.760   2.261   1.116  1.3051 -0.4541 -0.6332
  181MOL    H3036390   4.724   2.108   1.033 -2.3627  0.6967 -2.4472
  181MOL    H3136391   4.942   2.166   0.916  0.5077 -0.6166  0.5977
  181MOL    C3236392   5.001   2.176   1.111  0.2179  0.2689 -0.6344
  181MOL    O3336393   4.974   2.168   1.230 -0.2059 -0.2474  0.5632
  181MOL    C3436394   5.142   2.209   1.068 -0.0870  0.5961  0.7095
  181MOL    C3536395   5.161   2.365   1.054 -0.4032  0.5598 -0.4113
  181MOL    N3636396   5.262   2.411   1.149 -0.5125 -0.2827  0.5220
  181MOL    H3736397   5.153   2.158   0.972 -1.5793 -2.4854  2.0980
  181MOL    H3836398   5.213   2.168   1.140 -0.4827 -0.8770  0.2855
  181MOL    H3936399   5.197   2.376   0.951  2.3102  0.6064  0.5157
  181MOL    H4036400   5.067   2.418   1.067  0.0592  1.9912 -2.6175
  181MOL    H4136401   5.288   2.345   1.221 -0.4363  0.2068  0.9480
  181MOL    C4236402   5.309   2.538   1.159  0.0864  0.8817 -0.1558
  181MOL    O4336403   5.274   2.626   1.083  0.0913  0.6933  0.1808
  181MOL    C4436404   5.398   2.572   1.281  0.4931  0.2532  0.0329
  181MOL    C4536405   5.310   2.602   1.407 -0.8514 -0.0208  0.1956
  181MOL    N4636406   5.273   2.487   1.489 -0.1170  0.1311 -0.1220
  181MOL    H4736407   5.470   2.494   1.306  0.7306  0.6145  0.4762
  181MOL    H4836408   5.447   2.657   1.235 -1.5448 -0.0406 -2.7872
  181MOL    H4936409   5.365   2.677   1.465 -0.3321 -1.2721  1.3322
  181MOL    H5036410   5.223   2.660   1.377  0.2173  0.4655 -2.1000
  181MOL    H5136411   5.250   2.400   1.444 -1.1264 -0.1628  0.9316
  181MOL    C5236412   5.281   2.472   1.621 -0.0569 -0.6939 -0.5964
  181MOL    O5336413   5.314   2.569   1.694 -0.5117  0.9103 -0.2315
  181MOL    C5436414   5.240   2.335   1.677 -0.6117  0.1650  0.0978
  181MOL    C5536415   5.339   2.248   1.767  0.4514 -0.6910 -0.1389
  181MOL    N5636416   5.354   2.292   1.904 -0.2568  0.1118  0.8037
  181MOL    H5736417   5.145   2.354   1.727 -1.3093  3.7279 -2.4435
  181MOL    H5836418   5.220   2.275   1.588 -0.1276  0.8371 -0.4706
  181MOL    H5936419   5.442   2.264   1.736  0.2129  0.7922 -0.2044
  181MOL    H6036420   5.317   2.142   1.755 -1.6898 -0.3312  0.4628
  181MOL    H6136421   5.439   2.343   1.924  0.6482 -0.2568 -1.7980
  181MOL    C6236422   5.272   2.241   1.992  0.5925 -0.0145 -0.1828
  181MOL    O6336423   5.176   2.171   1.960  0.3591  0.2132 -0.2357
  181MOL    C6436424   5.321   2.260   2.137 -0.3654 -0.2493  0.1526
  181MOL    C6536425   5.202   2.271   2.231 -0.0529  0.1022  0.1775
  181MOL    N6636426   5.144   2.141   2.266 -0.3487  0.7774 -0.1094
  181MOL    H6736427   5.398   2.189   2.169  1.5566  1.1363 -1.2878
  181MOL    H6836428   5.368   2.358   2.135  0.4275 -0.6456 -2.6200
  181MOL    H6936429   5.223   2.333   2.318 -1.1794  2.0463 -0.9083
  181MOL    H7036430   5.124   2.326   2.177  0.3227  1.0607  0.5879
  181MOL    H7136431   5.044   2.132   2.254 -0.8316  3.4838  1.4128
  181MOL    C7236432   5.205   2.032   2.318  0.0792 -0.4956  0.9381
  181MOL    O7336433   5.323   2.041   2.354  0.1627  0.3917  0.5884
  181MOL    C7436434   5.116   1.917   2.362  0.0676  0.1843  1.0841
  181MOL    C7536435   5.089   1.807   2.263 -0.3935 -0.2557  0.2442
  181MOL    N7636436   4.996   1.836   2.158  0.2239 -1.0566 -0.3296
  181MOL    H7736437   5.170   1.876   2.447 -0.0398  0.9086  1.5073
  181MOL    H7836438   5.027   1.953   2.414 -1.1835 -0.9341 -0.2230
  181MOL    H7936439   5.185   1.775   2.222  0.5133  2.6213  0.0190
  181MOL    H8036440   5.063   1.708   2.301  1.7936 -0.9771 -0.0547
  181MOL    H8136441   5.030   1.885   2.076  0.5133  1.6666  1.3355
  181MOL    C8236442   4.866   1.814   2.163 -0.0674  0.6347 -0.2303
  181MOL    O8336443   4.816   1.774   2.266  0.0577 -0.0931 -0.5253
  181MOL    C8436444   4.782   1.841   2.042 -0.8275 -0.2827  0.5212
  181MOL    C8536445   4.723   1.732   1.954 -0.2665  0.6976  0.2870
  181MOL    N8636446   4.821   1.657   1.877 -0.2827 -0.1079 -0.4928
  181MOL    H8736447   4.705   1.906   2.084 -0.6959  0.2697 -0.0910
  181MOL    H8836448   4.835   1.909   1.976  0.0521 -1.6418 -0.1793
  181MOL    H8936449   4.661   1.657   2.003  0.8707 -0.8229 -0.5668
  181MOL    H9036450   4.674   1.770   1.864 -0.3290 -2.4843 -1.0657
  181MOL    H9136451   4.913   1.698   1.864  0.6669  0.2447  5.8212
  181MOL    C9236452   4.800   1.532   1.837  0.7940 -0.1889 -0.4004
  181MOL    O9336453   4.702   1.466   1.874  0.5311 -0.0669  0.5495
  181MOL    C9436454   4.909   1.464   1.758  0.8570  1.1065  0.3209
  181MOL    C9536455   4.853   1.406   1.622  0.8616  0.2363 -0.3966
  181MOL    N9636456   4.887   1.273   1.593  0.1402 -1.2880 -0.0682
  181MOL    H9736457   4.996   1.528   1.744  1.2628  0.2736 -1.0216
  181MOL    H9836458   4.946   1.379   1.816 -0.9390 -0.2476 -0.4680
  181MOL    H9936459   4.746   1.424   1.617  0.8030  0.4259  1.1107
  181MOL   H10036460   4.894   1.463   1.539 -1.6111  1.2921 -0.9528
  181MOL   H10136461   4.815   1.218   1.551  0.0023 -0.5255 -0.8407
  181MOL   C10236462   5.012   1.231   1.566 -0.1665 -0.0186  0.8494
  181MOL   O10336463   5.106   1.304   1.573 -0.8878 -0.3318  0.2538
  181MOL   C10436464   5.030   1.088   1.509 -0.4451 -0.4245  0.8527
  181MOL   C10536465   5.152   1.017   1.574 -0.1138  0.2596  0.4866
  181MOL   N10636466   5.139   0.874   1.579 -0.0592 -0.0835 -0.3835
  181MOL   H10736467   5.029   1.094   1.401 -0.4530  1.4304  0.9375
  181MOL   H10836468   4.944   1.024   1.529 -0.2630 -1.3138 -1.1055
  181MOL   H10936469   5.249   1.028   1.525 -0.4511 -0.6258 -0.3873
  181MOL   H11036470   5.170   1.056   1.674  0.6326  0.2030  0.3763
  181MOL   H11136471   5.066   0.842   1.640 -0.9159 -0.1204 -1.4052
  181MOL   C11236472   5.204   0.778   1.508  0.6198 -0.0696 -1.0692
  181MOL   O11336473   5.277   0.808   1.414 -0.3081  0.0473  0.5730
  181MOL   C11436474   5.193   0.631   1.550  0.5468 -0.0911 -0.3144
  181MOL   C11536475   5.124   0.545   1.443 -0.3437 -0.6531 -0.6091
  181MOL   N11636476   5.150   0.404   1.469 -0.2012 -0.2945 -0.2503
  181MOL   H11736477   5.137   0.629   1.644  0.0526  1.5179 -0.5465
  181MOL   H11836478   5.289   0.583   1.568 -0.1359 -0.9424  1.1878
  181MOL   H11936479   5.017   0.566   1.435 -0.4033 -0.1146  1.2914
  181MOL   H12036480   5.149   0.564   1.338  0.5189 -3.2815 -0.9190
  181MOL   H12136481   5.186   0.345   1.395  2.0408 -1.8700  2.0032
  181MOL   C12236482   5.112   0.338   1.575 -0.0768 -1.3136 -0.0074
  181MOL   O12336483   5.038   0.391   1.665  0.0130  0.5205  0.0069
  181MOL   C12436484   5.149   0.194   1.573  0.1709  0.1896  0.4789
  181MOL   C12536485   5.233   0.138   1.689 -0.1754 -0.5621  0.6175
  181MOL   N12636486   5.233   7.777   1.674  0.1498  0.1954 -0.4958
  181MOL   H12736487   5.182   0.166   1.473  2.4360 -0.9155  1.5129
  181MOL   H12836488   5.052   0.144   1.580  0.3415  0.0682  2.2061
  181MOL   H12936489   5.337   0.166   1.675 -0.2835  0.3934  1.6733
  181MOL   H13036490   5.203   0.172   1.788 -0.1023  0.5764  0.2598
  181MOL   H13136491   5.188   7.728   1.598 -1.6325  0.0692  0.5897
  181MOL   C13236492   5.282   7.700   1.768  0.5678 -0.2948  0.0576
  181MOL   O13336493   5.323   7.745   1.872  0.6855 -0.6058  0.7807
  181MOL   C13436494   5.297   7.549   1.737  0.2792  0.0226 -0.6432
  181MOL   C13536495   5.179   7.472   1.795 -0.3773 -0.3731  0.3740
  181MOL   N13636496   5.047   7.492   1.735  0.8707 -0.4379 -0.2174
  181MOL   H13736497   5.390   7.518   1.785  1.1657 -0.4154 -2.5849
  181MOL   H13836498   5.309   7.537   1.629  4.3968  0.2371 -0.3085
  181MOL   H13936499   5.209   7.368   1.790 -0.6393 -0.3869 -1.1133
  181MOL   H14036500   5.171   7.493   1.902 -0.1018  1.2561  0.0949
  181MOL   H14136501   5.007   7.582   1.754 -1.2219 -1.8295  2.2198
  181MOL   C14236502   4.975   7.400   1.665  0.0952  0.1171  0.2165
  181MOL   O14336503   5.013   7.279   1.643  0.3828 -0.3010  0.3827
  181MOL   C14436504   4.847   7.442   1.604 -0.1562 -0.4004  0.4051
  181MOL   C14536505   4.733   7.453   1.707 -0.1322 -1.3593 -0.0730
  181MOL   N14636506   4.710   7.337   1.790 -0.4827  0.4022  0.3669
  181MOL   H14736507   4.828   7.380   1.516 -0.9858  1.2152 -0.5791
  181MOL   H14836508   4.873   7.538   1.559  1.0933 -2.3427 -3.2604
  181MOL   H14936509   4.748   7.532   1.779 -1.2606 -2.1206  1.0075
  181MOL   H15036510   4.649   7.496   1.653  0.9165  2.2890  1.1160
  181MOL   H15136511   4.753   7.349   1.881 -0.6777 -2.4784  0.8826
  181MOL   C15236512   4.665   7.217   1.751  0.1570 -0.0672 -0.0047
  181MOL   O15336513   4.613   7.201   1.638  0.1375 -0.1624 -0.1626
  181MOL   C15436514   4.645   7.111   1.860  0.2880 -0.4084  0.1378
  181MOL   C15536515   4.511   7.042   1.872  0.0781  0.1278 -0.3493
  181MOL   N15636516   4.424   7.104   1.970 -0.0927  0.1482  0.5357
  181MOL   H15736517   4.671   7.155   1.956 -1.6504  0.5690  0.2542
  181MOL   H15836518   4.712   7.027   1.843 -0.3859 -0.4658 -2.4580
  181MOL   H15936519   4.462   7.031   1.775  0.2823 -0.8893 -0.3367
  181MOL   H16036520   4.531   6.942   1.910 -1.2420 -0.3419 -0.8580
  181MOL   H16136521   4.390   7.198   1.953  1.5301  0.8319  0.9028
  181MOL   C16236522   4.355   7.031   2.060  0.8684 -0.4305 -0.2141
  181MOL   O16336523   4.373   6.906   2.088 -0.1866 -0.5128  0.0112
  181MOL   C16436524   4.242   7.097   2.138 -0.1237  0.4152 -0.5004
  181MOL   C16536525   4.251   7.087   2.289  0.0310  0.1427 -0.4796
  181MOL   N16636526   4.218   6.955   2.335 -0.4055 -0.0069  0.3925
  181MOL   H16736527   4.155   7.046   2.097 -0.3510 -0.0963  0.5974
  181MOL   H16836528   4.228   7.202   2.113  2.5590  1.0441  0.5204
  181MOL   H16936529   4.345   7.122   2.332  0.5328 -1.2274 -0.4451
  181MOL   H17036530   4.163   7.143   2.322 -1.5087 -1.7706 -1.2750
  181MOL   H17136531   4.202   6.883   2.266 -3.2829 -0.3851  1.3926
  181MOL   C17236532   4.199   6.934   2.464 -0.1661 -0.2116  0.5893
  181MOL   O17336533   4.205   7.026   2.549  0.1592  0.0231  0.0715
  181MOL   C17436534   4.165   6.793   2.505  0.4032  0.0653 -0.1863
  181MOL   C17536535   4.259   6.743   2.625  0.2086  0.8278  0.1458
  181MOL   N17636536   4.398   6.724   2.591 -0.5201 -0.1588 -0.5618
  181MOL   H17736537   4.167   6.728   2.417 -3.9893 -1.3898  0.6333
  181MOL   H17836538   4.063   6.782   2.542  0.8568  0.2840  1.1195
  181MOL   H17936539   4.248   6.812   2.709  1.7586 -0.5738  1.5517
  181MOL   H18036540   4.222   6.648   2.665 -0.1672  1.3153  0.9748
  181MOL   H18136541   4.456   6.806   2.605  1.0726 -1.4814  0.8305
  181MOL   C18236542   4.441   6.604   2.554  0.2182  0.6108  0.3496
  181MOL   O18336543   4.364   6.505   2.537 -1.0126 -0.4123  0.1219
  181MOL   C18436544   4.596   6.595   2.518 -0.1157 -0.3298 -0.9061
  181MOL   C18536545   4.634   6.463   2.451 -0.1506 -0.0491  0.9423
  181MOL   N18636546   4.771   6.422   2.474  0.4693 -0.5109 -0.0903
  181MOL   H18736547   4.639   6.608   2.618  1.5570 -2.0499 -1.3591
  181MOL   H18836548   4.627   6.682   2.461 -0.6883 -0.0799 -0.8375
  181MOL   H18936549   4.574   6.377   2.481 -1.3196  0.9095  1.4022
  181MOL   H19036550   4.609   6.470   2.345  1.1286  0.7197  0.6844
  181MOL   H19136551   4.773   6.377   2.565 -0.2206  1.9939  1.2115
  181MOL   C19236552   4.885   6.465   2.420  0.1488  0.3312 -0.4152
  181MOL   O19336553   4.887   6.541   2.322  0.9816  0.2605  0.0334
  181MOL   C19436554   5.015   6.409   2.476 -0.2166  0.2901  0.2203
  181MOL   C19536555   5.117   6.518   2.512 -0.2570 -0.2923  0.0287
  181MOL   N19636556   5.084   6.580   2.639  0.5328  0.2279 -0.1341
  181MOL   H19736557   5.000   6.333   2.553 -0.2100 -0.7762 -0.8106
  181MOL   H19836558   5.060   6.344   2.401  0.5926  0.7891  0.2735
  181MOL   H19936559   5.210   6.466   2.490  1.2839  2.1868  0.4894
  181MOL   H20036560   5.118   6.596   2.436 -0.5364 -0.9957 -0.6970
  181MOL   H20136561   5.087   6.507   2.709 -4.6396 -0.7374 -0.7622
  181MOL   H20236562   5.155   6.645   2.667  0.9784 -1.3866  2.6333
  182MOL     C136563   5.601   4.258   0.793 -0.2074 -0.0573  0.1030
  182MOL     O236564   5.681   4.267   0.692  0.0264 -0.6554 -0.5910
  182MOL     C336565   5.551   4.113   0.831 -0.3968  0.1273 -0.4963
  182MOL     C436566   5.561   4.012   0.706  0.3337 -0.2649 -0.1614
  182MOL     N536567   5.557   3.877   0.757  0.1747 -0.1696 -0.6074
  182MOL     H636568   5.457   4.114   0.886 -0.8026 -1.6178 -1.1295
  182MOL     H736569   5.621   4.102   0.914  0.8444  1.0854 -1.4013
  182MOL     H836570   5.652   4.038   0.652  0.0478  2.0293  0.4202
  182MOL     H936571   5.471   4.029   0.647  0.1128 -0.9901 -0.0378
  182MOL    H1036572   5.463   3.847   0.777  0.9207 -1.0248  1.6994
  182MOL    H1136573   5.555   4.344   0.843  0.4395  0.2693  0.1407
  182MOL    C1236574   5.656   3.786   0.745 -0.9311 -0.0518  0.6089
  182MOL    O1336575   5.771   3.819   0.719 -0.2626 -0.0417 -0.1438
  182MOL    C1436576   5.625   3.641   0.754  0.2652  0.9171 -0.2044
  182MOL    C1536577   5.670   3.551   0.638  0.5555 -0.1536  0.1639
  182MOL    N1636578   5.626   3.593   0.504  0.1140 -0.2280  0.3987
  182MOL    H1736579   5.519   3.634   0.779 -0.3322  2.0021 -2.3091
  182MOL    H1836580   5.671   3.602   0.845 -1.8893  0.4829  0.7425
  182MOL    H1936581   5.778   3.542   0.630  0.6260  2.0878 -1.9086
  182MOL    H2036582   5.621   3.455   0.656  1.3844 -0.1289  2.7642
  182MOL    H2136583   5.693   3.629   0.438 -1.6083 -0.6022 -1.5944
  182MOL    C2236584   5.504   3.591   0.458  0.3110 -0.0083 -0.1844
  182MOL    O2336585   5.411   3.550   0.522  0.2155 -0.6533 -0.5718
  182MOL    C2436586   5.480   3.636   0.318  0.2415 -0.3057  1.1280
  182MOL    C2536587   5.482   3.792   0.321 -0.2129  0.0169 -0.3379
  182MOL    N2636588   5.522   3.831   0.185 -0.7798  0.9230  0.1203
  182MOL    H2736589   5.389   3.593   0.276  0.0569  0.5420  0.6446
  182MOL    H2836590   5.559   3.601   0.252 -0.1352  1.5192 -0.3326
  182MOL    H2936591   5.390   3.846   0.345  0.6475  1.2848  0.1696
  182MOL    H3036592   5.565   3.835   0.376 -0.5068 -1.6911  1.5192
  182MOL    H3136593   5.617   3.864   0.173 -0.2993  0.4442  2.4339
  182MOL    C3236594   5.439   3.858   0.090  0.1235 -0.1772 -0.7810
  182MOL    O3336595   5.316   3.847   0.099  0.1751 -0.2107  0.5081
  182MOL    C3436596   5.500   3.930   7.748  0.0008  0.0832 -0.7669
  182MOL    C3536597   5.487   3.850   7.615 -0.6213  0.0319 -0.7802
  182MOL    N3636598   5.505   3.927   7.497 -0.2471 -0.6831  0.0620
  182MOL    H3736599   5.596   3.977   7.768 -0.1911  0.2881 -0.3244
  182MOL    H3836600   5.435   4.017   7.736  0.9801  0.7800 -1.1098
  182MOL    H3936601   5.567   3.776   7.616 -0.7918 -0.1630 -1.5422
  182MOL    H4036602   5.397   3.789   7.617 -0.9531  0.5395  0.5721
  182MOL    H4136603   5.593   3.975   7.483 -0.5950  0.6951  2.2907
  182MOL    C4236604   5.398   3.977   7.437  0.2024  0.3556  0.2968
  182MOL    O4336605   5.285   3.942   7.468 -0.0489  0.2052  0.2529
  182MOL    C4436606   5.415   4.086   7.329  0.0984 -0.4705  0.3334
  182MOL    C4536607   5.465   4.025   7.194  0.1438 -0.1071  0.6656
  182MOL    N4636608   5.491   4.127   7.093 -0.3676  1.1153 -0.3255
  182MOL    H4736609   5.319   4.135   7.312 -0.2307 -1.9029 -2.0507
  182MOL    H4836610   5.494   4.153   7.363 -0.1479 -0.1512  0.2814
  182MOL    H4936611   5.555   3.966   7.210 -1.3644 -1.8701  3.0280
  182MOL    H5036612   5.389   3.956   7.157  1.5767 -0.6987 -1.2432
  182MOL    H5136613   5.429   4.131   7.013 -1.3196  1.2894  0.4087
  182MOL    C5236614   5.589   4.211   7.087  0.4862  0.1914 -0.2712
  182MOL    O5336615   5.675   4.237   7.175  0.3715 -0.6506 -0.2996
  182MOL    C5436616   5.584   4.293   6.959 -0.6688  0.0941  0.0478
  182MOL    C5536617   5.725   4.331   6.902  0.5716 -0.0006  0.3934
  182MOL    N5636618   5.813   4.220   6.870  0.1270  0.0858  0.3138
  182MOL    H5736619   5.528   4.229   6.890 -1.4687 -0.7308  1.4340
  182MOL    H5836620   5.528   4.382   6.984 -1.4449 -0.9871  2.3516
  182MOL    H5936621   5.770   4.399   6.974  2.0057  0.9786 -1.3628
  182MOL    H6036622   5.712   4.384   6.807 -0.1888  1.1726  1.1495
  182MOL    H6136623   5.778   4.142   6.816 -0.4260  1.7416 -1.8135
  182MOL    C6236624   5.939   4.229   6.891  0.3037 -0.2685 -0.0907
  182MOL    O6336625   5.993   4.329   6.934  0.3163 -0.3713  0.2776
  182MOL    C6436626   6.021   4.114   6.834  0.2357  0.3435 -0.1054
  182MOL    C6536627   6.001   3.983   6.911  0.6253 -0.0287 -0.0542
  182MOL    N6636628   6.074   3.872   6.855  0.8400  0.2255  0.6934
  182MOL    H6736629   5.999   4.107   6.727  1.2486 -0.1940 -0.2906
  182MOL    H6836630   6.126   4.143   6.845 -0.1738  1.9095 -0.2470
  182MOL    H6936631   6.049   4.005   7.006  1.7128 -1.5031 -0.2388
  182MOL    H7036632   5.894   3.961   6.917  0.9738 -1.2947  2.1934
  182MOL    H7136633   6.023   3.808   6.796  1.7725 -0.8599  1.0408
  182MOL    C7236634   6.207   3.861   6.858 -0.3813  0.7214  0.7797
  182MOL    O7336635   6.275   3.936   6.931  0.4803  0.0889 -0.9209
  182MOL    C7436636   6.273   3.748   6.768  0.2492  0.1704 -0.5955
  182MOL    C7536637   6.432   3.755   6.773 -0.7570 -0.2275 -0.0639
  182MOL    N7636638   6.474   3.864   6.690 -0.7091 -0.4500  0.3647
  182MOL    H7736639   6.251   3.650   6.812 -0.0576  1.0133  1.1829
  182MOL    H7836640   6.229   3.764   6.670 -1.2724  1.5340  0.2923
  182MOL    H7936641   6.458   3.789   6.873  1.1784 -0.1814 -0.5621
  182MOL    H8036642   6.476   3.660   6.745  2.5778  1.1540  0.3120
  182MOL    H8136643   6.447   3.959   6.712 -0.5194 -0.6404  1.4143
  182MOL    C8236644   6.538   3.853   6.575 -0.3750  0.5054  1.1459
  182MOL    O8336645   6.564   3.742   6.524  0.4364 -0.2426  0.2085
  182MOL    C8436646   6.579   3.981   6.492  0.4613 -0.0045  0.4676
  182MOL    C8536647   6.721   3.979   6.455 -0.3100  0.2227  0.0416
  182MOL    N8636648   6.771   3.876   6.363  0.3011  0.1402 -0.0830
  182MOL    H8736649   6.518   3.988   6.402 -0.2835  0.0458  0.9645
  182MOL    H8836650   6.568   4.078   6.541 -0.2051  0.1107  0.1056
  182MOL    H8936651   6.754   4.074   6.412  0.2541 -0.1933 -0.4528
  182MOL    H9036652   6.778   3.957   6.545 -0.2823 -1.9594 -0.4990
  182MOL    H9136653   6.702   3.803   6.351  0.9093 -0.7902  1.8694
  182MOL    C9236654   6.898   3.861   6.311 -0.2636 -0.2773 -0.0606
  182MOL    O9336655   6.976   3.950   6.334 -0.1663  0.4678 -0.2864
  182MOL    C9436656   6.921   3.739   6.226 -0.4355  0.4218 -0.5593
  182MOL    C9536657   7.038   3.653   6.267  0.9909 -0.0637  0.1953
  182MOL    N9636658   7.057   3.530   6.190  0.3950  0.2099  0.6553
  182MOL    H9736659   6.833   3.675   6.217  0.9328 -1.1980 -2.7548
  182MOL    H9836660   6.954   3.762   6.125  3.2493 -1.5005  0.1366
  182MOL    H9936661   7.124   3.719   6.280 -1.0630  2.3177  2.4869
  182MOL   H10036662   7.016   3.622   6.370 -1.8784 -0.3042 -0.4702
  182MOL   H10136663   7.090   3.538   6.095  0.0108  2.5974  0.7052
  182MOL   C10236664   7.027   3.405   6.229 -0.2752 -0.4617 -0.4034
  182MOL   O10336665   6.975   3.381   6.340 -0.0004  0.3654  0.4789
  182MOL   C10436666   7.050   3.289   6.136 -0.1403  0.0960 -0.0897
  182MOL   C10536667   6.957   3.173   6.143  0.1910  0.0843  0.7667
  182MOL   N10636668   6.962   3.084   6.022 -0.7545 -0.2637  0.2396
  182MOL   H10736669   7.144   3.244   6.166 -1.9197 -2.8895  1.1963
  182MOL   H10836670   7.063   3.324   6.034  0.4971  0.9895  0.2832
  182MOL   H10936671   6.985   3.114   6.231 -0.8219  0.6513  1.4781
  182MOL   H11036672   6.851   3.197   6.156 -0.3639 -2.2242  0.6168
  182MOL   H11136673   6.871   3.052   5.992 -0.9558 -0.1696  0.7572
  182MOL   C11236674   7.062   3.000   5.990 -0.1633 -0.2824 -0.1839
  182MOL   O11336675   7.175   3.014   6.038 -0.2359 -1.0677  0.2187
  182MOL   C11436676   7.027   2.894   5.884  0.4938  0.0844  0.0303
  182MOL   C11536677   7.075   2.755   5.917  0.0286 -0.0713  0.3851
  182MOL   N11636678   7.223   2.750   5.950  0.3890 -0.2971  0.7296
  182MOL   H11736679   7.074   2.925   5.790  1.1650  2.4694  1.1168
  182MOL   H11836680   6.919   2.879   5.881  0.4216  0.4757  0.6602
  182MOL   H11936681   7.016   2.726   6.004  1.1938 -0.2967  1.1110
  182MOL   H12036682   7.060   2.701   5.823  1.0452  1.3520 -0.6172
  182MOL   H12136683   7.275   2.832   5.977 -0.2649  0.2345  0.3810
  182MOL   C12236684   7.305   2.651   5.913 -0.1431 -0.0878  0.2718
  182MOL   O12336685   7.263   2.537   5.885 -0.2147 -0.0278  0.8911
  182MOL   C12436686   7.453   2.681   5.912  0.5019 -0.2117 -0.2576
  182MOL   C12536687   7.528   2.552   5.884 -0.0840 -0.0738  0.3802
  182MOL   N12636688   7.673   2.577   5.899 -0.1551  0.3601 -0.7033
  182MOL   H12736689   7.461   2.731   6.008 -0.0455 -0.5951 -0.0077
  182MOL   H12836690   7.481   2.757   5.840  1.2599 -0.9844 -0.7914
  182MOL   H12936691   7.508   2.468   5.950 -1.4103 -0.4059 -0.4330
  182MOL   H13036692   7.510   2.520   5.781 -0.5189  2.1168 -0.2642
  182MOL   H13136693   7.720   2.576   5.989  2.0813 -1.6419 -1.8493
  182MOL   C13236694   7.756   2.616   5.799  0.1181 -0.2783  0.6545
  182MOL   O13336695   7.709   2.643   5.690  0.2788 -0.2840 -0.1459
  182MOL   C13436696   0.124   2.607   5.822 -0.3464  0.2457  0.5018
  182MOL   C13536697   0.210   2.590   5.693  0.3406 -0.3051 -0.6195
  182MOL   N13636698   0.199   2.454   5.647  0.0184 -0.0264 -0.2941
  182MOL   H13736699   0.157   2.548   5.907  0.0839 -0.6550 -0.2872
  182MOL   H13836700   0.154   2.707   5.855 -0.8993 -0.7872  4.3001
  182MOL   H13936701   0.168   2.663   5.623  0.6832  0.1024 -0.4009
  182MOL   H14036702   0.316   2.612   5.691  0.7203 -2.1412 -1.8076
  182MOL   H14136703   0.124   2.415   5.592 -0.8602  2.0047 -0.6002
  182MOL   C14236704   0.275   2.356   5.679  0.6758  0.6309 -0.7064
  182MOL   O14336705   0.365   2.362   5.763  0.1304 -0.8953 -0.4970
  182MOL   C14436706   0.251   2.221   5.604  0.7128 -0.3390 -0.0026
  182MOL   C14536707   0.371   2.150   5.545  0.2354  0.0943  0.2320
  182MOL   N14636708   0.469   2.120   5.649  0.1313  0.2949  0.3251
  182MOL   H14736709   0.182   2.250   5.525  2.2519  2.8625 -0.2586
  182MOL   H14836710   0.204   2.150   5.671  1.5522  0.1548  1.1294
  182MOL   H14936711   0.324   2.061   5.502  0.5117  0.4108 -0.7160
  182MOL   H15036712   0.413   2.203   5.460  0.3538 -1.2331 -0.5524
  182MOL   H15136713   0.519   2.192   5.698  1.9740  0.9249 -2.3766
  182MOL   C15236714   0.518   1.995   5.652  0.2649 -0.3700 -0.3591
  182MOL   O15336715   0.476   1.895   5.599 -0.1855 -0.0283  0.5373
  182MOL   C15436716   0.655   1.983   5.724 -0.1353 -0.4217  0.1538
  182MOL   C15536717   0.746   1.866   5.678  0.3002  0.6339  0.1411
  182MOL   N15636718   0.702   1.746   5.742  0.2077  0.0882 -0.8164
  182MOL   H15736719   0.657   1.988   5.833  0.8265  0.1673  0.1236
  182MOL   H15836720   0.714   2.073   5.705  0.0464 -0.4620  0.5228
  182MOL   H15936721   0.747   1.852   5.570 -2.6869  3.4345 -0.3150
  182MOL   H16036722   0.847   1.889   5.712  0.0998 -0.1015  1.2563
  182MOL   H16136723   0.637   1.749   5.819 -0.0962  0.3263 -1.0803
  182MOL   C16236724   0.735   1.622   5.708  0.7625  0.3790 -0.2537
  182MOL   O16336725   0.801   1.600   5.610 -0.0390  0.2619 -0.4965
  182MOL   C16436726   0.701   1.502   5.797 -0.1103  0.7087 -0.1113
  182MOL   C16536727   0.829   1.450   5.866 -0.5850  0.6654  0.4054
  182MOL   N16636728   0.922   1.370   5.782 -0.2466 -0.1220 -0.1251
  182MOL   H16736729   0.637   1.430   5.748  1.1486  0.4782 -1.4641
  182MOL   H16836730   0.636   1.527   5.881  0.2388  1.8071 -0.1588
  182MOL   H16936731   0.892   1.529   5.906 -1.4303  0.7106  1.6749
  182MOL   H17036732   0.804   1.395   5.957 -0.3288  1.0813  0.7245
  182MOL   H17136733   0.982   1.430   5.726 -0.4737  0.1433 -0.0857
  182MOL   C17236734   0.914   1.241   5.761 -0.4646  0.2987 -0.0224
  182MOL   O17336735   0.834   1.170   5.822  0.2561 -0.5324  0.0105
  182MOL   C17436736   0.997   1.187   5.646 -0.7268 -0.8957 -0.6455
  182MOL   C17536737   1.033   1.036   5.660 -0.5713 -0.3279 -0.4273
  182MOL   N17636738   1.148   1.010   5.735  0.2388 -0.6052 -0.1911
  182MOL   H17736739   1.087   1.248   5.648 -1.8325  0.7264  0.9123
  182MOL   H17836740   0.947   1.200   5.550 -1.7082 -2.7425 -0.4195
  182MOL   H17936741   0.945   0.979   5.691  0.5072 -0.8532  1.7807
  182MOL   H18036742   1.050   0.999   5.560 -1.4695  1.9623 -1.4643
  182MOL   H18136743   1.133   0.997   5.834 -2.4761  1.4078 -0.2676
  182MOL   C18236744   1.273   0.984   5.696  0.6456  0.6811  0.1856
  182MOL   O18336745   1.304   0.985   5.578  0.6625 -0.1994 -0.5794
  182MOL   C18436746   1.377   0.958   5.802 -0.1983  0.2476  0.3324
  182MOL   C18536747   1.457   1.083   5.833 -0.1734 -0.2995  0.2906
  182MOL   N18636748   1.376   1.194   5.890 -0.5789 -0.0869 -0.8572
  182MOL   H18736749   1.449   0.879   5.780  2.2271  2.0316  1.6208
  182MOL   H18836750   1.323   0.922   5.890 -0.4624  0.4680  0.2600
  182MOL   H18936751   1.541   1.069   5.901 -0.9121  2.1342  1.7222
  182MOL   H19036752   1.513   1.104   5.741 -0.1293 -0.0785  0.3666
  182MOL   H19136753   1.313   1.163   5.963  0.3294 -1.0011 -0.4655
  182MOL   C19236754   1.396   1.317   5.860 -0.0792 -0.2038  0.3306
  182MOL   O19336755   1.485   1.358   5.797  0.3008 -0.0309  0.0065
  182MOL   C19436756   1.284   1.414   5.903  0.4603  0.3183  0.3842
  182MOL   C19536757   1.309   1.489   6.037  0.6558 -0.4580  0.6185
  182MOL   N19636758   1.418   1.591   6.024  0.2326  0.2460  0.8632
  182MOL   H19736759   1.263   1.489   5.827 -1.9459 -1.0555 -0.3557
  182MOL   H19836760   1.184   1.370   5.895  0.5842  0.3395 -1.4712
  182MOL   H19936761   1.221   1.547   6.065  1.3701 -0.5403  3.2232
  182MOL   H20036762   1.333   1.413   6.112  1.6814 -2.6435 -1.8536
  182MOL   H20136763   1.506   1.545   6.009 -0.3494 -0.2728 -1.1030
  182MOL   H20236764   1.431   1.632   6.116 -2.3779  1.0245  0.9325
  183MOL     C136765   5.491   3.821   1.077  0.2623  0.3415 -0.2555
  183MOL     O236766   5.603   3.769   1.074  0.0514  0.1849  0.6636
  183MOL     C336767   5.468   3.941   1.165 -0.0984 -0.0839  0.4145
  183MOL     C436768   5.564   3.950   1.287  0.2924 -0.0137  0.7478
  183MOL     N536769   5.527   4.055   1.380 -0.1998 -0.0194  0.2520
  183MOL     H636770   5.361   3.953   1.184  0.1283  1.6875  0.7022
  183MOL     H736771   5.497   4.033   1.114  1.6140 -0.9173 -0.1558
  183MOL     H836772   5.656   3.984   1.239 -1.0493 -0.4948 -2.3199
  183MOL     H936773   5.570   3.856   1.342 -1.4358  0.5621  1.9454
  183MOL    H1036774   5.590   4.130   1.404 -0.1665 -0.0663  0.3083
  183MOL    H1136775   5.403   3.778   1.029  0.5161 -0.4887  0.0111
  183MOL    C1236776   5.418   4.066   1.456  1.0643 -0.0345  0.4718
  183MOL    O1336777   5.329   3.976   1.457  0.3428  0.3356  0.4205
  183MOL    C1436778   5.412   4.188   1.540 -0.5571 -0.5045  0.1650
  183MOL    C1536779   5.314   4.288   1.487  0.4361  0.5946  0.3026
  183MOL    N1636780   5.295   4.404   1.577 -0.3273  0.0473  0.2406
  183MOL    H1736781   5.514   4.228   1.542 -0.5646 -0.4985  0.5464
  183MOL    H1836782   5.383   4.147   1.637  0.7668  0.4915  0.9990
  183MOL    H1936783   5.347   4.310   1.386 -2.2698 -2.6527 -1.4210
  183MOL    H2036784   5.215   4.242   1.492 -0.1394  1.8633  0.6846
  183MOL    H2136785   5.321   4.373   1.670  1.1799  0.3863 -0.0655
  183MOL    C2236786   5.240   4.520   1.551  0.0382  0.1811 -0.3938
  183MOL    O2336787   5.219   4.564   1.433 -0.1782  0.6114 -0.1669
  183MOL    C2436788   5.208   4.614   1.672 -0.2534  0.0905  0.2798
  183MOL    C2536789   5.278   4.747   1.665 -0.0841 -0.6415  0.0837
  183MOL    N2636790   5.424   4.737   1.655 -0.1332 -0.6801  0.1172
  183MOL    H2736791   5.233   4.573   1.770  3.4755  0.9295 -0.2692
  183MOL    H2836792   5.101   4.630   1.684  0.1131  0.7757  2.7934
  183MOL    H2936793   5.216   4.801   1.593 -1.7595 -1.4858  0.8595
  183MOL    H3036794   5.260   4.792   1.762 -2.4064 -0.9355 -0.1810
  183MOL    H3136795   5.462   4.653   1.695  0.8795  0.3699  1.3928
  183MOL    C3236796   5.510   4.816   1.590 -0.5308  0.1217  0.1302
  183MOL    O3336797   5.482   4.911   1.518 -0.0231  0.5472 -0.0283
  183MOL    C3436798   5.651   4.777   1.619  0.2155  0.0647  0.2202
  183MOL    C3536799   5.745   4.794   1.499  0.1187 -0.3013  0.2024
  183MOL    N3636800   5.868   4.709   1.510  0.7173  0.0469  0.4258
  183MOL    H3736801   5.649   4.670   1.641  1.6597  0.1672  0.9649
  183MOL    H3836802   5.675   4.824   1.714 -1.1137  1.8502 -0.3144
  183MOL    H3936803   5.693   4.773   1.405 -2.2003  0.2617  1.3249
  183MOL    H4036804   5.781   4.897   1.509 -0.6363 -0.1660  1.6261
  183MOL    H4136805   5.879   4.634   1.443 -0.2376  0.0232  0.2883
  183MOL    C4236806   5.967   4.712   1.603  0.1700 -0.6042 -0.0378
  183MOL    O4336807   5.991   4.814   1.671  0.5579  0.3639 -0.1498
  183MOL    C4436808   6.060   4.590   1.612 -0.1444 -0.6275  0.2954
  183MOL    C4536809   6.128   4.574   1.746  0.4168  0.6196  0.2773
  183MOL    N4636810   6.225   4.470   1.748  0.2676  0.0030 -0.2444
  183MOL    H4736811   6.012   4.494   1.592 -1.5952  0.3631 -1.1197
  183MOL    H4836812   6.141   4.597   1.539 -0.8545  0.3704 -0.4167
  183MOL    H4936813   6.176   4.669   1.769  1.3642 -0.1464  1.5361
  183MOL    H5036814   6.046   4.560   1.816  0.8833 -1.5985  0.4267
  183MOL    H5136815   6.273   4.446   1.663 -1.7490 -0.0452 -1.4037
  183MOL    C5236816   6.274   4.413   1.858  0.1391 -0.0220  0.4090
  183MOL    O5336817   6.225   4.445   1.969 -0.5195 -0.0571 -0.0951
  183MOL    C5436818   6.381   4.304   1.856 -0.0657 -0.5030 -0.1768
  183MOL    C5536819   6.517   4.342   1.917  0.2996 -0.0153 -0.5209
  183MOL    N5636820   6.597   4.416   1.816 -0.9317  0.8173 -0.2625
  183MOL    H5736821   6.333   4.215   1.897  2.0489 -0.8891  1.5031
  183MOL    H5836822   6.391   4.283   1.750 -3.2136 -0.0522 -0.6149
  183MOL    H5936823   6.569   4.251   1.947  0.5437  0.4148  0.3805
  183MOL    H6036824   6.501   4.400   2.008 -1.2404 -0.6888 -0.3456
  183MOL    H6136825   6.539   4.461   1.746  1.4662 -0.0483 -2.8839
  183MOL    C6236826   6.728   4.424   1.788  0.2946  0.1335  0.6163
  183MOL    O6336827   6.812   4.368   1.852 -0.3399  0.2113  0.5292
  183MOL    C6436828   6.767   4.516   1.678 -0.5880  0.7116 -0.5786
  183MOL    C6536829   6.780   4.455   1.536  0.4330  0.1809 -0.7474
  183MOL    N6636830   6.807   4.562   1.435  0.2725 -0.0700 -0.0783
  183MOL    H6736831   6.693   4.596   1.676  0.0407  1.4514  2.7956
  183MOL    H6836832   6.859   4.560   1.716 -1.2190 -1.0769  3.2431
  183MOL    H6936833   6.864   4.385   1.541 -0.2237 -0.4838  1.4936
  183MOL    H7036834   6.707   4.381   1.504 -0.9380  0.9662  0.5260
  183MOL    H7136835   6.742   4.572   1.358  0.0901  0.5822  0.1534
  183MOL    C7236836   6.922   4.629   1.432 -0.2190 -0.7797  0.4955
  183MOL    O7336837   7.013   4.602   1.512 -0.6380 -0.2325  0.7064
  183MOL    C7436838   6.919   4.759   1.343 -0.8860  0.1852 -0.3687
  183MOL    C7536839   7.041   4.853   1.350 -0.1833  0.2715 -0.3110
  183MOL    N7636840   7.000   4.983   1.307  0.3892 -0.4182 -0.1713
  183MOL    H7736841   6.905   4.732   1.239 -0.4548  3.0673 -1.2040
  183MOL    H7836842   6.827   4.811   1.369  0.0863  1.8870 -0.2938
  183MOL    H7936843   7.087   4.859   1.448  3.4980 -0.0828 -1.9025
  183MOL    H8036844   7.121   4.823   1.282  0.5946  2.1670 -0.2484
  183MOL    H8136845   7.015   5.054   1.377  0.7961 -0.7597  0.0971
  183MOL    C8236846   6.954   5.026   1.193  0.4120 -0.0153 -0.4907
  183MOL    O8336847   6.952   4.954   1.091  0.7150 -0.2034 -0.0036
  183MOL    C8436848   6.930   5.183   1.184  0.1348 -0.4806 -0.2520
  183MOL    C8536849   6.815   5.227   1.276 -0.0232 -0.3846  0.0760
  183MOL    N8636850   6.847   5.328   1.382 -0.1187  0.0917 -0.5229
  183MOL    H8736851   7.011   5.235   1.234 -1.0212  1.0132  0.1127
  183MOL    H8836852   6.928   5.200   1.076  0.2096 -4.1273 -0.8942
  183MOL    H8936853   6.739   5.276   1.216  1.4641  2.2093  0.2655
  183MOL    H9036854   6.781   5.137   1.328  0.6598 -0.5168  0.3038
  183MOL    H9136855   6.786   5.408   1.391 -1.7918 -0.8169 -3.2186
  183MOL    C9236856   6.939   5.314   1.480  0.6796  0.2605  0.4233
  183MOL    O9336857   6.999   5.215   1.493 -0.3530 -0.0890 -0.0793
  183MOL    C9436858   6.962   5.433   1.578 -0.1840  0.5912 -0.2555
  183MOL    C9536859   7.045   5.394   1.707 -0.4706 -0.2301  0.3001
  183MOL    N9636860   7.195   5.361   1.689  0.3940  0.0990  0.5399
  183MOL    H9736861   7.014   5.514   1.527  1.5995  1.0095  2.1161
  183MOL    H9836862   6.869   5.474   1.616  0.1466  0.8931  0.2337
  183MOL    H9936863   7.041   5.483   1.770 -1.8185 -0.3370  0.3793
  183MOL   H10036864   7.001   5.306   1.755  1.5687 -2.0640 -1.0544
  183MOL   H10136865   7.213   5.262   1.699 -0.7992 -0.0135  1.7176
  183MOL   C10236866   7.282   5.445   1.635  0.0332  0.0010 -0.2415
  183MOL   O10336867   7.262   5.561   1.608  0.2567 -0.4730  0.6349
  183MOL   C10436868   7.423   5.379   1.605  0.2679  0.1038 -0.6151
  183MOL   C10536869   7.504   5.450   1.496  0.0234  0.1817  0.2440
  183MOL   N10636870   7.570   5.578   1.530  0.7255 -0.3223  0.2155
  183MOL   H10736871   7.414   5.276   1.570  0.9772 -0.7018  1.5050
  183MOL   H10836872   7.480   5.384   1.698 -0.2368  2.9057 -0.4441
  183MOL   H10936873   7.590   5.384   1.489  1.3132  1.9281 -1.0413
  183MOL   H11036874   7.450   5.453   1.401  1.7777 -0.3458 -0.7849
  183MOL   H11136875   7.631   5.579   1.610 -0.0966  1.4451  0.8497
  183MOL   C11236876   7.563   5.692   1.458 -0.1249  0.1856  0.4589
  183MOL   O11336877   7.484   5.701   1.361  0.6537  0.2108 -0.3390
  183MOL   C11436878   7.647   5.810   1.490  0.1453  0.2421 -0.4729
  183MOL   C11536879   7.582   5.902   1.587 -0.1067 -0.5350  0.3227
  183MOL   N11636880   7.651   6.030   1.595 -0.4889  0.6196 -0.1619
  183MOL   H11736881   7.651   5.863   1.394  1.6549  1.9678  0.5199
  183MOL   H11836882   7.742   5.774   1.530 -0.0695  2.3381  2.0451
  183MOL   H11936883   7.479   5.925   1.559  1.1609  3.4141 -1.4773
  183MOL   H12036884   7.584   5.867   1.690  0.8581 -0.1399  0.4413
  183MOL   H12136885   7.705   6.064   1.516 -0.8423  2.6473  0.4423
  183MOL   C12236886   7.633   6.112   1.703 -0.4736  0.4517  0.3900
  183MOL   O12336887   7.557   6.088   1.795 -0.4249 -0.2853 -0.3375
  183MOL   C12436888   7.701   6.248   1.689 -0.5472  0.1924  0.1509
  183MOL   C12536889   7.600   6.359   1.677 -0.3584  0.0065 -0.0583
  183MOL   N12636890   7.552   6.370   1.540 -0.5031 -0.0165 -0.0303
  183MOL   H12736891   7.771   6.244   1.606 -0.3440 -0.0430  0.3329
  183MOL   H12836892   7.766   6.260   1.776 -0.0775 -0.2943 -0.1276
  183MOL   H12936893   7.508   6.363   1.736  0.1669  0.3978  0.7474
  183MOL   H13036894   7.647   6.451   1.712 -1.7618  0.3253  1.0553
  183MOL   H13136895   7.471   6.317   1.509 -1.4770  1.6529 -0.4002
  183MOL   C13236896   7.620   6.435   1.449 -0.1952  0.7414 -0.0501
  183MOL   O13336897   7.730   6.487   1.468 -0.2387 -0.0639  0.6757
  183MOL   C13436898   7.558   6.453   1.315 -0.8246  0.6429  0.3348
  183MOL   C13536899   7.608   6.347   1.214  0.6938  0.1370 -0.1751
  183MOL   N13636900   7.565   6.357   1.074 -0.2423  0.1635 -0.9059
  183MOL   H13736901   7.593   6.544   1.266  1.6868 -0.2822  0.3160
  183MOL   H13836902   7.449   6.447   1.323 -0.8911  0.7283 -0.4577
  183MOL   H13936903   7.715   6.368   1.212  1.0896 -1.7953 -0.3399
  183MOL   H14036904   7.592   6.247   1.255 -0.5384 -0.1701 -1.3693
  183MOL   H14136905   7.506   6.279   1.047 -1.4749  0.8024 -0.1047
  183MOL   C14236906   7.590   6.463   0.990 -0.6693  0.1891 -0.3076
  183MOL   O14336907   7.667   6.559   1.021 -0.0805 -0.1739 -0.4668
  183MOL   C14436908   7.524   6.462   0.852 -0.2586 -0.1753 -0.0774
  183MOL   C14536909   7.590   6.348   0.767 -0.0337 -0.3336  0.3847
  183MOL   N14636910   7.726   6.371   0.740 -0.2671 -0.2388 -0.5828
  183MOL   H14736911   7.538   6.558   0.802 -1.8452  1.3182  2.2775
  183MOL   H14836912   7.419   6.442   0.874 -0.1497  0.0204  0.6429
  183MOL   H14936913   7.569   6.249   0.807 -1.2712 -0.9259 -1.6353
  183MOL   H15036914   7.550   6.340   0.666  0.8861  0.8407 -0.0953
  183MOL   H15136915   7.755   6.436   0.668 -1.9645  0.0125 -1.0649
  183MOL   C15236916   0.048   6.297   0.784 -0.4994 -0.9596 -0.0929
  183MOL   O15336917   0.042   6.212   0.865 -0.2676  0.1556 -0.6497
  183MOL   C15436918   0.186   6.345   0.730 -0.4985  1.0977 -0.5634
  183MOL   C15536919   0.308   6.279   0.803 -0.5808  0.2027 -0.0282
  183MOL   N15636920   0.431   6.337   0.759  0.0795  0.1008 -0.8078
  183MOL   H15736921   0.187   6.453   0.745 -1.0005  1.1886 -1.1619
  183MOL   H15836922   0.183   6.324   0.623 -0.8821 -1.2186 -0.1182
  183MOL   H15936923   0.307   6.310   0.908 -2.1198 -0.0057  0.0308
  183MOL   H16036924   0.315   6.170   0.806 -2.6273  0.0086 -0.8823
  183MOL   H16136925   0.437   6.359   0.660  5.0625  0.6406 -0.5289
  183MOL   C16236926   0.544   6.360   0.828 -0.5588  0.5549  0.1203
  183MOL   O16336927   0.551   6.340   0.950 -0.1678 -0.4070  0.0088
  183MOL   C16436928   0.657   6.426   0.745 -0.1401 -0.1938  0.5641
  183MOL   C16536929   0.800   6.414   0.803  0.3449  0.5990 -0.2011
  183MOL   N16636930   0.884   6.311   0.734 -0.0528 -0.0218  0.3452
  183MOL   H16736931   0.641   6.533   0.743  0.0062 -0.2025 -1.3806
  183MOL   H16836932   0.656   6.391   0.642  1.1647 -1.7950  1.0756
  183MOL   H16936933   0.854   6.509   0.798  0.6182  0.4438 -0.2395
  183MOL   H17036934   0.798   6.393   0.910  0.3849 -2.4495 -0.7494
  183MOL   H17136935   0.915   6.227   0.781  0.3006 -1.0939 -1.7273
  183MOL   C17236936   0.929   6.328   0.605 -0.0494  0.1783 -0.1584
  183MOL   O17336937   0.890   6.416   0.533  0.8648 -0.0877  0.3251
  183MOL   C17436938   1.030   6.221   0.562  0.1746  0.2020 -0.5810
  183MOL   C17536939   1.097   6.219   0.421  0.3260  0.3387  0.4959
  183MOL   N17636940   1.209   6.121   0.418 -0.4147 -0.1715  0.2801
  183MOL   H17736941   0.979   6.127   0.581 -0.3071  0.5254 -0.2520
  183MOL   H17836942   1.101   6.220   0.644  1.3330  3.5301 -1.4494
  183MOL   H17936943   1.022   6.194   0.345  0.8237  3.3196 -1.0509
  183MOL   H18036944   1.150   6.312   0.398 -0.1926  0.6114  0.3928
  183MOL   H18136945   1.179   6.036   0.372  0.4650 -0.3326 -0.0114
  183MOL   C18236946   1.331   6.120   0.477 -0.2057  0.1458  0.5926
  183MOL   O18336947   1.385   6.210   0.540  0.1741  0.3706 -0.3307
  183MOL   C18436948   1.417   5.996   0.445  0.3577 -0.4330  0.2179
  183MOL   C18536949   1.462   5.982   0.299  0.7382 -0.5644 -0.0313
  183MOL   N18636950   1.426   5.857   0.230  0.2907 -0.5280  0.1227
  183MOL   H18736951   1.356   5.907   0.462  0.3686 -0.3420  0.7211
  183MOL   H18836952   1.507   5.989   0.504  0.8854 -1.4780 -0.6973
  183MOL   H18936953   1.413   6.055   0.235  0.7395 -1.0083 -0.5333
  183MOL   H19036954   1.571   5.984   0.308  0.8459  0.6649 -1.4788
  183MOL   H19136955   1.492   5.781   0.235 -0.4554 -1.3025 -1.5086
  183MOL   C19236956   1.307   5.837   0.178 -0.6461  0.1817 -0.2390
  183MOL   O19336957   1.219   5.925   0.182  0.1527  0.1162 -0.4933
  183MOL   C19436958   1.280   5.708   0.107 -0.1634  0.0490  0.0847
  183MOL   C19536959   1.265   5.714   7.735  0.8060 -0.1134  0.2056
  183MOL   N19636960   1.176   5.816   7.693 -1.2061  0.4524  0.2730
  183MOL   H19736961   1.356   5.646   0.154 -0.2571 -0.1437 -0.0149
  183MOL   H19836962   1.182   5.670   0.139 -0.3440 -2.3670 -3.0254
  183MOL   H19936963   1.367   5.721   7.697  1.8347  0.6457  3.0003
  183MOL   H20036964   1.222   5.620   7.700  0.8223  1.2524 -3.7713
  183MOL   H20136965   1.230   5.899   7.714 -1.4949  0.5712  0.5545
  183MOL   H20236966   1.178   5.818   7.592 -1.4996 -0.8216  0.2348
  184MOL     C136967   4.450   5.380   0.968 -0.4882  0.3445 -0.7185
  184MOL     O236968   4.519   5.383   1.072  0.2364 -0.3208  0.8488
  184MOL     C336969   4.532   5.356   0.841 -0.9263  0.1657 -0.1038
  184MOL     C436970   4.518   5.476   0.745  0.0647 -0.3554  0.4257
  184MOL     N536971   4.582   5.602   0.787  0.1602 -0.4803 -0.3366
  184MOL     H636972   4.492   5.268   0.788 -2.1672 -1.3507  3.2102
  184MOL     H736973   4.638   5.354   0.866 -0.7805 -1.4879 -0.7135
  184MOL     H836974   4.412   5.479   0.721 -0.2331  1.5451  1.9130
  184MOL     H936975   4.558   5.453   0.646  0.0006  2.7216 -0.3395
  184MOL    H1036976   4.667   5.595   0.841  0.5663 -1.1117 -1.0527
  184MOL    H1136977   4.342   5.396   0.964 -0.6585 -0.5287  0.2152
  184MOL    C1236978   4.544   5.710   0.721  0.3572  0.1838 -0.0151
  184MOL    O1336979   4.454   5.715   0.637 -0.4275  0.4571 -0.0812
  184MOL    C1436980   4.625   5.839   0.742 -0.3684  0.3409  0.2386
  184MOL    C1536981   4.582   5.961   0.648 -0.0599 -0.5605  0.1577
  184MOL    N1636982   4.671   6.082   0.652 -0.7966  0.4852 -0.0371
  184MOL    H1736983   4.729   5.813   0.720 -1.9152 -5.2111 -1.1707
  184MOL    H1836984   4.622   5.870   0.847 -0.2588  1.3419 -0.0402
  184MOL    H1936985   4.574   5.917   0.548  0.6909  0.0866 -0.1964
  184MOL    H2036986   4.478   5.990   0.658 -0.4650 -1.8377 -0.1815
  184MOL    H2136987   4.657   6.154   0.721 -1.0452  1.0408 -0.6641
  184MOL    C2236988   4.772   6.114   0.570  0.6807  0.1991 -0.0989
  184MOL    O2336989   4.807   6.039   0.477 -0.0148  0.1565  0.0792
  184MOL    C2436990   4.841   6.249   0.585  0.6582  0.2175 -0.8650
  184MOL    C2536991   4.989   6.255   0.531  0.3372  0.0646  0.2612
  184MOL    N2636992   5.089   6.276   0.637  0.3770 -0.0920  0.2374
  184MOL    H2736993   4.827   6.285   0.687  1.9826 -1.3000 -0.1234
  184MOL    H2836994   4.780   6.306   0.515 -0.9426 -0.2979  0.0962
  184MOL    H2936995   5.007   6.158   0.485  0.9751 -0.5597  1.7945
  184MOL    H3036996   4.996   6.333   0.455  1.9974 -0.5424 -0.2155
  184MOL    H3136997   5.155   6.205   0.665  0.1147 -1.3895 -2.2776
  184MOL    C3236998   5.129   6.404   0.663 -0.4823 -0.1602  0.4066
  184MOL    O3336999   5.059   6.499   0.627  0.6046  0.8246  0.2585
  184MOL    C3437000   5.256   6.433   0.737 -0.1572 -0.3414 -0.0390
  184MOL    C3537001   5.251   6.440   0.893 -0.1800 -0.1417  0.1934
  184MOL    N3637002   5.173   6.557   0.934  0.7782  0.8306  0.6933
  184MOL    H3737003   5.301   6.527   0.704  0.3676 -1.1673 -1.7254
  184MOL    H3837004   5.339   6.368   0.711  0.7176 -0.0200  1.8954
  184MOL    H3937005   5.202   6.350   0.930  0.6930 -0.4562  0.6024
  184MOL    H4037006   5.350   6.448   0.937 -1.8420 -0.8042  4.3803
  184MOL    H4137007   5.077   6.545   0.965  0.9339  2.4187  1.8531
  184MOL    C4237008   5.210   6.682   0.919 -0.2025  0.4854 -0.3163
  184MOL    O4337009   5.325   6.711   0.892  0.1275  0.1328  0.0968
  184MOL    C4437010   5.105   6.789   0.945  0.3573  0.6971  0.0038
  184MOL    C4537011   5.102   6.896   0.843  0.3715  0.1405  0.1797
  184MOL    N4637012   5.116   7.023   0.910 -0.0959 -0.9133 -0.2145
  184MOL    H4737013   5.004   6.754   0.965  0.3915  0.3246 -0.4629
  184MOL    H4837014   5.139   6.829   1.040  0.4150  1.4668 -0.3343
  184MOL    H4937015   5.181   6.884   0.769  0.2305 -1.2951  0.2399
  184MOL    H5037016   5.003   6.887   0.797 -0.6618  2.5477  1.8637
  184MOL    H5137017   5.149   7.020   1.005  0.1258 -0.8006 -0.2873
  184MOL    C5237018   5.093   7.144   0.854 -0.4848  0.4277 -0.0352
  184MOL    O5337019   5.063   7.158   0.737 -0.5255  0.2952 -0.7423
  184MOL    C5437020   5.115   7.264   0.949  0.4446  0.3393 -0.1486
  184MOL    C5537021   5.136   7.402   0.886 -0.0472 -0.3580 -0.8170
  184MOL    N5637022   5.256   7.420   0.799 -0.1957  0.3972  0.6929
  184MOL    H5737023   5.032   7.272   1.019  0.0353  0.3938 -0.6368
  184MOL    H5837024   5.199   7.236   1.012 -0.6130 -0.6226  0.8707
  184MOL    H5937025   5.127   7.472   0.969 -0.1338 -2.0058  0.5859
  184MOL    H6037026   5.056   7.405   0.811  1.8097 -1.8895 -2.9458
  184MOL    H6137027   5.248   7.462   0.708  0.1968 -0.3098  0.3194
  184MOL    C6237028   5.380   7.402   0.841  0.0552 -0.3984 -0.6057
  184MOL    O6337029   5.408   7.382   0.960 -0.0407 -0.0942 -0.0828
  184MOL    C6437030   5.488   7.393   0.734 -0.7231  0.3782 -0.1220
  184MOL    C6537031   5.615   7.475   0.763 -0.0493 -0.0903 -0.7187
  184MOL    N6637032   5.698   7.418   0.873 -0.7978  0.2215 -0.5553
  184MOL    H6737033   5.524   7.290   0.743  0.3856  0.8004  0.4604
  184MOL    H6837034   5.451   7.412   0.633 -0.6284 -0.9757 -0.4272
  184MOL    H6937035   5.672   7.463   0.670 -0.1074  0.6377 -0.8552
  184MOL    H7037036   5.584   7.577   0.784 -0.4644 -0.3968  0.1608
  184MOL    H7137037   5.686   7.456   0.965 -0.2245  1.4993 -0.9944
  184MOL    C7237038   5.817   7.359   0.854 -0.1971  0.4293  0.3506
  184MOL    O7337039   5.858   7.332   0.745  0.2113  0.5273  0.8391
  184MOL    C7437040   5.904   7.333   0.975 -0.1933  0.3313  0.0564
  184MOL    C7537041   6.017   7.230   0.950 -0.5141 -0.4535  0.3968
  184MOL    N7637042   6.126   7.252   1.041  0.2588 -0.4272  0.5408
  184MOL    H7737043   5.957   7.426   0.994  3.4961 -1.2496 -1.9861
  184MOL    H7837044   5.842   7.306   1.061  0.2494  1.4379  0.7393
  184MOL    H7937045   5.972   7.131   0.957  0.7224 -1.1018 -0.7386
  184MOL    H8037046   6.059   7.241   0.850  1.5198 -0.1641  1.2610
  184MOL    H8137047   6.147   7.344   1.077  2.3672 -0.5647 -0.3087
  184MOL    C8237048   6.224   7.166   1.061 -0.7238 -0.0085  0.1903
  184MOL    O8337049   6.217   7.047   1.041  0.0499  0.2827  0.0234
  184MOL    C8437050   6.351   7.231   1.127 -0.8777 -0.0189 -0.6194
  184MOL    C8537051   6.493   7.192   1.065  0.6633 -0.4412  0.6092
  184MOL    N8637052   6.533   7.287   0.964  0.2082 -0.1571  0.1624
  184MOL    H8737053   6.334   7.339   1.132  1.5204  0.3646 -0.5783
  184MOL    H8837054   6.355   7.181   1.224  1.2622 -1.7642 -1.5614
  184MOL    H8937055   6.573   7.178   1.138  1.3699  0.4145  0.0017
  184MOL    H9037056   6.483   7.090   1.027  1.2443 -0.3369  0.1754
  184MOL    H9137057   6.608   7.346   0.997  0.4712 -0.2846 -0.2088
  184MOL    C9237058   6.513   7.301   0.835  0.0947  0.2829  0.4205
  184MOL    O9337059   6.447   7.212   0.776 -0.5131 -0.3502 -0.0774
  184MOL    C9437060   6.578   7.412   0.751 -0.2947 -1.1451  0.4523
  184MOL    C9537061   6.733   7.414   0.752 -0.5183 -0.6767  0.1811
  184MOL    N9637062   6.784   7.538   0.801 -0.0512 -0.1826 -0.9934
  184MOL    H9737063   6.544   7.397   0.649  0.8452  0.9606 -0.2666
  184MOL    H9837064   6.532   7.499   0.797  0.1665 -0.9523  0.5493
  184MOL    H9937065   6.775   7.342   0.822  0.4216  1.9204  2.3632
  184MOL   H10037066   6.766   7.398   0.650 -0.4211 -0.1504  0.1313
  184MOL   H10137067   6.812   7.603   0.729  0.0360  0.3165 -0.5101
  184MOL   C10237068   6.778   7.576   0.931 -0.1814  0.4209  0.4186
  184MOL   O10337069   6.758   7.491   1.018 -0.4067 -0.7312  0.8549
  184MOL   C10437070   6.793   7.720   0.969 -0.0394  0.0017  0.1129
  184MOL   C10537071   6.686   0.025   0.907 -0.1133  0.3178  0.4624
  184MOL   N10637072   6.560   0.023   0.982  0.3710  0.0943  0.2680
  184MOL   H10737073   6.896   7.746   0.942  0.2521  1.2377  2.2963
  184MOL   H10837074   6.790   7.727   1.077  0.4990  1.0438  0.0709
  184MOL   H10937075   6.717   0.129   0.911  0.7189  0.0571  1.0440
  184MOL   H11037076   6.680   7.766   0.805 -1.9154  0.7614  0.3896
  184MOL   H11137077   6.578   0.041   1.079 -1.1505  1.2210  0.3692
  184MOL   C11237078   6.439   7.762   0.936 -0.3835  0.1412 -0.6037
  184MOL   O11337079   6.422   7.731   0.814  0.3633  0.1506 -0.4276
  184MOL   C11437080   6.313   7.761   1.022  0.4717  0.0451 -0.2252
  184MOL   C11537081   6.257   7.620   1.042  0.8153 -0.2168  0.4434
  184MOL   N11637082   6.127   7.612   1.101 -0.4663 -0.1521  1.0648
  184MOL   H11737083   6.245   0.046   0.968 -1.0513 -0.2110  1.3220
  184MOL   H11837084   6.325   0.032   1.117 -2.3304  1.8017 -0.7373
  184MOL   H11937085   6.248   7.565   0.949 -2.1359 -0.1471  0.6320
  184MOL   H12037086   6.336   7.567   1.095  2.4930  1.7946  0.0040
  184MOL   H12137087   6.050   7.662   1.060  0.8078 -0.4131 -1.8045
  184MOL   C12237088   6.092   7.549   1.214 -1.2572 -0.3080 -0.2567
  184MOL   O12337089   6.172   7.474   1.276 -0.4551 -0.4461  0.4738
  184MOL   C12437090   5.954   7.587   1.271  0.3566  0.0970  0.1554
  184MOL   C12537091   5.927   7.501   1.394  0.4076 -0.1351  0.2882
  184MOL   N12637092   5.802   7.543   1.467  0.3399  0.8763  0.4415
  184MOL   H12737093   5.876   7.580   1.195 -1.5974  0.8880  2.0395
  184MOL   H12837094   5.962   7.692   1.298  1.0988  0.3211 -0.9152
  184MOL   H12937095   5.918   7.393   1.380 -1.0236 -0.3176  2.3310
  184MOL   H13037096   6.009   7.517   1.464  0.2293  0.1146  0.4404
  184MOL   H13137097   5.722   7.487   1.438  2.1185 -1.8660  0.6264
  184MOL   C13237098   5.790   7.645   1.556 -0.4311  0.1447  0.9701
  184MOL   O13337099   5.890   7.692   1.612 -0.5355 -0.2776 -0.3629
  184MOL   C13437100   5.644   7.674   1.612  0.1127  0.2395 -0.0246
  184MOL   C13537101   5.612   0.045   1.637 -0.3597 -0.6806 -0.7576
  184MOL   N13637102   5.546   0.094   1.514  0.1267 -0.4354  0.5855
  184MOL   H13737103   5.626   7.617   1.703  0.8467  0.4922  0.2823
  184MOL   H13837104   5.568   7.640   1.541  0.6073 -2.4706  0.7169
  184MOL   H13937105   5.548   0.061   1.724 -0.9962  0.0678 -1.3549
  184MOL   H14037106   5.695   0.110   1.661 -1.8463  0.5228  1.2464
  184MOL   H14137107   5.504   0.021   1.458  1.1959  2.1948 -3.7891
  184MOL   C14237108   5.537   0.223   1.475 -0.1783 -0.3455  0.4341
  184MOL   O14337109   5.578   0.313   1.545 -0.0661 -0.0739 -0.3994
  184MOL   C14437110   5.468   0.251   1.343 -0.7005 -0.0613 -0.0472
  184MOL   C14537111   5.531   0.361   1.253 -0.4077  0.0775 -0.3388
  184MOL   N14637112   5.423   0.448   1.186 -0.1195  0.0249  0.3429
  184MOL   H14737113   5.376   0.292   1.385 -0.1073 -1.4992  2.7785
  184MOL   H14837114   5.433   0.160   1.295 -0.8539 -0.3361  0.5797
  184MOL   H14937115   5.608   0.420   1.303  0.6480 -1.6981  0.1934
  184MOL   H15037116   5.587   0.311   1.174  0.0530 -0.1153  0.1077
  184MOL   H15137117   5.406   0.535   1.235  1.2231  0.6977 -0.3740
  184MOL   C15237118   5.383   0.444   1.061 -0.0952 -0.0951  0.8310
  184MOL   O15337119   5.433   0.369   0.974  0.1533 -0.4084 -0.3593
  184MOL   C15437120   5.278   0.546   1.016  0.2289  0.2749  0.3383
  184MOL   C15537121   5.246   0.542   0.862  0.1440  0.6664  0.5525
  184MOL   N15637122   5.318   0.646   0.783 -0.7730 -0.1879  0.7093
  184MOL   H15737123   5.287   0.650   1.045 -0.8241  0.4019  0.2263
  184MOL   H15837124   5.190   0.517   1.072  1.1385 -2.3569  0.4546
  184MOL   H15937125   5.267   0.444   0.819  1.1196  1.5270 -0.9918
  184MOL   H16037126   5.138   0.556   0.854  0.4461  2.1265 -1.2382
  184MOL   H16137127   5.335   0.737   0.822 -3.4425 -0.1287  1.8367
  184MOL   C16237128   5.344   0.626   0.651  0.9298  0.5549  0.0501
  184MOL   O16337129   5.316   0.521   0.587 -0.3045  0.3456 -0.5560
  184MOL   C16437130   5.418   0.731   0.572 -0.2031  0.1216  0.1988
  184MOL   C16537131   5.536   0.676   0.490  0.8655  0.2571 -0.5154
  184MOL   N16637132   5.587   0.765   0.387  0.3499 -0.0518  0.0025
  184MOL   H16737133   5.454   0.802   0.647  0.5226  0.4698 -0.4702
  184MOL   H16837134   5.343   0.781   0.510 -0.4708  0.0371  0.4500
  184MOL   H16937135   5.617   0.656   0.560  0.0858 -1.0362  0.0266
  184MOL   H17037136   5.500   0.583   0.446 -2.1485  0.8539  0.5850
  184MOL   H17137137   5.544   0.856   0.392  1.8988  0.7965 -1.4303
  184MOL   C17237138   5.694   0.758   0.305 -0.2900 -0.6157  0.1159
  184MOL   O17337139   5.778   0.670   0.319 -0.4044  0.2299  0.4369
  184MOL   C17437140   5.698   0.872   0.198 -0.7130 -0.2977 -0.5045
  184MOL   C17537141   5.794   0.985   0.235  0.1952 -0.0215  0.5592
  184MOL   N17637142   5.934   0.960   0.204  0.1819  0.3710 -0.1811
  184MOL   H17737143   5.601   0.922   0.199  0.3252  1.7861  2.6874
  184MOL   H17837144   5.710   0.821   0.103 -3.0380 -3.2471  0.6793
  184MOL   H17937145   5.769   1.069   0.170  0.0781  1.2991  2.2750
  184MOL   H18037146   5.772   1.032   0.331  2.3064  2.7950 -0.2722
  184MOL   H18137147   6.005   0.969   0.275 -0.9898  0.6617  0.9574
  184MOL   C18237148   5.991   0.950   0.086 -0.0418 -1.0021  0.2198
  184MOL   O18337149   5.925   0.947   7.765 -0.3639  0.1830  0.8072
  184MOL   C18437150   6.147   0.980   0.074  0.5901 -0.6917  0.1913
  184MOL   C18537151   6.225   0.982   7.718  0.4775  0.7830  0.1919
  184MOL   N18637152   6.232   0.849   7.656  0.7989 -0.2761  0.2554
  184MOL   H18737153   6.196   0.909   0.140  0.3197 -1.9896 -0.9902
  184MOL   H18837154   6.155   1.079   0.119 -1.6675 -0.4700  0.1674
  184MOL   H18937155   6.165   1.045   7.652 -2.2714 -1.8438  0.0872
  184MOL   H19037156   6.320   1.033   7.730  0.8989  0.3144 -1.0604
  184MOL   H19137157   6.188   0.773   7.706 -2.2855 -0.7797 -3.0322
  184MOL   C19237158   6.288   0.824   7.537  1.2311 -0.1221  0.2764
  184MOL   O19337159   6.350   0.911   7.477  0.5744  0.3656 -0.0356
  184MOL   C19437160   6.289   0.680   7.488  0.2775 -0.7713  0.0458
  184MOL   C19537161   6.237   0.648   7.341 -0.8937  0.2966 -0.5167
  184MOL   N19637162   6.087   0.655   7.324  0.0409 -0.1945  0.1804
  184MOL   H19737163   6.387   0.634   7.499  0.5036 -0.0371  1.1067
  184MOL   H19837164   6.224   0.631   7.561 -0.4142 -0.1399 -0.1464
  184MOL   H19937165   6.289   0.716   7.274  0.2367  1.2938  1.3359
  184MOL   H20037166   6.263   0.543   7.323  0.7871  0.8846 -1.7025
  184MOL   H20137167   6.051   0.746   7.350 -0.8866 -0.2257 -0.9892
  184MOL   H20237168   6.056   0.641   7.229  0.3768 -0.5553  0.1227
  185MOL     C137169   4.252   5.506   0.471 -0.9901  0.0594 -0.5401
  185MOL     O237170   4.201   5.396   0.473  0.4929 -0.3768  0.3286
  185MOL     C337171   4.181   5.633   0.431  0.0477 -0.2687 -0.2423
  185MOL     C437172   4.053   5.611   0.348  0.1196  0.0711  0.2357
  185MOL     N537173   3.936   5.700   0.363 -0.4928  0.6034 -0.1781
  185MOL     H637174   4.254   5.683   0.367 -0.4808  0.3191 -0.3892
  185MOL     H737175   4.167   5.688   0.523  1.1825 -1.0454  0.4078
  185MOL     H837176   4.013   5.512   0.368  0.0275  0.1826  0.6092
  185MOL     H937177   4.072   5.606   0.241  0.8867 -0.8002  0.4094
  185MOL    H1037178   3.857   5.662   0.413 -0.5522  0.4811 -0.3612
  185MOL    H1137179   4.354   5.512   0.509 -1.3867 -0.0244  0.5682
  185MOL    C1237180   3.922   5.810   0.291  0.5527  0.0129  0.0110
  185MOL    O1337181   4.009   5.852   0.209 -0.5185  0.7503 -0.7664
  185MOL    C1437182   3.787   5.878   0.297 -0.0695  0.5001  0.2471
  185MOL    C1537183   3.801   6.026   0.327 -0.9800 -0.1755  0.0320
  185MOL    N1637184   3.686   6.101   0.273  0.6893 -0.1853 -0.3784
  185MOL    H1737185   3.723   5.838   0.376 -0.4014 -1.4855 -0.9800
  185MOL    H1837186   3.733   5.865   0.203 -0.5581  2.3888  0.2548
  185MOL    H1937187   3.816   6.041   0.434  0.0639 -0.9182 -0.0031
  185MOL    H2037188   3.894   6.053   0.278 -3.2790  1.0562 -3.9233
  185MOL    H2137189   3.680   6.122   0.175 -0.3367 -1.2159 -0.5556
  185MOL    C2237190   3.575   6.125   0.342 -0.2395  0.3618 -0.0977
  185MOL    O2337191   3.568   6.085   0.454 -0.3989  0.7720  0.7868
  185MOL    C2437192   3.468   6.220   0.292  0.7371  0.3208  0.2678
  185MOL    C2537193   3.327   6.158   0.289  0.5753  0.0015  0.1253
  185MOL    N2637194   3.252   6.223   0.183 -0.2256  0.1338 -0.8680
  185MOL    H2737195   3.504   6.252   0.194 -0.6956  1.9760  0.2572
  185MOL    H2837196   3.469   6.306   0.359  1.7547 -1.2116  2.2830
  185MOL    H2937197   3.328   6.051   0.264 -2.3596 -0.2012  0.7470
  185MOL    H3037198   3.286   6.163   0.390 -3.7344 -1.7348 -1.3994
  185MOL    H3137199   3.311   6.274   0.118  1.2632  1.0531  1.1534
  185MOL    C3237200   3.119   6.210   0.164 -0.1510 -0.0446 -0.6549
  185MOL    O3337201   3.051   6.152   0.248  0.4030  0.7061 -0.1185
  185MOL    C3437202   3.062   6.263   0.036  0.3624  0.6112  0.6392
  185MOL    C3537203   3.098   6.169   7.695  0.2569  0.0158  0.1094
  185MOL    N3637204   3.061   6.032   7.711  0.3668 -0.1648 -0.3862
  185MOL    H3737205   3.096   6.363   0.011 -0.1591  1.4704  3.1780
  185MOL    H3837206   2.956   6.272   0.059 -0.2397 -0.7745 -1.5190
  185MOL    H3937207   3.061   6.216   7.604 -1.0263 -0.8490  0.1671
  185MOL    H4037208   3.204   6.170   7.672 -0.1838 -1.2595 -2.1454
  185MOL    H4137209   3.117   5.977   7.774  0.8782  0.4132 -0.3358
  185MOL    C4237210   2.933   5.985   7.691  0.1333 -0.8263  0.5610
  185MOL    O4337211   2.841   6.061   7.654 -0.2840  0.6450  0.0488
  185MOL    C4437212   2.910   5.830   7.705 -0.0377 -0.3511  0.4924
  185MOL    C4537213   2.812   5.753   7.613  0.6964 -0.3977 -0.3774
  185MOL    N4637214   2.668   5.772   7.655  0.0192 -0.0445  0.2655
  185MOL    H4737215   3.013   5.796   7.701  0.0305 -0.0683 -0.1059
  185MOL    H4837216   2.876   5.814   0.027 -1.2624 -1.8716 -0.1393
  185MOL    H4937217   2.825   5.782   7.509 -0.1507  1.2851 -0.0344
  185MOL    H5037218   2.847   5.651   7.626  0.8661 -0.3378 -0.3738
  185MOL    H5137219   2.639   5.868   7.644  1.4434  0.1885 -1.8385
  185MOL    C5237220   2.589   5.680   7.710 -0.9608  0.5685 -0.3085
  185MOL    O5337221   2.623   5.558   7.728  0.0475 -0.5351 -0.4238
  185MOL    C5437222   2.444   5.730   7.740  0.1103  0.8678  0.7124
  185MOL    C5537223   2.346   5.611   7.775 -0.1041 -0.2506  0.2305
  185MOL    N5637224   2.328   5.514   7.671  0.2947 -0.7699  0.0259
  185MOL    H5737225   2.444   5.793   0.048  0.3353 -1.3139  2.3091
  185MOL    H5837226   2.398   5.788   7.660 -1.6426 -0.7935  0.4692
  185MOL    H5937227   2.253   5.659   0.024 -0.5619  0.7389 -2.6927
  185MOL    H6037228   2.397   5.563   0.078  1.5790  3.7470  1.6137
  185MOL    H6137229   2.376   5.526   7.583  1.2866 -0.8083  0.5543
  185MOL    C6237230   2.236   5.415   7.683 -0.7631  0.2098  0.4549
  185MOL    O6337231   2.151   5.407   7.771 -0.8596 -0.4920 -0.5292
  185MOL    C6437232   2.245   5.317   7.563  0.0285  0.2447 -0.9734
  185MOL    C6537233   2.102   5.249   7.546 -0.0480 -0.3246 -0.7302
  185MOL    N6637234   2.111   5.183   7.412  0.0070  0.2039  0.0774
  185MOL    H6737235   2.281   5.383   7.485  0.2654  2.7399  1.1715
  185MOL    H6837236   2.323   5.241   7.564 -0.9339 -0.7559 -0.6648
  185MOL    H6937237   2.088   5.172   7.623  0.8786 -0.0305 -0.2627
  185MOL    H7037238   2.020   5.319   7.533 -0.3717 -0.1163  2.1991
  185MOL    H7137239   2.201   5.194   7.369 -0.4748 -0.3796 -1.1081
  185MOL    C7237240   2.023   5.103   7.362 -0.2557 -0.2012  0.0879
  185MOL    O7337241   1.921   5.083   7.420 -0.0851 -0.1901 -0.2139
  185MOL    C7437242   2.048   5.046   7.219  0.1291  0.0845  0.1005
  185MOL    C7537243   1.926   4.992   7.140  0.5424 -0.4877  0.5833
  185MOL    N7637244   1.831   5.094   7.091 -0.5893 -0.2605 -0.2663
  185MOL    H7737245   2.120   5.108   7.166  0.0842  1.6265  1.7782
  185MOL    H7837246   2.111   4.961   7.244 -1.2518 -1.9826 -3.1679
  185MOL    H7937247   1.971   4.933   7.060 -1.8348 -1.5319 -0.0503
  185MOL    H8037248   1.874   4.918   7.202  1.3710 -0.7865  0.9237
  185MOL    H8137249   1.769   5.143   7.153  0.3657  0.2193  0.3201
  185MOL    C8237250   1.829   5.138   6.966 -0.0249  0.6984 -0.3587
  185MOL    O8337251   1.909   5.101   6.879 -0.1702  0.0396  0.0683
  185MOL    C8437252   1.724   5.243   6.926  0.1204 -0.1069 -0.5471
  185MOL    C8537253   1.768   5.389   6.949 -0.6181 -0.2820 -0.2249
  185MOL    N8637254   1.800   5.417   7.090 -0.0992 -0.1976 -0.7952
  185MOL    H8737255   1.700   5.224   6.822  0.5583 -1.8534 -0.3395
  185MOL    H8837256   1.632   5.218   6.979  0.6465 -2.1128 -0.5667
  185MOL    H8937257   1.858   5.416   6.893 -0.4729  0.6045  0.4203
  185MOL    H9037258   1.689   5.459   6.921 -1.3039 -0.1208  2.0246
  185MOL    H9137259   1.892   5.447   7.117 -0.9620  0.4491  1.5163
  185MOL    C9237260   1.705   5.413   7.184  0.0207  0.0214  0.0036
  185MOL    O9337261   1.588   5.377   7.154  0.0630 -0.1525 -0.2430
  185MOL    C9437262   1.746   5.444   7.330 -0.0793  0.6763 -0.0486
  185MOL    C9537263   1.632   5.475   7.424  0.3433 -0.0907 -0.6280
  185MOL    N9637264   1.670   5.506   7.562  0.0826 -0.4127 -0.2393
  185MOL    H9737265   1.822   5.374   7.366 -1.0253 -0.5634 -0.4378
  185MOL    H9837266   1.806   5.535   7.336  1.3375 -0.0766 -2.1063
  185MOL    H9937267   1.577   5.565   7.397 -3.2472 -1.4194  1.9424
  185MOL   H10037268   1.560   5.395   7.439  0.9373 -0.3882  0.7494
  185MOL   H10137269   1.632   5.448   7.635 -0.1673  0.6477  0.4934
  185MOL   C10237270   1.734   5.623   7.599 -0.1743 -0.7220 -0.0374
  185MOL   O10337271   1.762   5.710   7.520 -0.4044  0.1166  0.2434
  185MOL   C10437272   1.773   5.654   7.751  0.4786 -0.7900 -0.1177
  185MOL   C10537273   1.925   5.673   7.760 -0.8982  0.5437 -0.0692
  185MOL   N10637274   1.975   5.782   7.673 -0.7524  0.4272  0.4896
  185MOL   H10737275   1.754   5.568   0.035  2.5884 -1.9870 -1.0660
  185MOL   H10837276   1.716   5.742   0.000 -1.8561 -1.0994 -3.4877
  185MOL   H10937277   1.952   5.680   0.085  0.8639 -0.4687 -0.4451
  185MOL   H11037278   1.975   5.580   7.734 -0.3215  0.9349 -0.3728
  185MOL   H11137279   1.953   5.777   7.575 -0.3628  0.0758  0.4174
  185MOL   C11237280   2.067   5.882   7.699 -0.4378  0.5729  0.1638
  185MOL   O11337281   2.128   5.887   0.030  0.8274  0.1650 -0.2145
  185MOL   C11437282   2.101   5.977   7.588 -1.2960  0.2501 -0.2851
  185MOL   C11537283   2.019   6.101   7.610  0.4746 -0.4174  0.7258
  185MOL   N11637284   2.074   6.192   7.707  0.1169 -0.0913 -0.0345
  185MOL   H11737285   2.081   5.940   7.487  1.6907 -0.2959 -0.7312
  185MOL   H11837286   2.209   5.992   7.596 -1.3251  0.4954 -0.3580
  185MOL   H11937287   2.017   6.155   7.515  1.4131 -0.3381  0.7433
  185MOL   H12037288   1.917   6.076   7.637 -0.0950  0.2096 -0.7666
  185MOL   H12137289   2.027   6.201   0.016  1.3431  1.8941  0.4452
  185MOL   C12237290   2.172   6.275   7.688 -0.2468 -0.4854  0.1628
  185MOL   O12337291   2.234   6.281   7.584 -0.1043 -0.4980  0.0257
  185MOL   C12437292   2.185   6.385   0.021 -0.2664  0.1869 -0.7193
  185MOL   C12537293   2.270   6.507   7.769 -0.1376  0.3038 -0.1147
  185MOL   N12637294   2.310   6.565   0.115  0.7465  0.0744 -0.7418
  185MOL   H12737295   2.231   6.321   0.096 -0.7286  0.4742 -0.1901
  185MOL   H12837296   2.088   6.414   0.060  1.1387 -0.0576  3.2008
  185MOL   H12937297   2.355   6.478   7.708  0.1114  0.7230  0.0359
  185MOL   H13037298   2.224   6.586   7.709  1.1651 -0.8958 -2.7631
  185MOL   H13137299   2.239   6.578   0.185  0.4389  1.2137 -1.2526
  185MOL   C13237300   2.436   6.579   0.151  0.2294 -0.3552  0.2973
  185MOL   O13337301   2.534   6.544   0.086  0.3262 -0.2927  0.8002
  185MOL   C13437302   2.453   6.634   0.298 -0.1103 -0.0380 -0.1041
  185MOL   C13537303   2.530   6.544   0.390  0.1399  0.0312 -0.2547
  185MOL   N13637304   2.449   6.431   0.426  0.3045 -0.5484  0.3056
  185MOL   H13737305   2.352   6.655   0.335 -0.4783 -2.1306  0.1126
  185MOL   H13837306   2.512   6.726   0.290 -0.0202 -0.1446 -0.7244
  185MOL   H13937307   2.619   6.496   0.347  0.3023 -2.6768  2.9414
  185MOL   H14037308   2.570   6.601   0.473 -1.4084 -0.6523  0.9738
  185MOL   H14137309   2.460   6.346   0.374 -1.0907 -0.3301 -0.3673
  185MOL   C14237310   2.363   6.429   0.529  0.0181 -0.5804  0.4252
  185MOL   O14337311   2.345   6.531   0.597 -0.0397  0.4732  0.0333
  185MOL   C14437312   2.288   6.299   0.571 -0.4757  0.3600  0.4448
  185MOL   C14537313   2.182   6.320   0.691 -0.7831 -0.0444 -0.8026
  185MOL   N14637314   2.099   6.195   0.698 -0.0454  0.5220 -0.1727
  185MOL   H14737315   2.364   6.221   0.586 -0.4035  0.3229 -0.0908
  185MOL   H14837316   2.233   6.272   0.481 -0.5493 -2.5957  1.3040
  185MOL   H14937317   2.239   6.328   0.783  1.6665 -0.8956 -2.1831
  185MOL   H15037318   2.126   6.412   0.674  0.4990  0.8575 -0.2100
  185MOL   H15137319   2.125   6.122   0.633 -0.2262  0.2389  0.0674
  185MOL   C15237320   2.000   6.169   0.789  0.6853  0.3184  0.0517
  185MOL   O15337321   1.957   6.251   0.874 -0.3543  0.4147 -0.3894
  185MOL   C15437322   1.949   6.027   0.793  0.1117 -0.5044  0.1245
  185MOL   C15537323   1.826   6.012   0.702  0.5627  0.2007  1.1724
  185MOL   N15637324   1.705   6.028   0.783  0.5901  0.0192  0.3747
  185MOL   H15737325   1.924   5.992   0.893  2.5727 -0.3629  0.8254
  185MOL   H15837326   2.037   5.967   0.769  0.8522  0.5456  0.1718
  185MOL   H15937327   1.826   6.084   0.620 -1.7833 -2.2550 -1.0711
  185MOL   H16037328   1.839   5.916   0.651  1.5154  0.6960  0.4436
  185MOL   H16137329   1.706   6.117   0.830 -0.2312 -0.7252  1.8559
  185MOL   C16237330   1.610   5.933   0.800 -0.7113 -0.2006  0.0548
  185MOL   O16337331   1.610   5.824   0.737  0.2965  0.0775 -0.1124
  185MOL   C16437332   1.506   5.943   0.914  0.6664 -0.5382 -0.5843
  185MOL   C16537333   1.371   6.000   0.863  0.6302 -0.0502 -0.0534
  185MOL   N16637334   1.355   6.139   0.904  0.9581 -0.3630 -0.1976
  185MOL   H16737335   1.551   5.993   1.000 -0.5487  0.9426 -0.7864
  185MOL   H16837336   1.492   5.843   0.953 -2.6321  0.1904  0.2120
  185MOL   H16937337   1.373   5.990   0.755  2.7821  1.2182 -0.1602
  185MOL   H17037338   1.291   5.943   0.910 -0.7298  1.7668 -0.1495
  185MOL   H17137339   1.429   6.201   0.933 -1.4992  1.7499  1.8002
  185MOL   C17237340   1.235   6.189   0.929 -0.5850 -0.4582  0.5688
  185MOL   O17337341   1.128   6.128   0.893  0.1451 -0.5446  0.9271
  185MOL   C17437342   1.224   6.329   0.987 -0.5495 -0.4404 -0.0474
  185MOL   C17537343   1.098   6.363   1.066 -0.1725  0.0518 -0.0103
  185MOL   N17637344   1.122   6.501   1.116 -0.0295  0.2302 -0.5729
  185MOL   H17737345   1.232   6.400   0.905 -0.3755 -0.3275  0.0662
  185MOL   H17837346   1.309   6.326   1.056  0.2124 -1.3505 -1.0016
  185MOL   H17937347   1.006   6.364   1.008  1.0797 -1.7201 -2.1142
  185MOL   H18037348   1.074   6.281   1.133  0.3173  1.9059  2.4928
  185MOL   H18137349   1.096   6.580   1.058  1.2012  2.2909  1.6238
  185MOL   C18237350   1.170   6.518   1.242 -0.0336 -0.1984  0.2739
  185MOL   O18337351   1.195   6.418   1.316  0.0626  0.2342  0.3742
  185MOL   C18437352   1.210   6.655   1.296 -0.4717  0.2308 -0.0686
  185MOL   C18537353   1.156   6.686   1.441  0.1532  0.0869  0.3129
  185MOL   N18637354   1.011   6.692   1.447  0.2256 -0.3854 -0.5418
  185MOL   H18737355   1.170   6.736   1.236  1.0678  1.7971  0.9599
  185MOL   H18837356   1.318   6.651   1.284 -0.4170  0.0598  0.4408
  185MOL   H18937357   1.194   6.606   1.504 -1.1633  0.9843  2.2788
  185MOL   H19037358   1.197   6.780   1.476 -0.4195  0.8491 -1.0496
  185MOL   H19137359   0.964   6.617   1.496  0.6073 -0.1927  0.1302
  185MOL   C19237360   0.929   6.793   1.423 -0.1353  0.4214  0.4003
  185MOL   O19337361   0.969   6.892   1.368  0.0808 -0.0283  0.0933
  185MOL   C19437362   0.787   6.779   1.471 -0.0102 -0.1704  0.7454
  185MOL   C19537363   0.684   6.883   1.419  0.0702  0.9599 -0.2230
  185MOL   N19637364   0.706   7.019   1.462  0.1353  0.1726  0.3455
  185MOL   H19737365   0.757   6.682   1.433 -0.8203  0.5734 -0.5594
  185MOL   H19837366   0.799   6.783   1.580  0.7724 -1.2208  0.6983
  185MOL   H19937367   0.686   6.872   1.311  0.6822 -0.2480 -0.1012
  185MOL   H20037368   0.587   6.860   1.461  0.4687  0.3076  0.3550
  185MOL   H20137369   0.803   7.040   1.482 -0.1234 -1.0187  3.0761
  185MOL   H20237370   0.702   7.082   1.383  0.4164  0.1354  0.2997
  186MOL     C137371   3.998   0.718   4.824 -0.1089  0.3122 -0.5834
  186MOL     O237372   3.985   0.672   4.709 -0.0880 -0.0824 -0.6847
  186MOL     C337373   4.133   0.730   4.890 -0.1832  0.0274 -0.3536
  186MOL     C437374   4.123   0.732   5.043 -0.6795  0.3188  0.3060
  186MOL     N537375   4.071   0.608   5.100 -0.3015  0.4153 -0.2645
  186MOL     H637376   4.179   0.821   4.849 -0.8055 -0.5146 -2.2881
  186MOL     H737377   4.195   0.648   4.853  0.7994  0.1104  1.0702
  186MOL     H837378   4.078   0.822   5.084  1.2368  0.8914  1.1987
  186MOL     H937379   4.223   0.733   5.086 -0.5746 -0.0123  0.0744
  186MOL    H1037380   4.143   0.539   5.117 -0.9119  0.1376  1.2421
  186MOL    H1137381   3.911   0.762   4.873  0.4594  2.2233 -1.2673
  186MOL    C1237382   3.944   0.583   5.135  0.4308 -0.8496 -0.3788
  186MOL    O1337383   3.853   0.669   5.131 -0.1385  0.5027  0.1462
  186MOL    C1437384   3.916   0.439   5.192 -0.2035 -0.1240 -0.5316
  186MOL    C1537385   3.776   0.392   5.148  0.7028  0.6372  0.3360
  186MOL    N1637386   3.778   0.389   5.001  0.6631  0.0869 -0.6645
  186MOL    H1737387   3.932   0.445   5.300  1.0442 -0.9496 -0.6651
  186MOL    H1837388   3.994   0.366   5.175  0.8840  1.2199 -1.4056
  186MOL    H1937389   3.757   0.291   5.185 -2.3506  1.1568  0.2986
  186MOL    H2037390   3.699   0.460   5.184 -0.3477  0.3125 -1.2491
  186MOL    H2137391   3.719   0.456   4.956  1.5029  1.0520 -0.3358
  186MOL    C2237392   3.851   0.307   4.925  0.6066 -0.1002  0.0088
  186MOL    O2337393   3.906   0.211   4.977  0.6246  0.2624 -0.5067
  186MOL    C2437394   3.864   0.333   4.777  0.0363  0.1456  0.4608
  186MOL    C2537395   3.995   0.299   4.703  0.3955  0.3797 -0.7536
  186MOL    N2637396   4.042   0.169   4.733 -0.1361  0.1815  0.6392
  186MOL    H2737397   3.841   0.438   4.757  2.7652  0.4361 -1.4083
  186MOL    H2837398   3.779   0.279   4.735 -1.3826  1.8489  1.0795
  186MOL    H2937399   3.971   0.313   4.597 -2.2404  0.4623 -0.1782
  186MOL    H3037400   4.080   0.363   4.727  1.4007 -1.0561 -0.4333
  186MOL    H3137401   4.027   0.143   4.830  2.5542  2.9006  1.8558
  186MOL    C3237402   4.100   0.080   4.653  0.2369  0.3562 -0.5183
  186MOL    O3337403   4.138   0.102   4.540  1.0238 -0.7175  0.5864
  186MOL    C3437404   4.146   7.731   4.718 -0.3057 -0.1164  0.5208
  186MOL    C3537405   4.101   7.612   4.629  0.5851 -0.2524 -0.1326
  186MOL    N3637406   4.177   7.487   4.656  0.1735  0.1621  0.5472
  186MOL    H3737407   4.108   7.720   4.819 -0.1444 -1.7711  0.4135
  186MOL    H3837408   4.252   7.747   4.737 -0.4959  1.0824  0.5739
  186MOL    H3937409   3.996   7.610   4.658  1.2839 -1.7419  2.4172
  186MOL    H4037410   4.118   7.623   4.522  0.1736 -3.0585 -0.5082
  186MOL    H4137411   4.261   7.462   4.606 -1.4106  0.0807 -2.1819
  186MOL    C4237412   4.124   7.379   4.725  0.6034 -0.4415  0.0390
  186MOL    O4337413   4.010   7.379   4.779 -0.3078 -0.0657  0.2769
  186MOL    C4437414   4.209   7.251   4.727  0.3712 -0.1375  0.6813
  186MOL    C4537415   4.202   7.168   4.860 -0.2814 -0.1049  0.0972
  186MOL    N4637416   4.071   7.116   4.903  0.3847  0.0241  0.5691
  186MOL    H4737417   4.173   7.187   4.647 -0.6079  0.5692  0.5368
  186MOL    H4837418   4.313   7.276   4.706 -0.1405  0.5955 -1.1084
  186MOL    H4937419   4.277   7.089   4.866 -1.0759 -0.9792 -1.2283
  186MOL    H5037420   4.228   7.239   4.939  3.6994  1.4610 -2.4539
  186MOL    H5137421   3.999   7.185   4.890  1.2222  0.9006  0.4685
  186MOL    C5237422   4.039   6.989   4.922  0.1021  0.1868 -0.2963
  186MOL    O5337423   4.122   6.903   4.921 -0.5894 -0.1742 -0.4333
  186MOL    C5437424   3.896   6.959   4.940  0.5101 -0.3818 -0.3577
  186MOL    C5537425   3.863   6.940   5.085 -0.6064  0.2525 -0.4685
  186MOL    N5637426   3.841   7.072   5.152  0.2785 -0.0701 -0.5748
  186MOL    H5737427   3.830   7.023   4.880 -1.9535 -2.5969 -0.0963
  186MOL    H5837428   3.874   6.870   4.881 -1.3962 -0.7632  0.8963
  186MOL    H5937429   3.942   6.887   5.138 -1.7640 -1.8431 -0.7650
  186MOL    H6037430   3.771   6.882   5.099  0.0162 -1.0538 -1.6529
  186MOL    H6137431   3.929   7.112   5.181  0.9889 -2.6789  1.0995
  186MOL    C6237432   3.726   7.113   5.213 -0.1135  0.0536  0.2593
  186MOL    O6337433   3.618   7.052   5.197  0.0027  0.0705 -0.2834
  186MOL    C6437434   3.744   7.244   5.288  0.3768  0.2912  0.0977
  186MOL    C6537435   3.616   7.307   5.345 -0.6500 -0.3403  0.6287
  186MOL    N6637436   3.580   7.268   5.478 -0.3223 -0.3840  0.1157
  186MOL    H6737437   3.815   7.219   5.367  0.6860  0.2449 -0.1951
  186MOL    H6837438   3.786   7.315   5.217  0.9905 -1.2393 -1.0743
  186MOL    H6937439   3.625   7.415   5.354 -1.5387 -0.3534  1.7537
  186MOL    H7037440   3.532   7.295   5.278 -1.4635  1.1408  1.3520
  186MOL    H7137441   3.617   7.323   5.555 -1.8182 -2.7759  2.6392
  186MOL    C7237442   3.491   7.175   5.518  0.6127 -0.0315  0.1102
  186MOL    O7337443   3.444   7.098   5.431 -0.0029 -0.2103 -0.2011
  186MOL    C7437444   3.450   7.166   5.669  0.5445  0.0528  0.3762
  186MOL    C7537445   3.489   7.037   5.747  0.0945 -0.2000 -0.1841
  186MOL    N7637446   3.386   6.922   5.738  0.7566  0.1273  0.1658
  186MOL    H7737447   3.506   7.239   5.728 -0.1801 -0.2448  1.4296
  186MOL    H7837448   3.346   7.198   5.666  0.9287  1.2431 -0.9730
  186MOL    H7937449   3.584   6.998   5.710  0.8483  1.4260 -0.0194
  186MOL    H8037450   3.498   7.052   5.854 -0.9225  0.2691 -0.1617
  186MOL    H8137451   3.382   6.860   5.659 -0.6617 -0.3560  0.6051
  186MOL    C8237452   3.296   6.881   5.832 -0.2442  0.2986 -1.4115
  186MOL    O8337453   3.278   6.942   5.938  0.0429  0.2553  0.2142
  186MOL    C8437454   3.227   6.750   5.795  0.4803 -0.2733  0.2202
  186MOL    C8537455   3.220   6.664   5.926  0.3235  0.5840 -0.2925
  186MOL    N8637456   3.285   6.538   5.907  0.0604  0.4324  0.0283
  186MOL    H8737457   3.125   6.771   5.765  1.3038 -0.1844 -2.6969
  186MOL    H8837458   3.285   6.697   5.719 -0.5581 -1.0879 -0.0155
  186MOL    H8937459   3.272   6.701   6.014  2.0078 -1.4520 -0.3914
  186MOL    H9037460   3.115   6.647   5.949  0.5510 -3.1724 -1.5662
  186MOL    H9137461   3.362   6.518   5.968 -0.0722  0.0460  0.0720
  186MOL    C9237462   3.233   6.439   5.836  0.6874  0.4341 -0.6911
  186MOL    O9337463   3.138   6.459   5.758 -0.0620  0.5682 -0.4722
  186MOL    C9437464   3.303   6.305   5.847  0.5321  1.3393 -0.0448
  186MOL    C9537465   3.286   6.240   5.990  0.5002 -0.3246  0.4929
  186MOL    N9637466   3.158   6.168   6.008 -0.0165 -0.0765  0.1046
  186MOL    H9737467   3.243   6.239   5.785  1.2448  0.9878 -0.3628
  186MOL    H9837468   3.407   6.308   5.817  0.2136 -0.5181 -1.4146
  186MOL    H9937469   3.365   6.167   6.009  1.3459  1.0547  2.5636
  186MOL   H10037470   3.308   6.311   6.070  1.2281 -1.6547  1.5046
  186MOL   H10137471   3.075   6.213   5.972 -0.6096  0.1548  1.7445
  186MOL   C10237472   3.142   6.057   6.085 -0.2033 -0.8402  0.8375
  186MOL   O10337473   3.242   6.024   6.151 -0.0885 -0.4136 -0.1504
  186MOL   C10437474   3.005   5.987   6.096 -0.5404 -0.9590  0.3650
  186MOL   C10537475   2.969   5.940   6.244 -0.2169  0.1635 -0.0970
  186MOL   N10637476   3.036   5.817   6.274 -0.3991  0.0194 -0.3053
  186MOL   H10737477   3.004   5.908   6.020 -1.8076  0.7319 -1.4432
  186MOL   H10837478   2.936   6.066   6.066 -1.3954 -2.5141 -1.9115
  186MOL   H10937479   3.007   6.015   6.313 -0.4510 -0.8531  1.1495
  186MOL   H11037480   2.861   5.925   6.251  0.2044 -2.8305  0.3291
  186MOL   H11137481   3.125   5.813   6.226  0.4493 -2.2453  1.3526
  186MOL   C11237482   2.999   5.736   6.376 -0.6876  0.1719  0.1727
  186MOL   O11337483   2.891   5.753   6.438 -0.2701  0.1516  0.0266
  186MOL   C11437484   3.101   5.621   6.413 -0.6044 -0.1861  1.2129
  186MOL   C11537485   3.011   5.496   6.445  0.5887  0.8531 -0.4513
  186MOL   N11637486   2.937   5.510   6.575 -0.0049  0.6365  0.7918
  186MOL   H11737487   3.161   5.644   6.501  2.2516  0.4991 -0.8508
  186MOL   H11837488   3.156   5.595   6.323 -2.1369  0.9561 -0.0909
  186MOL   H11937489   2.936   5.484   6.367  0.0430  0.7165  0.0894
  186MOL   H12037490   3.084   5.417   6.429 -2.5951 -1.9811 -1.5733
  186MOL   H12137491   2.885   5.596   6.575 -3.1665 -1.0139 -4.8045
  186MOL   C12237492   2.907   5.409   6.661  0.2064  0.3965 -0.2399
  186MOL   O12337493   2.823   5.420   6.755 -0.4978 -0.0097  0.0382
  186MOL   C12437494   2.989   5.282   6.643 -0.2996 -0.3444 -0.1669
  186MOL   C12537495   2.970   5.174   6.747 -0.0217  0.5382 -0.1361
  186MOL   N12637496   3.027   5.050   6.702 -0.9086  0.3777 -0.4866
  186MOL   H12737497   3.085   5.333   6.651 -1.0292  1.2381 -1.3766
  186MOL   H12837498   2.990   5.247   6.540 -0.8084  0.3683 -0.4071
  186MOL   H12937499   3.015   5.206   6.840  0.5693 -1.7480  0.3915
  186MOL   H13037500   2.863   5.152   6.757  0.0698  0.8589  1.5470
  186MOL   H13137501   2.982   4.976   6.651  1.6736 -1.8195  0.3127
  186MOL   C13237502   3.160   5.043   6.703  0.7157 -0.3189  0.0263
  186MOL   O13337503   3.223   5.129   6.765  0.3579 -0.4898  0.0878
  186MOL   C13437504   3.227   4.936   6.617  0.3827  0.1396 -0.4911
  186MOL   C13537505   3.299   4.987   6.493  0.2491 -0.5621 -0.5007
  186MOL   N13637506   3.396   4.886   6.450 -0.2251  0.2413  0.2019
  186MOL   H13737507   3.147   4.863   6.605 -1.1042  1.7473 -0.5039
  186MOL   H13837508   3.295   4.891   6.689 -1.3456 -1.4554  0.1851
  186MOL   H13937509   3.218   5.010   6.424  0.8505  0.9126 -0.7277
  186MOL   H14037510   3.345   5.083   6.514 -1.3202 -0.2932  1.9883
  186MOL   H14137511   3.362   4.819   6.384 -2.3427  1.1934  0.2908
  186MOL   C14237512   3.526   4.872   6.486  0.5400 -0.0607  0.0351
  186MOL   O14337513   3.580   4.939   6.573  0.2094 -0.1686  0.6162
  186MOL   C14437514   3.594   4.751   6.417  0.6925  0.6131  0.1954
  186MOL   C14537515   3.555   4.620   6.491 -0.5331  0.3240  0.2436
  186MOL   N14637516   3.616   4.596   6.621  0.2388  0.4328  0.7071
  186MOL   H14737517   3.702   4.759   6.399  1.2006 -3.5067  1.0137
  186MOL   H14837518   3.557   4.742   6.315  0.9227  0.6928  0.1041
  186MOL   H14937519   3.449   4.615   6.518 -1.3506 -1.1808 -2.9563
  186MOL   H15037520   3.567   4.537   6.421 -0.1811 -0.3769  1.1310
  186MOL   H15137521   3.550   4.599   6.697  1.5200  0.7261  1.8439
  186MOL   C15237522   3.737   4.533   6.631 -0.7012 -0.0322  0.0178
  186MOL   O15337523   3.818   4.540   6.534 -0.0858  0.3132  0.6530
  186MOL   C15437524   3.781   4.470   6.761  0.3445 -0.5216  0.0878
  186MOL   C15537525   3.865   4.343   6.740  0.1395 -0.1091 -0.1202
  186MOL   N15637526   3.777   4.230   6.708  0.1031  0.3603 -0.6762
  186MOL   H15737527   3.691   4.449   6.820  1.4224 -3.4908  0.7872
  186MOL   H15837528   3.842   4.545   6.811 -1.8854  2.4302 -1.4442
  186MOL   H15937529   3.936   4.355   6.658 -0.5036  0.0030 -0.6625
  186MOL   H16037530   3.934   4.324   6.822 -2.2862  1.7013  2.3971
  186MOL   H16137531   3.727   4.233   6.620  0.4991 -1.5251 -0.9946
  186MOL   C16237532   3.762   4.126   6.786  0.4641 -1.0102 -0.3456
  186MOL   O16337533   3.828   4.108   6.890 -0.0085  0.4073  0.1912
  186MOL   C16437534   3.662   4.018   6.747  0.3641 -0.8245  0.7863
  186MOL   C16537535   3.514   4.051   6.780 -0.2521  0.8528  0.2457
  186MOL   N16637536   3.461   4.165   6.700 -0.2611  0.2899  0.2667
  186MOL   H16737537   3.689   3.922   6.789  0.3517  1.0575  5.3921
  186MOL   H16837538   3.687   4.006   6.641 -2.0155  0.5066  0.0218
  186MOL   H16937539   3.455   3.965   6.749  1.9969 -1.6203  2.5455
  186MOL   H17037540   3.485   4.065   6.884 -0.8994  1.6112 -0.0357
  186MOL   H17137541   3.516   4.195   6.621  0.5520 -0.9210  0.3678
  186MOL   C17237542   3.352   4.233   6.733 -0.0129 -0.6700  0.1148
  186MOL   O17337543   3.287   4.212   6.827  0.0343 -0.4230  0.7488
  186MOL   C17437544   3.327   4.352   6.644  0.1247  0.3770  0.0132
  186MOL   C17537545   3.198   4.427   6.678  0.7300 -0.3379  0.3809
  186MOL   N17637546   3.193   4.471   6.812  0.3647  0.2450  0.6377
  186MOL   H17737547   3.318   4.316   6.541  0.0163  0.1625  0.0965
  186MOL   H17837548   3.414   4.414   6.664  0.7575  0.4667 -2.8238
  186MOL   H17937549   3.185   4.516   6.616  0.6987  0.9186  2.1500
  186MOL   H18037550   3.112   4.362   6.663  0.6060 -0.0567 -0.1635
  186MOL   H18137551   3.131   4.413   6.866 -0.6581 -0.3311 -1.1461
  186MOL   C18237552   3.256   4.577   6.863 -0.0287  0.3737  0.0346
  186MOL   O18337553   3.344   4.639   6.800 -0.3125  0.8490 -0.1987
  186MOL   C18437554   3.204   4.624   7.003  0.0114 -0.5992  0.1576
  186MOL   C18537555   3.115   4.751   7.008  0.0225  0.7578 -0.5515
  186MOL   N18637556   3.189   4.872   7.033  0.2767 -0.1464  1.0282
  186MOL   H18737557   3.292   4.644   7.065  1.8536  0.1874 -2.6147
  186MOL   H18837558   3.142   4.537   7.027 -1.4641 -0.7528 -3.9091
  186MOL   H18937559   3.066   4.751   6.910 -2.6882 -0.8758  0.7527
  186MOL   H19037560   3.032   4.730   7.075  0.7485 -0.6018 -0.0547
  186MOL   H19137561   3.282   4.872   6.994 -1.0791 -0.6050 -2.3130
  186MOL   C19237562   3.164   4.970   7.121 -0.1643  0.3999  0.0847
  186MOL   O19337563   3.051   4.980   7.167  0.2875 -0.0233  0.5807
  186MOL   C19437564   3.279   5.049   7.189 -0.0852  0.3959  0.5537
  186MOL   C19537565   3.291   5.200   7.156  0.8840  0.1288 -0.0310
  186MOL   N19637566   3.331   5.230   7.019  0.5196  0.6417  0.5988
  186MOL   H19737567   3.251   5.034   7.293 -2.5388 -0.4615 -0.1912
  186MOL   H19837568   3.379   5.007   7.179 -0.5362 -0.6969  0.5354
  186MOL   H19937569   3.199   5.256   7.172  1.4046  0.5750  1.5573
  186MOL   H20037570   3.369   5.253   7.211  2.5629 -0.7546 -1.5079
  186MOL   H20137571   3.337   5.330   7.006 -3.2195  0.3596 -5.1913
  186MOL   H20237572   3.268   5.207   6.943  0.5202  1.4552  0.3523
  187MOL     C137573   0.304   6.501   3.078  0.1069 -0.7109 -0.0306
  187MOL     O237574   0.381   6.587   3.025  0.0215 -0.5215 -0.3842
  187MOL     C337575   0.359   6.404   3.182  0.2019  0.1186  0.5978
  187MOL     C437576   0.261   6.282   3.204 -0.0964 -0.1594 -0.6726
  187MOL     N537577   0.306   6.167   3.123 -0.9630 -0.8966  0.5390
  187MOL     H637578   0.384   6.448   3.279  1.6038  0.4155  0.1127
  187MOL     H737579   0.459   6.367   3.162  1.4437  3.0994  0.9929
  187MOL     H837580   0.158   6.313   3.187 -0.4914  0.7152  2.8715
  187MOL     H937581   0.261   6.246   3.307 -2.1219 -0.9983 -0.9509
  187MOL    H1037582   0.393   6.126   3.152  0.0054  1.0916  0.5311
  187MOL    H1137583   0.199   6.486   3.055  0.1058  0.2074 -0.6637
  187MOL    C1237584   0.243   6.127   3.015 -0.7565  0.1915  0.3765
  187MOL    O1337585   0.138   6.172   2.972  0.5015 -0.0997  0.2530
  187MOL    C1437586   0.306   6.009   2.944 -0.2062  0.6727 -0.0363
  187MOL    C1537587   0.251   5.971   2.805 -0.0278  0.6231  0.4544
  187MOL    N1637588   0.124   5.893   2.805 -0.0885 -0.4403 -0.7487
  187MOL    H1737589   0.322   5.919   3.003 -1.1340  0.8047  0.4174
  187MOL    H1837590   0.413   6.028   2.933  0.4526 -1.7942  1.5799
  187MOL    H1937591   0.228   6.070   2.767  1.2593  1.7779  2.5907
  187MOL    H2037592   0.323   5.915   2.746 -2.7480 -0.4954 -1.9324
  187MOL    H2137593   0.040   5.946   2.787  0.2443  1.1005  2.0936
  187MOL    C2237594   0.106   5.764   2.814 -0.3055 -0.3484 -0.0640
  187MOL    O2337595   0.201   5.688   2.817  0.6175 -0.3551 -0.2129
  187MOL    C2437596   7.747   5.717   2.825  0.2320 -0.6501  0.1516
  187MOL    C2537597   7.753   5.560   2.823 -0.3005 -0.6809  0.1300
  187MOL    N2637598   7.626   5.495   2.863 -0.3396 -0.5357  0.3103
  187MOL    H2737599   7.690   5.764   2.745 -0.0429 -0.4993  0.4312
  187MOL    H2837600   7.693   5.738   2.918 -0.7887  3.0491 -1.2210
  187MOL    H2937601   0.014   5.517   2.732  0.2777 -0.0703  0.0982
  187MOL    H3037602   0.029   5.525   2.909  0.3570  0.6798  0.2768
  187MOL    H3137603   7.636   5.431   2.940 -3.2599 -0.8955  0.4534
  187MOL    C3237604   7.513   5.497   2.795 -0.5545 -0.1758 -0.9743
  187MOL    O3337605   7.503   5.549   2.682 -0.0248 -0.3974 -0.7745
  187MOL    C3437606   7.388   5.419   2.853  0.0135  0.0659  0.1891
  187MOL    C3537607   7.313   5.312   2.768 -0.6805  0.0953 -0.2130
  187MOL    N3637608   7.169   5.336   2.752 -0.2416  0.2350 -0.0494
  187MOL    H3737609   7.316   5.499   2.863  0.9153  0.8150  0.8369
  187MOL    H3837610   7.419   5.396   2.955  2.2231  2.4930  0.1217
  187MOL    H3937611   7.368   5.331   2.675 -0.6724 -0.1297 -0.2548
  187MOL    H4037612   7.334   5.207   2.789  0.4082 -0.0893 -2.0741
  187MOL    H4137613   7.138   5.431   2.765 -2.0735  0.0632 -2.7076
  187MOL    C4237614   7.081   5.236   2.719  0.1931  0.6326 -0.0597
  187MOL    O4337615   7.116   5.119   2.721 -0.2151  0.4140 -0.3479
  187MOL    C4437616   6.935   5.277   2.683  0.0334 -0.5513 -0.1261
  187MOL    C4537617   6.914   5.256   2.534  0.8278 -0.0608 -0.1800
  187MOL    N4637618   6.995   5.340   2.441  0.3592  0.2675 -0.2862
  187MOL    H4737619   6.867   5.211   2.737 -1.2262  1.1356  0.4094
  187MOL    H4837620   6.912   5.376   2.722  0.3249 -1.0127  1.2571
  187MOL    H4937621   6.930   5.150   2.511  0.2971  0.0023 -0.8462
  187MOL    H5037622   6.809   5.273   2.511  0.8955  2.0348  0.9437
  187MOL    H5137623   7.077   5.291   2.410  0.8485 -0.5666  2.2406
  187MOL    C5237624   6.970   5.462   2.411 -0.5725  0.1059 -0.7151
  187MOL    O5337625   6.875   5.528   2.453 -0.0035  0.2473  0.3721
  187MOL    C5437626   7.071   5.522   2.316 -0.9072  0.4871  0.7961
  187MOL    C5537627   7.018   5.649   2.248 -0.0209 -0.0781 -0.7496
  187MOL    N5637628   6.946   5.624   2.124 -0.4329 -0.1834 -0.3454
  187MOL    H5737629   7.165   5.540   2.368 -1.1241  0.4304  1.2105
  187MOL    H5837630   7.098   5.450   2.239  0.5171  0.7655  1.0223
  187MOL    H5937631   7.092   5.723   2.219 -0.1428 -0.1324 -1.1975
  187MOL    H6037632   6.957   5.713   2.312 -0.8924  0.8689 -2.4945
  187MOL    H6137633   6.954   5.533   2.081  2.0935 -0.3472  0.4040
  187MOL    C6237634   6.870   5.708   2.048 -0.3137  0.1892 -0.4315
  187MOL    O6337635   6.867   5.830   2.075 -0.4044 -0.0571 -0.3400
  187MOL    C6437636   6.804   5.651   1.921 -0.0971 -0.0454 -0.7715
  187MOL    C6537637   6.802   5.737   1.792  0.7543  0.0462 -0.1285
  187MOL    N6637638   6.935   5.759   1.744  0.4848 -0.4694 -0.2094
  187MOL    H6737639   6.840   5.548   1.911 -0.7624 -0.5404  1.6104
  187MOL    H6837640   6.700   5.624   1.938  0.3667 -1.8815 -0.7168
  187MOL    H6937641   6.737   5.689   1.719  0.7979 -0.1312 -0.0531
  187MOL    H7037642   6.753   5.829   1.824 -0.8074 -0.6070 -0.5966
  187MOL    H7137643   7.006   5.753   1.816  0.5748  0.8154 -0.1820
  187MOL    C7237644   6.964   5.813   1.626  0.9063  0.1485 -0.1501
  187MOL    O7337645   6.877   5.833   1.542  0.2452  0.5569 -0.1464
  187MOL    C7437646   7.108   5.858   1.607  0.3611  0.6870  0.5306
  187MOL    C7537647   7.146   5.859   1.454  0.3330 -0.0893 -0.9847
  187MOL    N7637648   7.170   5.729   1.393  0.1616 -0.1770  0.1713
  187MOL    H7737649   7.116   5.957   1.650  0.9175  0.5307  0.7997
  187MOL    H7837650   7.181   5.795   1.659  0.5425  0.5312  0.0988
  187MOL    H7937651   7.072   5.914   1.397  1.0218  2.4423  0.5158
  187MOL    H8037652   7.237   5.917   1.445  1.7464 -2.1530 -0.4751
  187MOL    H8137653   7.229   5.669   1.449  0.8661  0.0656 -0.2938
  187MOL    C8237654   7.168   5.697   1.266  0.8892  0.1693  1.0404
  187MOL    O8337655   7.123   5.775   1.187  0.2729 -0.2152  0.1696
  187MOL    C8437656   7.227   5.564   1.225  0.1624 -0.0555  0.5069
  187MOL    C8537657   7.145   5.486   1.126 -0.8690  0.3581 -0.0003
  187MOL    N8637658   7.138   5.545   0.994  0.0884  0.4736 -0.2432
  187MOL    H8737659   7.332   5.562   1.194  0.1598  0.9899  0.4154
  187MOL    H8837660   7.216   5.506   1.316 -0.0900  0.3584  0.7394
  187MOL    H8937661   7.200   5.393   1.115 -0.6273  0.6619 -1.4480
  187MOL    H9037662   7.048   5.466   1.172 -0.9625  0.4407 -0.1607
  187MOL    H9137663   7.185   5.635   0.989 -0.0364  0.5690  0.2343
  187MOL    C9237664   7.051   5.511   0.898 -0.0277  0.5983  0.6167
  187MOL    O9337665   6.996   5.401   0.893 -0.0030  0.0847  0.2374
  187MOL    C9437666   7.019   5.605   0.783  0.3034  0.1895  0.6697
  187MOL    C9537667   6.864   5.610   0.753 -0.1814  0.1115  0.3357
  187MOL    N9637668   6.837   5.731   0.668  0.5483 -0.4343  0.1032
  187MOL    H9737669   7.063   5.702   0.806  0.5172  0.7135 -1.8561
  187MOL    H9837670   7.073   5.580   0.692  0.5820  3.4974 -0.1026
  187MOL    H9937671   6.839   5.512   0.712  0.8002 -0.3511  0.8266
  187MOL   H10037672   6.822   5.617   0.853 -3.4300  0.2218 -0.9649
  187MOL   H10137673   6.916   5.785   0.633 -1.0971  1.7095 -0.4139
  187MOL   C10237674   6.718   5.788   0.666 -0.0238 -0.2359  0.2068
  187MOL   O10337675   6.617   5.727   0.711 -0.3307  0.3972 -0.2128
  187MOL   C10437676   6.702   5.935   0.617  0.3758 -0.2878  0.3403
  187MOL   C10537677   6.582   5.939   0.518  0.4290 -0.4687 -0.1036
  187MOL   N10637678   6.633   5.893   0.388 -0.3049 -0.2392  0.0888
  187MOL   H10737679   6.783   5.993   0.573 -0.1436 -1.1603 -1.8479
  187MOL   H10837680   6.671   5.977   0.713 -0.5102 -2.5529  1.0685
  187MOL   H10937681   6.499   5.880   0.557  0.9091 -1.6161 -0.7721
  187MOL   H11037682   6.532   6.035   0.515  1.8585  0.3591  1.5239
  187MOL   H11137683   6.728   5.909   0.360 -0.8930  2.2353 -0.5891
  187MOL   C11237684   6.561   5.820   0.298 -0.3529  0.1904 -0.2482
  187MOL   O11337685   6.442   5.798   0.314  0.3091 -0.3400 -0.1234
  187MOL   C11437686   6.640   5.773   0.177 -0.2956 -0.0465 -0.0727
  187MOL   C11537687   6.586   5.830   0.044  0.5413  0.0763 -0.6541
  187MOL   N11637688   6.642   5.967   0.008 -0.1954 -1.1674  0.3355
  187MOL   H11737689   6.636   5.664   0.175 -3.0509 -0.0146  1.0986
  187MOL   H11837690   6.746   5.792   0.193 -0.4736  1.3181 -0.4997
  187MOL   H11937691   6.621   5.750   7.759  0.5966 -1.3601  1.1321
  187MOL   H12037692   6.478   5.839   0.040  0.5902  1.5550  0.7891
  187MOL   H12137693   6.722   5.978   7.727  0.0111 -0.0144  0.7945
  187MOL   C12237694   6.579   6.089   0.020 -0.4059  0.4057  0.3156
  187MOL   O12337695   6.487   6.108   0.096  0.7264  0.1360  0.0109
  187MOL   C12437696   6.644   6.198   7.718 -0.7801 -0.3756 -0.1826
  187MOL   C12537697   6.558   6.324   7.715  0.4509  0.3238 -0.2708
  187MOL   N12637698   6.638   6.433   7.655  0.3745  0.0271  0.4877
  187MOL   H12737699   6.637   6.154   7.618  1.9370  0.1216 -0.6304
  187MOL   H12837700   6.747   6.212   7.751 -0.7953  0.5465 -0.4843
  187MOL   H12937701   6.468   6.308   7.657  1.2574 -2.6384 -0.7983
  187MOL   H13037702   6.526   6.353   0.035 -1.9094  0.1718 -0.9663
  187MOL   H13137703   6.724   6.399   7.613  0.4289 -1.9673  2.1187
  187MOL   C13237704   6.597   6.554   7.632 -0.4486 -0.4422  0.7815
  187MOL   O13337705   6.492   6.599   7.677 -0.0027 -0.1002 -0.1206
  187MOL   C13437706   6.684   6.638   7.530 -0.5833 -0.1202  0.2602
  187MOL   C13537707   6.739   6.769   7.609  0.7518  0.7385  0.1019
  187MOL   N13637708   6.827   6.750   7.728 -0.7554 -0.4051 -0.2064
  187MOL   H13737709   6.626   6.657   7.440  2.7224 -0.0754 -1.9655
  187MOL   H13837710   6.767   6.573   7.502 -1.7968 -1.7547  0.3622
  187MOL   H13937711   6.802   6.828   7.541 -1.2067  3.0903  0.2570
  187MOL   H14037712   6.650   6.827   7.632 -0.0687 -0.7510  0.7101
  187MOL   H14137713   6.914   6.699   7.727 -1.0880 -0.9907  0.4188
  187MOL   C14237714   6.815   6.822   0.064  0.1848 -0.5195  0.0101
  187MOL   O14337715   6.718   6.900   0.081  0.0420  0.6231 -0.5234
  187MOL   C14437716   6.938   6.808   0.170  0.3777 -0.3713  0.0353
  187MOL   C14537717   6.960   6.940   0.238  0.3847  0.0343  0.4052
  187MOL   N14637718   7.030   7.041   0.160 -0.2308 -0.1063 -0.0768
  187MOL   H14737719   7.023   6.763   0.119  0.9540 -0.2298  0.8708
  187MOL   H14837720   6.906   6.737   0.246  2.0779 -0.3272  0.8060
  187MOL   H14937721   6.868   6.987   0.271  2.2302  0.8794  4.7580
  187MOL   H15037722   7.009   6.907   0.330 -0.5760 -1.9663  0.2164
  187MOL   H15137723   6.986   7.109   0.100  1.1629 -0.1715 -1.1996
  187MOL   C15237724   7.163   7.052   0.184  0.0707  0.1408  0.6992
  187MOL   O15337725   7.221   6.968   0.250  0.0254 -0.3241  0.5738
  187MOL   C15437726   7.246   7.170   0.120  0.2216  0.0098  0.0366
  187MOL   C15537727   7.349   7.233   0.215 -0.3035 -0.6236  0.5434
  187MOL   N15637728   7.304   7.274   0.347  0.2728  0.3266  0.1573
  187MOL   H15737729   7.165   7.242   0.111  0.7132  0.6451  0.6756
  187MOL   H15837730   7.282   7.153   0.019 -0.9439  0.5261 -0.4740
  187MOL   H15937731   7.423   7.155   0.228  0.0240 -0.5034 -0.5497
  187MOL   H16037732   7.403   7.318   0.175  0.4819 -0.9739  0.8488
  187MOL   H16137733   7.291   7.206   0.421  0.5866 -1.0718 -1.0485
  187MOL   C16237734   7.279   7.404   0.385 -0.6302 -0.1523  0.2617
  187MOL   O16337735   7.261   7.498   0.308 -0.2205 -0.8588  0.7490
  187MOL   C16437736   7.283   7.434   0.535 -0.4405 -0.6072  0.3893
  187MOL   C16537737   7.359   7.565   0.571  0.2882 -0.5689  0.2874
  187MOL   N16637738   7.500   7.566   0.552  0.3848 -0.6969 -0.2401
  187MOL   H16737739   7.296   7.347   0.599 -0.3182  0.5324  1.9441
  187MOL   H16837740   7.179   7.454   0.558 -1.2750 -2.4588 -1.6214
  187MOL   H16937741   7.321   7.656   0.524  1.6449 -0.3658 -0.4470
  187MOL   H17037742   7.338   7.595   0.673  0.1802 -0.8757  0.3540
  187MOL   H17137743   7.538   7.643   0.498  1.0664 -1.2955 -0.6304
  187MOL   C17237744   7.582   7.504   0.631 -0.1664  0.1815 -0.0062
  187MOL   O17337745   7.546   7.435   0.724 -0.1434  0.0427  0.1993
  187MOL   C17437746   7.729   7.543   0.627 -0.4966  0.1108 -0.4306
  187MOL   C17537747   7.764   7.652   0.725  0.5181 -0.2471 -1.0656
  187MOL   N17637748   7.734   0.016   0.681 -0.2779  0.1145  0.2473
  187MOL   H17737749   7.740   7.576   0.524  2.3754  0.8867  0.0747
  187MOL   H17837750   0.001   7.450   0.648 -0.1403  0.1688 -1.0828
  187MOL   H17937751   7.710   7.639   0.819  1.6224  0.2353 -0.3503
  187MOL   H18037752   0.090   7.640   0.749  1.1357  0.5840 -3.2317
  187MOL   H18137753   7.641   0.028   0.643 -1.0217 -2.8241  1.0348
  187MOL   C18237754   0.036   0.118   0.694  0.3681 -0.5426  0.1012
  187MOL   O18337755   0.154   0.115   0.736 -0.4326  0.1412 -0.8431
  187MOL   C18437756   7.752   0.254   0.671 -0.2789  0.3952  0.7656
  187MOL   C18537757   7.709   0.283   0.530 -0.6682 -0.2438 -0.1075
  187MOL   N18637758   7.562   0.295   0.525  0.5428 -1.0997  0.4368
  187MOL   H18737759   0.038   0.333   0.707 -1.1331  2.2191 -1.5749
  187MOL   H18837760   7.670   0.262   0.743 -1.1136  1.1115 -0.2645
  187MOL   H18937761   7.765   0.364   0.484 -1.7062  0.0802 -0.8123
  187MOL   H19037762   7.729   0.200   0.461  0.5160  0.6919 -0.9135
  187MOL   H19137763   7.534   0.391   0.509 -1.3820 -2.0065 -1.9893
  187MOL   C19237764   7.467   0.202   0.540 -0.3590 -0.2031 -0.0283
  187MOL   O19337765   7.495   0.084   0.531 -0.7504 -0.0713  0.4691
  187MOL   C19437766   7.321   0.254   0.542 -0.1074 -0.3909 -0.6093
  187MOL   C19537767   7.289   0.367   0.645  0.1434 -0.2075 -0.1516
  187MOL   N19637768   7.305   0.498   0.582  1.2734  0.1360 -0.2104
  187MOL   H19737769   7.299   0.281   0.438 -0.9631  0.2930 -0.2556
  187MOL   H19837770   7.258   0.167   0.560  0.4724 -0.7262 -0.1637
  187MOL   H19937771   7.188   0.358   0.687 -0.2353  0.6833 -0.8647
  187MOL   H20037772   7.357   0.356   0.730  0.1316  2.0372  0.1658
  187MOL   H20137773   7.400   0.500   0.548  1.2304  0.6046 -0.3065
  187MOL   H20237774   7.307   0.562   0.660 -0.9719  1.1497 -0.9548
  188MOL     C137775   3.509   1.376   0.660  0.3197  0.2187 -0.1046
  188MOL     O237776   3.605   1.394   0.736 -0.2760  0.1948  0.2730
  188MOL     C337777   3.400   1.479   0.684 -0.1828 -0.6404 -0.2743
  188MOL     C437778   3.257   1.422   0.657 -0.0814 -0.9307  0.7497
  188MOL     N537779   3.226   1.429   0.517 -0.2520  0.0874 -0.6100
  188MOL     H637780   3.406   1.578   0.640 -2.6719 -0.1995  0.2865
  188MOL     H737781   3.416   1.500   0.789 -3.0461 -0.5386  0.1936
  188MOL     H837782   3.186   1.472   0.722  0.6338  0.5586  0.3884
  188MOL     H937783   3.262   1.316   0.685  2.7953 -0.6045  1.6362
  188MOL    H1037784   3.238   1.522   0.479 -2.1132  0.3945 -0.4843
  188MOL    H1137785   3.490   1.290   0.596  0.6213 -1.0335  1.4624
  188MOL    C1237786   3.193   1.337   0.424  0.0526 -0.0731  0.0985
  188MOL    O1337787   3.184   1.218   0.452  0.9938 -0.1580  0.8259
  188MOL    C1437788   3.156   1.386   0.277 -0.6729  0.5660  0.4139
  188MOL    C1537789   3.088   1.270   0.192 -0.2197 -0.1000 -1.0473
  188MOL    N1637790   3.067   1.311   0.057 -0.3602 -0.1254  0.3910
  188MOL    H1737791   3.244   1.430   0.231 -0.1367 -1.3864 -0.5030
  188MOL    H1837792   3.078   1.457   0.304  0.5766  1.5977  1.3549
  188MOL    H1937793   3.140   1.174   0.193 -0.4113 -0.2170  1.2470
  188MOL    H2037794   2.993   1.260   0.244  0.5217  0.2398  0.3970
  188MOL    H2137795   3.127   1.385   0.024  0.4882 -0.9417  0.0979
  188MOL    C2237796   2.972   1.271   7.755 -0.6210 -0.3931 -0.5353
  188MOL    O2337797   2.886   1.187   0.004  0.3375  0.4565  0.2933
  188MOL    C2437798   2.960   1.338   7.618  0.2413  0.7450 -0.1181
  188MOL    C2537799   2.913   1.234   7.504 -0.5002  0.2101  0.3443
  188MOL    N2637800   2.763   1.216   7.497 -0.2114 -0.0785 -0.4772
  188MOL    H2737801   3.058   1.366   7.581  2.0200 -3.5447  1.0204
  188MOL    H2837802   2.889   1.421   7.624 -0.6930 -0.0083 -0.6582
  188MOL    H2937803   2.951   1.262   7.406 -1.4752 -1.4441 -0.5291
  188MOL    H3037804   2.952   1.134   7.523 -0.6942 -0.1773 -1.2095
  188MOL    H3137805   2.722   1.162   7.571 -0.5209 -0.0609 -0.6366
  188MOL    C3237806   2.680   1.262   7.404  0.0237  0.2450  0.1582
  188MOL    O3337807   2.721   1.329   7.304  0.1753 -0.1737 -0.4024
  188MOL    C3437808   2.531   1.223   7.413  1.2070  0.5286  0.2165
  188MOL    C3537809   2.428   1.336   7.419 -0.9978 -0.1570 -0.5695
  188MOL    N3637810   2.291   1.285   7.417  0.4061  0.1586  0.1567
  188MOL    H3737811   2.500   1.165   7.501 -0.5076  0.6180 -0.2992
  188MOL    H3837812   2.505   1.160   7.328 -0.2117  1.6349 -0.1849
  188MOL    H3937813   2.438   1.397   7.509 -1.3929 -0.3582 -0.3882
  188MOL    H4037814   2.444   1.397   7.329 -3.4972  0.6351 -0.5256
  188MOL    H4137815   2.233   1.294   7.334 -0.7975  1.4945  1.0972
  188MOL    C4237816   2.221   1.251   7.522  0.2564 -0.2831  0.1193
  188MOL    O4337817   2.263   1.257   7.639 -0.2120  0.1026  0.8687
  188MOL    C4437818   2.079   1.201   7.496 -0.6373 -0.5246 -0.0901
  188MOL    C4537819   1.976   1.267   7.593  0.1822 -0.9605 -0.0903
  188MOL    N4637820   1.842   1.223   7.570  0.0116 -0.3894 -0.6947
  188MOL    H4737821   2.041   1.197   7.394  1.2210 -2.4591 -0.7308
  188MOL    H4837822   2.085   1.096   7.523  1.7063 -1.4466 -3.9166
  188MOL    H4937823   1.996   1.237   7.696  1.1189  0.6215  0.1926
  188MOL    H5037824   1.988   1.375   7.597  1.0096 -1.1369  3.0897
  188MOL    H5137825   1.792   1.277   7.501  0.9703 -0.1620 -1.2327
  188MOL    C5237826   1.779   1.120   7.622 -0.1983  0.0923 -0.7494
  188MOL    O5337827   1.833   1.048   7.696  0.1812 -0.2608  0.2281
  188MOL    C5437828   1.637   1.104   7.578 -0.1931 -0.0762  1.0590
  188MOL    C5537829   1.610   0.956   7.546  0.0775  0.5327 -0.1302
  188MOL    N5637830   1.477   0.939   7.480 -0.3189  0.2790 -0.2800
  188MOL    H5737831   1.573   1.142   7.658 -3.3008 -3.7396  0.4509
  188MOL    H5837832   1.628   1.165   7.488 -2.8624 -0.1112  1.2737
  188MOL    H5937833   1.608   0.889   7.632 -2.2847  0.0130 -0.5596
  188MOL    H6037834   1.685   0.921   7.475  0.1822  0.7010 -0.1020
  188MOL    H6137835   1.490   0.951   7.380  1.0975  1.6602  0.0549
  188MOL    C6237836   1.363   0.916   7.543  0.4807 -0.8055  0.1714
  188MOL    O6337837   1.349   0.912   7.666 -0.4553  0.1599  0.0257
  188MOL    C6437838   1.239   0.904   7.448  0.2052  0.8776  0.2975
  188MOL    C6537839   1.113   0.838   7.509  0.4463  0.2286 -0.6710
  188MOL    N6637840   1.060   0.915   7.620 -0.3900 -0.2966 -0.4319
  188MOL    H6737841   1.197   1.000   7.418 -2.2777 -0.0344  0.7583
  188MOL    H6837842   1.262   0.845   7.358 -0.3079 -1.0846  1.4256
  188MOL    H6937843   1.027   0.831   7.443 -0.7627  0.8847  0.8129
  188MOL    H7037844   1.129   0.735   7.543  1.9150  0.2839 -1.1388
  188MOL    H7137845   1.106   0.999   7.653  1.2551 -1.4132  0.2073
  188MOL    C7237846   0.965   0.868   7.704  0.7671 -0.0474  0.3949
  188MOL    O7337847   0.898   0.773   7.678  0.5780  0.0259  0.2795
  188MOL    C7437848   0.946   0.946   0.054  0.8065 -0.0870 -0.1175
  188MOL    C7537849   0.806   1.006   0.080 -0.2928  0.3151  0.7482
  188MOL    N7637850   0.703   0.922   0.142  0.0062  0.3115 -0.1653
  188MOL    H7737851   0.967   0.877   0.136  1.2103  0.3234  0.1263
  188MOL    H7837852   1.026   1.020   0.054  0.9707 -0.2657 -0.6126
  188MOL    H7937853   0.811   1.094   0.145 -3.8093  0.8248  0.4286
  188MOL    H8037854   0.775   1.052   7.767  0.7948  0.6227  0.5331
  188MOL    H8137855   0.661   0.861   0.073 -1.2892  1.2608 -0.2369
  188MOL    C8237856   0.669   0.921   0.270  0.4240 -0.7032 -0.6895
  188MOL    O8337857   0.723   0.993   0.358  0.1236  0.0864  0.1157
  188MOL    C8437858   0.554   0.831   0.305  1.1669  0.6332 -0.4119
  188MOL    C8537859   0.592   0.689   0.349  0.1011  0.3228  0.3601
  188MOL    N8637860   0.696   0.691   0.454 -0.0321 -0.8163 -0.2962
  188MOL    H8737861   0.498   0.881   0.385  1.8081 -1.8975  1.6684
  188MOL    H8837862   0.496   0.819   0.214  1.3976 -0.2880 -0.4350
  188MOL    H8937863   0.500   0.657   0.397 -1.0266 -0.0968 -2.0394
  188MOL    H9037864   0.603   0.615   0.270 -2.8213 -3.1387  3.0229
  188MOL    H9137865   0.739   0.778   0.483 -0.3064 -1.3818  1.8953
  188MOL    C9237866   0.716   0.584   0.534  0.4555 -0.0350 -0.8788
  188MOL    O9337867   0.670   0.472   0.506 -0.3424  0.5421  0.1205
  188MOL    C9437868   0.800   0.606   0.659 -0.4528 -0.7108 -0.5105
  188MOL    C9537869   0.744   0.510   0.772 -0.1274 -0.6242  0.1529
  188MOL    N9637870   0.826   0.520   0.897 -0.4315  0.2807  0.1410
  188MOL    H9737871   0.899   0.568   0.635 -1.0130 -2.1438 -0.6196
  188MOL    H9837872   0.813   0.712   0.679  0.2199 -0.4596 -2.2029
  188MOL    H9937873   0.638   0.529   0.784  0.3977  2.3848  0.4423
  188MOL   H10037874   0.757   0.404   0.752 -1.1290 -0.5086 -1.1436
  188MOL   H10137875   0.883   0.440   0.919 -0.9075  0.4335  2.0301
  188MOL   C10237876   0.793   0.587   1.007 -0.1863  0.0280 -0.4274
  188MOL   O10337877   0.729   0.697   1.007  0.1367  0.2116 -0.8314
  188MOL   C10437878   0.826   0.521   1.134  0.5334 -0.2579  0.4260
  188MOL   C10537879   0.722   0.420   1.184  0.2429  0.2966  0.7809
  188MOL   N10637880   0.751   0.282   1.151 -0.2056 -0.0294  1.1182
  188MOL   H10737881   0.835   0.603   1.205 -1.5896 -0.1605  0.6139
  188MOL   H10837882   0.921   0.469   1.130  0.1599 -0.8019 -2.5625
  188MOL   H10937883   0.707   0.433   1.291 -0.8779  2.7911  0.3645
  188MOL   H11037884   0.625   0.454   1.147 -0.2708 -1.7497  0.2001
  188MOL   H11137885   0.675   0.225   1.118  1.5742 -0.6651 -2.1875
  188MOL   C11237886   0.856   0.212   1.191 -0.0236  1.1608 -0.3480
  188MOL   O11337887   0.934   0.258   1.272  0.2230  0.2122 -0.1609
  188MOL   C11437888   0.879   0.068   1.147 -1.1294  0.7741 -0.2490
  188MOL   C11537889   1.015   0.031   1.101 -0.6324  0.4158  0.8147
  188MOL   N11637890   1.092   7.717   1.192 -0.4267 -0.9165 -0.3003
  188MOL   H11737891   0.810   0.053   1.064 -2.9519  2.3251  0.9580
  188MOL   H11837892   0.836   0.009   1.228 -1.7997 -0.9126 -1.7996
  188MOL   H11937893   1.001   7.767   1.003  0.2734 -1.6928  1.6030
  188MOL   H12037894   1.085   0.112   1.082 -0.2493 -0.1696 -0.2849
  188MOL   H12137895   1.049   7.650   1.255  0.0844 -0.6206  0.3664
  188MOL   C12237896   1.216   7.682   1.150 -0.5716 -0.8138  0.4865
  188MOL   O12337897   1.272   7.728   1.049 -0.3783  0.2045  0.0071
  188MOL   C12437898   1.288   7.576   1.227 -0.0256 -0.1008  0.2594
  188MOL   C12537899   1.425   7.531   1.179 -0.1907  0.2882 -0.8493
  188MOL   N12637900   1.448   7.387   1.204 -0.3523 -0.1095  0.4475
  188MOL   H12737901   1.226   7.486   1.236  0.9396 -0.8045 -0.1368
  188MOL   H12837902   1.285   7.601   1.334 -1.7890 -1.1755  0.4875
  188MOL   H12937903   1.445   7.545   1.072  0.5872  3.0039 -0.3761
  188MOL   H13037904   1.496   7.591   1.236 -1.3779  0.2183  0.7139
  188MOL   H13137905   1.373   7.323   1.180 -1.8323  2.1185 -1.1204
  188MOL   C13237906   1.559   7.341   1.257 -0.1003  0.1259 -0.1897
  188MOL   O13337907   1.653   7.418   1.292 -0.0997 -0.0548  0.2374
  188MOL   C13437908   1.570   7.188   1.269 -0.3347 -0.1548 -0.9135
  188MOL   C13537909   1.704   7.130   1.321 -0.9684  0.2417 -0.8005
  188MOL   N13637910   1.686   6.990   1.339 -0.2120 -0.1090 -0.5966
  188MOL   H13737911   1.544   7.149   1.171 -1.1298  1.9564 -1.5768
  188MOL   H13837912   1.490   7.156   1.335  1.4049 -1.6113  0.5457
  188MOL   H13937913   1.785   7.148   1.251  0.6171 -1.1328  0.6453
  188MOL   H14037914   1.722   7.181   1.416  0.7536  0.8405 -1.4287
  188MOL   H14137915   1.706   6.925   1.264 -0.7625 -1.3370  0.3008
  188MOL   C14237916   1.638   6.937   1.449  0.3916 -0.1618  0.0589
  188MOL   O14337917   1.624   6.997   1.557 -0.3591 -0.2572  0.2565
  188MOL   C14437918   1.591   6.790   1.435 -0.0516  0.5278 -0.6390
  188MOL   C14537919   1.592   6.716   1.572 -0.7807  0.1979 -0.0678
  188MOL   N14637920   1.511   6.592   1.564  0.0147  0.3881 -0.0244
  188MOL   H14737921   1.643   6.738   1.355 -0.9755  0.5181 -1.2486
  188MOL   H14837922   1.489   6.803   1.398 -0.1822  0.3749 -0.3366
  188MOL   H14937923   1.695   6.690   1.594 -0.6295 -0.3077 -1.3195
  188MOL   H15037924   1.559   6.778   1.655 -2.4572 -3.5665  2.1956
  188MOL   H15137925   1.434   6.583   1.628 -1.0758  0.8320 -1.2625
  188MOL   C15237926   1.548   6.487   1.495 -0.3853  0.2962  0.3644
  188MOL   O15337927   1.654   6.486   1.426  0.0859 -0.4387  0.0275
  188MOL   C15437928   1.452   6.369   1.495 -0.1405 -0.1538  0.7715
  188MOL   C15537929   1.479   6.255   1.391  0.5452 -0.2332 -0.0361
  188MOL   N15637930   1.347   6.186   1.354  0.1955  0.0938  0.6381
  188MOL   H15737931   1.354   6.415   1.486  0.5310  1.4635  1.4756
  188MOL   H15837932   1.458   6.314   1.589  0.0159 -0.1541  0.7623
  188MOL   H15937933   1.510   6.299   1.296 -0.6033  1.7528  0.4909
  188MOL   H16037934   1.558   6.182   1.407  0.4530 -1.2076 -3.5043
  188MOL   H16137935   1.259   6.234   1.351 -0.7643 -1.7443 -1.7177
  188MOL   C16237936   1.335   6.059   1.311 -0.3341 -0.2351 -1.1393
  188MOL   O16337937   1.426   5.976   1.324  0.7048  0.0681  0.1516
  188MOL   C16437938   1.196   6.019   1.272  0.7548  0.3412 -0.1784
  188MOL   C16537939   1.134   5.882   1.301 -0.0650  0.4407  0.5391
  188MOL   N16637940   1.110   5.853   1.442  0.4894  0.8606  0.3662
  188MOL   H16737941   1.212   6.024   1.164  0.0305  1.1380 -0.2605
  188MOL   H16837942   1.123   6.095   1.300 -2.2018 -2.0180 -1.1675
  188MOL   H16937943   1.042   5.874   1.244  0.2249 -1.2297  0.3021
  188MOL   H17037944   1.205   5.808   1.265 -1.0813  0.7880 -2.2998
  188MOL   H17137945   1.149   5.766   1.475  1.6067  1.4168  0.5223
  188MOL   C17237946   1.066   5.933   1.533  0.0566  0.0924  0.2060
  188MOL   O17337947   0.992   6.027   1.506  0.4171  0.2148  0.5119
  188MOL   C17437948   1.094   5.915   1.677 -0.7258  0.4849  0.4499
  188MOL   C17537949   1.210   5.991   1.737 -0.2571 -0.1622  0.4368
  188MOL   N17637950   1.350   5.951   1.688  0.1587  0.7395 -0.4185
  188MOL   H17737951   1.129   5.813   1.691  0.5416  0.5761 -1.8740
  188MOL   H17837952   1.011   5.916   1.749 -2.1116 -1.6140 -1.0598
  188MOL   H17937953   1.190   6.095   1.712  0.7072 -0.1880 -0.4948
  188MOL   H18037954   1.219   5.972   1.844  2.0114  1.2583  0.5301
  188MOL   H18137955   1.374   5.959   1.591  0.0648 -1.1021 -0.6132
  188MOL   C18237956   1.443   5.890   1.764  0.0327 -0.3699  0.0364
  188MOL   O18337957   1.428   5.862   1.879 -0.4606  0.1563 -0.2113
  188MOL   C18437958   1.573   5.861   1.698 -0.2182 -0.5682 -0.4652
  188MOL   C18537959   1.680   5.804   1.788 -0.3235 -0.6551  0.8185
  188MOL   N18637960   1.797   5.746   1.728 -0.5999  0.0645  0.1791
  188MOL   H18737961   1.617   5.944   1.642 -0.1567 -0.3485 -0.0882
  188MOL   H18837962   1.560   5.784   1.621 -0.0602  1.5591 -2.7106
  188MOL   H18937963   1.740   5.882   1.834 -0.6984  0.7447 -1.0083
  188MOL   H19037964   1.640   5.765   1.881  0.7698  0.9690  2.0108
  188MOL   H19137965   1.854   5.811   1.675 -0.0061  0.7876  1.6696
  188MOL   C19237966   1.801   5.610   1.700  0.3530 -1.1138  0.0840
  188MOL   O19337967   1.710   5.531   1.730 -0.2017  0.4009  0.1460
  188MOL   C19437968   1.918   5.568   1.614  0.1014  0.0715  0.3664
  188MOL   C19537969   1.962   5.419   1.622  0.0615 -0.4076  0.1758
  188MOL   N19637970   1.858   5.329   1.579 -0.2388 -0.2734 -0.1323
  188MOL   H19737971   1.907   5.615   1.516  1.6240  0.4607  0.3681
  188MOL   H19837972   2.001   5.622   1.659  0.6322 -1.4037  1.1798
  188MOL   H19937973   2.052   5.411   1.562  0.1962  3.1640 -0.2088
  188MOL   H20037974   1.996   5.398   1.724  0.5796 -1.0022 -0.1233
  188MOL   H20137975   1.844   5.338   1.480  1.3331 -1.0652 -0.4296
  188MOL   H20237976   1.775   5.356   1.631  1.6481  0.6559  2.4824
  189MOL     C137977   5.532   7.278   5.846 -0.0762  0.0035  0.1557
  189MOL     O237978   5.603   7.361   5.907 -0.0862 -0.5452 -0.1089
  189MOL     C337979   5.380   7.279   5.863 -0.3296  0.0847 -0.2150
  189MOL     C437980   5.322   7.354   5.983 -0.4176  0.3080 -0.4477
  189MOL     N537981   5.297   7.492   5.972 -0.7480  0.4039 -0.0305
  189MOL     H637982   5.335   7.181   5.848  0.1459 -0.0755 -0.6212
  189MOL     H737983   5.344   7.340   5.780  0.3270  1.0912  0.2266
  189MOL     H837984   5.389   7.341   6.068 -1.1626 -0.7965 -0.0319
  189MOL     H937985   5.224   7.310   5.999 -0.0391  0.1143  1.4488
  189MOL    H1037986   5.382   7.547   5.967  0.9979 -2.2064  0.2205
  189MOL    H1137987   5.576   7.202   5.781 -1.8436  0.7508 -1.9315
  189MOL    C1237988   5.183   7.560   5.971  0.0344  0.6429 -0.1276
  189MOL    O1337989   5.070   7.510   5.963 -0.5225  0.4315 -0.2147
  189MOL    C1437990   5.200   7.711   5.969 -0.4640  0.0766 -0.0676
  189MOL    C1537991   5.106   0.020   6.048 -0.1014 -0.0424  0.2051
  189MOL    N1637992   5.078   7.761   6.192  0.2478 -0.2208  0.3434
  189MOL    H1737993   5.197   7.745   5.865  0.2612  4.2460  1.1824
  189MOL    H1837994   5.301   7.730   6.006 -0.0441  1.3523 -1.8051
  189MOL    H1937995   5.135   0.125   6.047  0.9826 -0.3355  0.1055
  189MOL    H2037996   5.013   0.010   5.992  0.9426 -0.8983 -1.4041
  189MOL    H2137997   4.980   7.745   6.209  0.5529 -1.9600  0.5432
  189MOL    C2237998   5.160   7.759   6.294 -0.1026 -0.6113  0.4362
  189MOL    O2337999   5.279   0.007   6.292 -0.3158  0.2094 -0.3908
  189MOL    C2438000   5.091   7.728   6.422 -0.1905 -0.7179  0.3515
  189MOL    C2538001   5.142   7.594   6.488 -0.5127 -0.9653 -0.0968
  189MOL    N2638002   5.073   7.477   6.430 -0.0436  0.4191  0.3100
  189MOL    H2738003   4.982   7.730   6.420 -0.2206 -0.2591  1.7229
  189MOL    H2838004   5.129   0.021   6.494  0.5909 -0.4194 -0.3651
  189MOL    H2938005   5.251   7.596   6.485 -0.5738  1.9316 -1.5983
  189MOL    H3038006   5.117   7.592   6.594 -1.7783  0.8374 -0.3447
  189MOL    H3138007   4.973   7.492   6.431 -0.1253 -0.1278  1.3164
  189MOL    C3238008   5.127   7.368   6.389 -0.6434 -0.0821 -0.4254
  189MOL    O3338009   5.248   7.347   6.390 -0.2407 -0.1131  0.4226
  189MOL    C3438010   5.032   7.267   6.326  0.0693 -0.4673  0.5966
  189MOL    C3538011   5.096   7.128   6.306 -0.4401 -0.3594 -0.0894
  189MOL    N3638012   5.140   7.050   6.429 -0.3027  0.0105  0.2834
  189MOL    H3738013   5.009   7.302   6.225 -1.4306 -1.2878  0.6274
  189MOL    H3838014   4.941   7.268   6.386  1.6382  0.2388  3.0017
  189MOL    H3938015   5.021   7.059   6.266  0.2571 -1.4290  0.4311
  189MOL    H4038016   5.182   7.138   6.240  1.0215 -4.1989  1.1114
  189MOL    H4138017   5.241   7.048   6.438 -0.3561  0.5757  1.0909
  189MOL    C4238018   5.074   7.000   6.533 -0.0426 -0.0989 -0.5911
  189MOL    O4338019   4.955   6.968   6.534  0.5991 -0.0668 -0.0450
  189MOL    C4438020   5.155   6.960   6.656 -0.8198 -0.9119 -0.4650
  189MOL    C4538021   5.252   7.069   6.711  0.1076  0.0924  0.6327
  189MOL    N4638022   5.193   7.158   6.812 -0.1103 -0.2305 -0.0720
  189MOL    H4738023   5.109   6.904   6.737 -3.0557 -0.1046 -1.1397
  189MOL    H4838024   5.210   6.886   6.597 -1.1717 -0.5900 -1.2120
  189MOL    H4938025   5.346   7.019   6.730  0.4474  0.7109  0.6036
  189MOL    H5038026   5.282   7.135   6.629  1.4037 -0.0825  0.9700
  189MOL    H5138027   5.097   7.189   6.803 -0.3957 -0.8392  0.7802
  189MOL    C5238028   5.258   7.184   6.921 -0.2652  0.1164 -0.4370
  189MOL    O5338029   5.363   7.135   6.950 -0.0937  0.7239  0.4802
  189MOL    C5438030   5.189   7.281   7.016 -0.2692 -0.0823 -0.6993
  189MOL    C5538031   5.210   7.245   7.162  0.6412  0.6767 -0.3274
  189MOL    N5638032   5.163   7.117   7.206 -0.5367  0.5936 -0.2837
  189MOL    H5738033   5.238   7.377   6.998  0.7042 -0.5783 -0.7534
  189MOL    H5838034   5.085   7.287   6.984 -0.5885  0.9974  0.5077
  189MOL    H5938035   5.151   7.317   7.218  1.7253  0.1051  1.6183
  189MOL    H6038036   5.315   7.253   7.191  1.2992  0.0352 -2.4173
  189MOL    H6138037   5.080   7.076   7.166 -1.4436 -0.6961  2.7540
  189MOL    C6238038   5.207   7.051   7.316 -0.1568  0.1400  0.2330
  189MOL    O6338039   5.296   7.092   7.392 -0.1451  0.2914 -0.2625
  189MOL    C6438040   5.124   6.932   7.343 -0.6770 -0.0381 -0.0535
  189MOL    C6538041   5.195   6.823   7.423 -0.1248  0.8428 -0.3119
  189MOL    N6638042   5.098   6.724   7.473  0.1450  0.3127  0.0487
  189MOL    H6738043   5.030   6.954   7.394  0.2869 -0.0362  1.7929
  189MOL    H6838044   5.099   6.892   7.245  0.9510  1.7636 -1.2375
  189MOL    H6938045   5.272   6.778   7.361  0.0802  2.3117 -1.1245
  189MOL    H7038046   5.246   6.868   7.508  0.3705  0.7671 -0.5640
  189MOL    H7138047   5.097   6.713   7.573  0.6202 -2.5399 -0.2259
  189MOL    C7238048   5.029   6.640   7.402  0.8607  0.4783 -0.1660
  189MOL    O7338049   5.035   6.628   7.280  0.8424 -0.5433 -0.3010
  189MOL    C7438050   4.942   6.541   7.478  0.0615  0.4946  0.2824
  189MOL    C7538051   4.862   6.430   7.397  0.1895  0.0502  0.3841
  189MOL    N7638052   4.944   6.317   7.353  0.2074 -0.4322 -0.6672
  189MOL    H7738053   5.000   6.483   7.550 -0.1030  0.2054  0.1810
  189MOL    H7838054   4.865   6.594   7.533  0.1757 -2.0736  3.0285
  189MOL    H7938055   4.779   6.392   7.456  0.7113  0.8092  1.6211
  189MOL    H8038056   4.833   6.479   7.304  0.7828  0.6751  0.5272
  189MOL    H8138057   5.031   6.300   7.402  1.0005  0.8399 -1.6031
  189MOL    C8238058   4.896   6.227   7.264  0.3597  0.2934  0.2014
  189MOL    O8338059   4.796   6.251   7.192  0.3712 -0.5895  0.0139
  189MOL    C8438060   4.985   6.103   7.243  0.2614  0.4757  0.2465
  189MOL    C8538061   4.901   5.972   7.239 -0.2952 -0.1105 -0.3895
  189MOL    N8638062   4.984   5.850   7.243  0.8162  0.2087 -1.1520
  189MOL    H8738063   5.051   6.102   7.156  0.4451 -0.8948  0.3980
  189MOL    H8838064   5.046   6.091   7.332 -0.2797 -1.1980  0.4195
  189MOL    H8938065   4.832   5.964   7.323 -0.1475 -0.6209 -0.3134
  189MOL    H9038066   4.844   5.966   7.147  0.0372  0.9283 -0.6656
  189MOL    H9138067   5.048   5.820   7.171  1.7263 -1.2862  0.2575
  189MOL    C9238068   5.004   5.768   7.348  0.1146 -0.3536 -0.0299
  189MOL    O9338069   4.957   5.795   7.458 -0.5064  0.0542 -0.6495
  189MOL    C9438070   5.097   5.652   7.327  0.2498 -0.0018  0.2022
  189MOL    C9538071   5.071   5.557   7.203 -0.1262 -0.0497 -0.3262
  189MOL    N9638072   5.115   5.417   7.229 -0.0139 -0.3307 -0.0094
  189MOL    H9738073   5.199   5.688   7.322 -0.1130  0.9323 -0.4957
  189MOL    H9838074   5.099   5.599   7.423 -0.9419 -0.3467  0.0449
  189MOL    H9938075   4.962   5.554   7.198 -0.0352 -0.2404 -2.5936
  189MOL   H10038076   5.101   5.593   7.105 -3.3023 -1.7654 -2.0252
  189MOL   H10138077   5.047   5.343   7.239  1.2253 -1.5044 -0.1193
  189MOL   C10238078   5.241   5.370   7.240 -0.0546  0.0673  0.5740
  189MOL   O10338079   5.341   5.446   7.244 -0.6666  0.1348  0.4151
  189MOL   C10438080   5.264   5.226   7.272  0.0834  0.4658 -0.9594
  189MOL   C10538081   5.359   5.157   7.173 -0.3548 -0.8498  0.1604
  189MOL   N10638082   5.387   5.025   7.211  0.3908 -0.5755 -0.4280
  189MOL   H10738083   5.173   5.170   7.292  0.9788 -0.8881 -0.5981
  189MOL   H10838084   5.327   5.229   7.361 -0.8241  0.9750 -0.3205
  189MOL   H10938085   5.308   5.148   7.077  0.1914  1.1356 -0.3408
  189MOL   H11038086   5.452   5.209   7.150  1.1663 -1.7879  3.7782
  189MOL   H11138087   5.438   5.015   7.298 -1.1062 -4.1628  0.1217
  189MOL   C11238088   5.335   4.907   7.168 -0.1879 -1.1277 -0.5166
  189MOL   O11338089   5.271   4.908   7.068  0.5191 -0.5336  0.1802
  189MOL   C11438090   5.355   4.781   7.253 -0.4187 -0.3854 -0.0439
  189MOL   C11538091   5.224   4.716   7.311  0.1989  0.0663  0.1646
  189MOL   N11638092   5.249   4.629   7.431 -0.7828 -0.3948  0.3964
  189MOL   H11738093   5.414   4.803   7.342  0.6607  1.7634 -1.2458
  189MOL   H11838094   5.416   4.719   7.188  0.3215  0.3667 -0.0850
  189MOL   H11938095   5.161   4.798   7.346 -0.6189  0.1003 -1.3773
  189MOL   H12038096   5.160   4.680   7.231  0.2139  0.5282 -0.0606
  189MOL   H12138097   5.257   4.679   7.519 -1.7139  0.8800 -0.2260
  189MOL   C12238098   5.235   4.498   7.426  0.1759 -1.1277 -0.5950
  189MOL   O12338099   5.235   4.436   7.325  0.0739  0.3807 -0.1486
  189MOL   C12438100   5.211   4.433   7.562 -0.2760  0.5082 -0.0419
  189MOL   C12538101   5.114   4.314   7.540 -0.6767 -0.4547  0.4674
  189MOL   N12638102   5.127   4.212   7.646  0.0386  0.0940  0.3609
  189MOL   H12738103   5.160   4.502   7.629 -1.3203  1.8060 -2.0916
  189MOL   H12838104   5.303   4.404   7.612  0.0574  0.2977 -0.7711
  189MOL   H12938105   5.010   4.348   7.537 -1.0020 -1.3449  1.1602
  189MOL   H13038106   5.130   4.267   7.442 -1.2598  0.3027  0.0031
  189MOL   H13138107   5.208   4.225   7.705  1.2306 -0.9591 -0.9929
  189MOL   C13238108   5.033   4.114   7.642  0.2031 -0.4802 -0.0416
  189MOL   O13338109   4.930   4.121   7.563 -0.5544  0.9092 -0.1954
  189MOL   C13438110   5.046   3.998   7.745  0.5251 -0.0121  0.4926
  189MOL   C13538111   5.009   3.862   7.693  0.1833 -0.0547 -0.3681
  189MOL   N13638112   5.073   3.750   7.774  0.4204 -0.0198  0.1763
  189MOL   H13738113   4.982   4.014   0.052 -0.4792  0.4138 -0.3088
  189MOL   H13838114   5.150   3.994   7.776  0.9646  1.1223 -0.7547
  189MOL   H13938115   4.902   3.848   7.681  0.4171 -1.1581 -1.2671
  189MOL   H14038116   5.050   3.853   7.592  0.5305  2.0739 -0.4515
  189MOL   H14138117   5.126   3.785   0.072 -1.5073  1.9528  0.6279
  189MOL   C14238118   5.070   3.624   7.737 -0.6099  0.0809  0.0946
  189MOL   O14338119   5.011   3.588   7.636  0.2145 -0.5016  0.4504
  189MOL   C14438120   5.153   3.535   0.032 -0.2548  0.8355 -0.1393
  189MOL   C14538121   5.287   3.511   7.742 -0.3302  0.4523 -0.7003
  189MOL   N14638122   5.372   3.408   0.022 -0.1159 -0.1993  0.1862
  189MOL   H14738123   5.097   3.442   0.033 -0.6402  1.0280 -1.9308
  189MOL   H14838124   5.186   3.572   0.129 -0.2132 -0.2611  0.2677
  189MOL   H14938125   5.267   3.475   7.641  2.7292  0.6649 -1.4503
  189MOL   H15038126   5.349   3.600   7.729  0.2676  0.1141 -0.2085
  189MOL   H15138127   5.338   3.365   0.107  2.3060  0.4092  1.4794
  189MOL   C15238128   5.493   3.371   7.751  0.1000  0.1068 -1.0177
  189MOL   O15338129   5.537   3.428   7.650 -0.0152 -0.2227  0.0481
  189MOL   C15438130   5.583   3.278   0.056 -0.4978 -0.1420  0.2226
  189MOL   C15538131   5.713   3.218   7.780 -0.1959 -0.3674  0.7601
  189MOL   N15638132   5.674   3.092   7.720  0.1061 -0.3677  0.3961
  189MOL   H15738133   5.519   3.199   0.095 -0.5759 -0.0449  0.2915
  189MOL   H15838134   5.605   3.336   0.146  0.7360 -0.6822  0.2844
  189MOL   H15938135   5.737   3.286   7.698 -1.0982 -0.0392  0.7571
  189MOL   H16038136   5.795   3.212   0.071 -1.2443  0.7716  2.0991
  189MOL   H16138137   5.597   3.093   7.656  0.2074  0.7263  0.2805
  189MOL   C16238138   5.730   2.974   7.723  0.8274  0.5777  0.0177
  189MOL   O16338139   5.836   2.957   7.776 -0.6567 -0.1918 -0.1863
  189MOL   C16438140   5.662   2.869   7.637 -0.1804 -0.3581 -0.1585
  189MOL   C16538141   5.680   2.728   7.697 -0.4679 -0.6266 -0.2096
  189MOL   N16638142   5.592   2.624   7.641 -0.1849  0.2106 -0.1287
  189MOL   H16738143   5.710   2.860   7.540  2.4454 -2.4525  1.2621
  189MOL   H16838144   5.554   2.874   7.625 -0.3796 -2.7704  0.4108
  189MOL   H16938145   5.784   2.698   7.708 -0.0962  1.2556  1.7892
  189MOL   H17038146   5.641   2.749   0.017 -0.1529 -1.3036  0.0545
  189MOL   H17138147   5.511   2.601   7.698 -0.3586  0.9807 -0.0629
  189MOL   C17238148   5.613   2.554   7.530 -0.1375  0.9077  0.1284
  189MOL   O17338149   5.705   2.580   7.454 -0.4334  0.2301 -0.0154
  189MOL   C17438150   5.527   2.431   7.509  0.0623 -0.0000  0.6455
  189MOL   C17538151   5.433   2.444   7.382 -0.5635  0.2920  0.1506
  189MOL   N17638152   5.346   2.567   7.380  0.7063 -0.1249  0.2965
  189MOL   H17738153   5.453   2.414   7.588  0.9129  0.1821  1.4961
  189MOL   H17838154   5.607   2.357   7.510  0.8922  0.8732 -0.9143
  189MOL   H17938155   5.491   2.449   7.290  0.0678 -3.2621  0.2863
  189MOL   H18038156   5.371   2.355   7.372 -1.2864  0.7732  0.2875
  189MOL   H18138157   5.350   2.616   7.292 -0.2314 -0.7234 -0.0946
  189MOL   C18238158   5.245   2.603   7.460 -0.3360 -0.1414 -0.3518
  189MOL   O18338159   5.208   2.538   7.555  0.1198 -0.2627 -0.1148
  189MOL   C18438160   5.170   2.727   7.416  0.2912 -0.4093  0.1721
  189MOL   C18538161   5.041   2.746   7.490  0.2927 -0.4246  0.2564
  189MOL   N18638162   5.054   2.778   7.632  0.6702 -0.2953 -0.2669
  189MOL   H18738163   5.127   2.711   7.317 -1.1746  1.3732  0.4744
  189MOL   H18838164   5.239   2.811   7.404 -0.8676  0.6854  1.0313
  189MOL   H18938165   4.973   2.813   7.436 -1.0264 -1.5997  0.4245
  189MOL   H19038166   4.990   2.651   7.478  0.7599 -0.5236 -1.0736
  189MOL   H19138167   5.098   2.718   7.700 -0.3763  1.9274  2.4395
  189MOL   C19238168   5.003   2.893   7.680  0.4477  0.2057  0.1133
  189MOL   O19338169   4.950   2.976   7.610  0.1290 -0.4647 -0.0343
  189MOL   C19438170   5.024   2.910   0.048 -0.1951  0.2435 -0.5934
  189MOL   C19538171   5.168   2.950   0.091 -0.0535  0.5106 -0.0230
  189MOL   N19638172   5.192   3.093   0.080 -0.2322  0.1890 -0.1904
  189MOL   H19738173   4.957   2.986   0.088 -0.4026 -1.1209  1.7756
  189MOL   H19838174   4.991   2.822   0.102 -0.1317  0.2692 -0.5139
  189MOL   H19938175   5.186   2.932   0.197  0.1256 -0.1499 -0.1611
  189MOL   H20038176   5.241   2.889   0.038 -2.5109 -2.8663  0.2967
  189MOL   H20138177   5.123   3.145   0.132 -1.2715 -0.4569 -0.9199
  189MOL   H20238178   5.173   3.115   7.764 -1.2953  0.3518  0.0553
  190MOL     C138179   0.575   4.018   0.993 -0.3074  0.6489  0.0260
  190MOL     O238180   0.620   4.063   1.097 -0.0958 -0.1124  0.4368
  190MOL     C338181   0.664   4.010   0.868  0.0438  0.1544  0.7098
  190MOL     C438182   0.769   4.115   0.852 -1.1314 -0.2448  0.4653
  190MOL     N538183   0.898   4.075   0.897  0.9371 -0.3042  0.4873
  190MOL     H638184   0.598   4.000   0.782 -0.0852  0.3499  0.7861
  190MOL     H738185   0.725   3.921   0.876  0.2538  0.1203 -1.0062
  190MOL     H838186   0.744   4.197   0.919 -1.3306 -1.0574  1.4006
  190MOL     H938187   0.778   4.144   0.747 -2.2108 -2.4269 -0.2650
  190MOL    H1038188   0.909   3.988   0.947 -0.5041 -0.5068  0.4751
  190MOL    H1138189   0.471   3.986   0.982  0.9712 -5.2631  2.8521
  190MOL    C1238190   1.007   4.139   0.855 -0.2656 -0.1107  0.0254
  190MOL    O1338191   0.997   4.246   0.792  0.6486  0.5145 -0.7217
  190MOL    C1438192   1.140   4.084   0.898 -0.5456 -0.6283 -0.3711
  190MOL    C1538193   1.195   3.964   0.823  0.4320  0.5388  0.5747
  190MOL    N1638194   1.342   3.941   0.833  0.1508 -0.2017  0.3361
  190MOL    H1738195   1.123   4.055   1.001 -1.1617  0.1730 -0.2378
  190MOL    H1838196   1.212   4.166   0.892  0.3280 -1.4900 -1.9614
  190MOL    H1938197   1.130   3.883   0.857  1.7163 -0.4753  0.6573
  190MOL    H2038198   1.163   3.979   0.721  0.0793  0.1832  0.6347
  190MOL    H2138199   1.404   4.019   0.846  0.6639 -0.7361  1.1561
  190MOL    C2238200   1.405   3.827   0.789 -0.3127  0.7672 -0.4376
  190MOL    O2338201   1.338   3.727   0.756 -0.0373 -0.0835 -0.0877
  190MOL    C2438202   1.559   3.819   0.792 -1.0350  0.2754 -0.0220
  190MOL    C2538203   1.612   3.709   0.881  0.7849  0.0154  0.1325
  190MOL    N2638204   1.620   3.744   1.019 -0.1270 -0.0265 -0.2483
  190MOL    H2738205   1.611   3.912   0.818  0.6073 -0.3589 -1.0057
  190MOL    H2838206   1.582   3.807   0.687 -2.9736  0.2389 -0.4607
  190MOL    H2938207   1.562   3.614   0.862 -0.8435  1.2640 -2.1062
  190MOL    H3038208   1.710   3.684   0.841 -0.1334 -1.1266 -1.4518
  190MOL    H3138209   1.535   3.744   1.073 -0.2203 -0.4910 -0.3965
  190MOL    C3238210   1.729   3.794   1.084  0.5128  0.9227  0.3800
  190MOL    O3338211   1.844   3.775   1.033  0.1405  0.2134 -0.4803
  190MOL    C3438212   1.715   3.866   1.223 -0.5180  0.2844 -0.0907
  190MOL    C3538213   1.791   3.811   1.344 -0.9012  0.0989 -0.4126
  190MOL    N3638214   1.925   3.868   1.366 -0.0068 -0.4919 -0.5905
  190MOL    H3738215   1.609   3.880   1.245 -0.9443 -0.3715 -1.6809
  190MOL    H3838216   1.739   3.972   1.215 -1.3381  0.5524  0.8835
  190MOL    H3938217   1.724   3.829   1.429 -0.7282 -0.8881 -0.0582
  190MOL    H4038218   1.797   3.703   1.331 -1.0118  0.0117  0.2535
  190MOL    H4138219   1.973   3.917   1.292  0.1335 -1.4894 -1.1780
  190MOL    C4238220   1.998   3.846   1.475 -0.0937  0.4387  0.1627
  190MOL    O4338221   1.957   3.768   1.564 -0.0950  0.1199 -0.3083
  190MOL    C4438222   2.126   3.933   1.494 -1.2751 -0.9192  0.1201
  190MOL    C4538223   2.187   3.935   1.635 -0.2277  0.2314  0.1378
  190MOL    N4638224   2.274   4.054   1.666 -0.0167 -0.3948 -0.3863
  190MOL    H4738225   2.197   3.888   1.425 -1.4106 -0.4439 -0.3343
  190MOL    H4838226   2.109   4.036   1.462 -0.6100 -0.5730  0.8584
  190MOL    H4938227   2.102   3.922   1.701  0.2695 -2.2443  0.3777
  190MOL    H5038228   2.250   3.846   1.646  1.3137  1.2530 -0.1521
  190MOL    H5138229   2.306   4.107   1.586 -1.3482 -0.4658 -0.9654
  190MOL    C5238230   2.286   4.110   1.783  0.2637 -0.1252 -0.5375
  190MOL    O5338231   2.256   4.046   1.886 -0.4251 -0.8708  0.2308
  190MOL    C5438232   2.331   4.251   1.789  0.8136  0.2230  0.1227
  190MOL    C5538233   2.423   4.275   1.909 -0.4638 -0.5570  0.5327
  190MOL    N5638234   2.558   4.223   1.884  0.1455  0.1091 -0.0091
  190MOL    H5738235   2.370   4.287   1.694 -1.8615  1.4717 -0.5400
  190MOL    H5838236   2.241   4.308   1.811 -0.6647 -1.6163 -0.9978
  190MOL    H5938237   2.387   4.229   2.001  1.7003 -0.9630  1.2103
  190MOL    H6038238   2.414   4.381   1.934  1.1317 -0.3180  0.1620
  190MOL    H6138239   2.564   4.150   1.815  1.3837  0.6206 -0.4618
  190MOL    C6238240   2.667   4.273   1.944 -0.3766  0.1762  0.8022
  190MOL    O6338241   2.669   4.362   2.028  0.6294  0.0197  0.1093
  190MOL    C6438242   2.802   4.208   1.901 -0.1323 -0.0874  0.1138
  190MOL    C6538243   2.903   4.318   1.865  0.4390  0.5413 -0.3342
  190MOL    N6638244   2.994   4.273   1.758 -0.3759  0.3030  1.0588
  190MOL    H6738245   2.842   4.156   1.988 -3.3014 -1.8027  0.5940
  190MOL    H6838246   2.792   4.132   1.824 -1.1326 -0.0080  0.1674
  190MOL    H6938247   2.862   4.413   1.833  2.2061  1.9937  1.5534
  190MOL    H7038248   2.964   4.343   1.952 -0.7964 -0.6452  0.8862
  190MOL    H7138249   2.970   4.196   1.697 -1.1463  1.4997 -0.1512
  190MOL    C7238250   3.111   4.332   1.739 -0.6238 -0.3548  0.1224
  190MOL    O7338251   3.155   4.421   1.816  0.1251 -0.2110 -0.8132
  190MOL    C7438252   3.181   4.301   1.613 -0.4459 -0.6061 -0.7691
  190MOL    C7538253   3.097   4.348   1.484  0.2488  0.7705 -0.1824
  190MOL    N7638254   3.187   4.387   1.370 -0.1963 -0.2878  0.2796
  190MOL    H7738255   3.270   4.365   1.620  0.1457 -1.4354 -0.6727
  190MOL    H7838256   3.210   4.198   1.596  1.6958 -0.1117 -0.3099
  190MOL    H7938257   3.020   4.278   1.452  1.6948 -0.9723  0.0923
  190MOL    H8038258   3.029   4.430   1.507  0.1220  0.4881  0.4475
  190MOL    H8138259   3.226   4.480   1.361  0.0058 -0.3301  0.7155
  190MOL    C8238260   3.236   4.314   1.272  0.0390 -0.5285 -0.1744
  190MOL    O8338261   3.207   4.199   1.269 -0.2430 -0.3849 -0.7752
  190MOL    C8438262   3.326   4.374   1.171  0.4514  0.1224 -0.3671
  190MOL    C8538263   3.413   4.278   1.095 -0.0904  0.9383 -0.4037
  190MOL    N8638264   3.491   4.361   1.011  0.1053 -0.3510  0.9306
  190MOL    H8738265   3.264   4.415   1.092  1.7068  2.2386 -0.2745
  190MOL    H8838266   3.371   4.462   1.216  0.8063 -1.2206  1.9775
  190MOL    H8938267   3.478   4.217   1.157 -2.0282 -1.7357 -0.9151
  190MOL    H9038268   3.345   4.220   1.032 -0.5145 -0.6922  1.4903
  190MOL    H9138269   3.459   4.369   0.915  2.0121  1.5418  0.4105
  190MOL    C9238270   3.606   4.423   1.047  0.2940 -0.1125 -0.0610
  190MOL    O9338271   3.657   4.407   1.156  0.7454 -0.8587 -0.5450
  190MOL    C9438272   3.673   4.517   0.943 -0.2245 -0.2309 -0.1516
  190MOL    C9538273   3.825   4.542   0.960 -0.3042  0.1542 -0.9439
  190MOL    N9638274   3.863   4.632   1.070 -0.1025 -0.2436  0.4821
  190MOL    H9738275   3.643   4.489   0.842  2.3822  0.4157 -1.1532
  190MOL    H9838276   3.619   4.611   0.951  0.5737  0.4053 -1.9883
  190MOL    H9938277   3.878   4.448   0.973 -0.5400  0.3607  1.6539
  190MOL   H10038278   3.868   4.584   0.868  1.3278 -0.3795 -0.4333
  190MOL   H10138279   3.794   4.680   1.126  0.6357  1.4254 -0.0011
  190MOL   C10238280   3.988   4.670   1.100  0.7876 -0.5071  0.0943
  190MOL   O10338281   4.085   4.634   1.034 -0.2137 -0.6825  0.4047
  190MOL   C10438282   4.005   4.779   1.208 -0.1582  1.0631 -0.5274
  190MOL   C10538283   4.150   4.806   1.244  0.5316 -0.2515 -0.1050
  190MOL   N10638284   4.162   4.875   1.378  0.1065  0.4082 -0.3788
  190MOL   H10738285   3.935   4.755   1.288 -0.0690 -0.5026 -0.9078
  190MOL   H10838286   3.959   4.872   1.173 -0.9803 -0.0276 -2.4118
  190MOL   H10938287   4.215   4.720   1.256  0.5142 -0.1089  1.1014
  190MOL   H11038288   4.190   4.874   1.169 -0.3099  0.5620  0.1711
  190MOL   H11138289   4.114   4.964   1.373  1.3706  1.0917 -0.7070
  190MOL   C11238290   4.234   4.832   1.486  1.3835  0.0241  0.3359
  190MOL   O11338291   4.290   4.723   1.487  0.1727  0.0065  0.1293
  190MOL   C11438292   4.245   4.919   1.611  0.2177 -0.0316  0.2496
  190MOL   C11538293   4.383   5.001   1.614  0.6535 -1.2032 -0.2594
  190MOL   N11638294   4.377   5.146   1.594  0.0395 -0.3388 -0.1214
  190MOL   H11738295   4.239   4.853   1.697 -1.1424 -2.7971 -1.8836
  190MOL   H11838296   4.150   4.973   1.604  1.6877  2.4812 -0.6938
  190MOL   H11938297   4.432   4.994   1.710  0.7602 -0.9223 -0.2933
  190MOL   H12038298   4.446   4.960   1.535 -0.7909 -1.8050 -1.1427
  190MOL   H12138299   4.406   5.211   1.667 -0.7731 -0.4536  0.3113
  190MOL   C12238300   4.364   5.197   1.471  0.3420 -1.1204  0.1929
  190MOL   O12338301   4.312   5.130   1.378  0.0795  0.0818 -0.1855
  190MOL   C12438302   4.407   5.342   1.462 -0.3189 -0.0715 -0.3135
  190MOL   C12538303   4.529   5.350   1.380 -0.4674  0.2733  0.0586
  190MOL   N12638304   4.651   5.290   1.438  0.6280  0.6569 -0.0992
  190MOL   H12738305   4.411   5.391   1.559  0.0713 -0.5769 -0.0667
  190MOL   H12838306   4.326   5.395   1.412  0.3641  1.7404  0.4540
  190MOL   H12938307   4.505   5.305   1.284  2.2367 -2.1252  0.4282
  190MOL   H13038308   4.547   5.457   1.364 -1.7566  0.6092  0.7266
  190MOL   H13138309   4.681   5.205   1.393 -0.6883  0.2806 -0.3141
  190MOL   C13238310   4.737   5.349   1.514  0.6243 -0.6209  0.1260
  190MOL   O13338311   4.723   5.461   1.564 -0.6270 -0.1762  0.3801
  190MOL   C13438312   4.844   5.252   1.551 -0.3549 -0.4159 -0.7918
  190MOL   C13538313   4.812   5.140   1.655 -0.1223 -0.1786  0.6857
  190MOL   N13638314   4.811   5.005   1.596 -0.1111 -0.0756 -0.1528
  190MOL   H13738315   4.935   5.306   1.577 -0.4695  0.2228 -1.7062
  190MOL   H13838316   4.887   5.204   1.463  0.5805 -0.6331 -0.2239
  190MOL   H13938317   4.880   5.134   1.740  1.4520 -3.5242 -0.7125
  190MOL   H14038318   4.712   5.150   1.698 -1.4177  1.4424 -2.6096
  190MOL   H14138319   4.722   4.978   1.557 -0.0779  0.0923 -0.3469
  190MOL   C14238320   4.924   4.936   1.568  0.0048 -0.0691  0.9467
  190MOL   O14338321   5.035   4.967   1.606  0.3074 -0.6289  0.4328
  190MOL   C14438322   4.900   4.806   1.484 -0.9504  0.3692 -0.5102
  190MOL   C14538323   4.872   4.837   1.340  0.1577  0.3788  0.6146
  190MOL   N14638324   4.732   4.808   1.308 -0.0504  0.0590 -0.2836
  190MOL   H14738325   4.820   4.748   1.528  1.4357 -0.3426  3.0259
  190MOL   H14838326   4.999   4.761   1.487 -1.7861 -1.4855 -0.2599
  190MOL   H14938327   4.916   4.932   1.313  2.1314 -0.6451  0.0978
  190MOL   H15038328   4.911   4.764   1.269  1.1846  0.6458  0.8915
  190MOL   H15138329   4.715   4.735   1.241 -1.2144  0.2259 -0.1836
  190MOL   C15238330   4.636   4.900   1.310 -0.2468  0.4412  0.8419
  190MOL   O15338331   4.636   4.995   1.385 -0.2344  0.2140  0.1436
  190MOL   C15438332   4.528   4.892   1.205 -0.3459 -0.2790  0.4644
  190MOL   C15538333   4.501   5.018   1.128 -0.1915  0.2855 -0.3669
  190MOL   N15638334   4.608   5.089   1.070 -0.0841 -0.0080  0.4001
  190MOL   H15738335   4.441   4.849   1.255  2.0288 -4.2244  1.4773
  190MOL   H15838336   4.548   4.818   1.127 -1.8175 -0.3603  0.1460
  190MOL   H15938337   4.425   4.994   1.053 -0.6933 -1.4301  0.6687
  190MOL   H16038338   4.445   5.071   1.205  1.3921  1.0287  0.2784
  190MOL   H16138339   4.617   5.187   1.094 -1.5253 -0.4903  3.1139
  190MOL   C16238340   4.691   5.027   0.985  0.1440  0.0078  0.0008
  190MOL   O16338341   4.668   4.911   0.944 -0.6635  0.3047 -0.5654
  190MOL   C16438342   4.806   5.108   0.924 -0.5647 -0.1901  0.0688
  190MOL   C16538343   4.888   5.192   1.029 -0.0615  0.7281 -0.4617
  190MOL   N16638344   4.866   5.339   1.026 -0.0330 -0.6977 -0.6408
  190MOL   H16738345   4.759   5.170   0.848  2.1745 -0.9961 -2.3958
  190MOL   H16838346   4.872   5.040   0.869  2.3336  0.9513  1.9815
  190MOL   H16938347   4.884   5.152   1.130  0.1567 -0.2051 -0.8113
  190MOL   H17038348   4.994   5.189   1.003  0.3219  1.3715  0.9873
  190MOL   H17138349   4.836   5.395   0.948  1.8369  0.9453 -0.2037
  190MOL   C17238350   4.869   5.414   1.136  0.0511  0.7995  0.0394
  190MOL   O17338351   4.911   5.371   1.244 -0.1656 -0.4825  0.1351
  190MOL   C17438352   4.829   5.563   1.113  1.0301  0.0213 -0.1298
  190MOL   C17538353   4.794   5.635   1.239 -1.0415  0.3909 -0.3037
  190MOL   N17638354   4.744   5.771   1.225 -0.5359  0.5549 -0.4830
  190MOL   H17738355   4.747   5.567   1.041 -0.1431  0.1061  1.1959
  190MOL   H17838356   4.918   5.609   1.070  0.4847  0.2838 -0.9943
  190MOL   H17938357   4.713   5.583   1.289 -0.0530  0.7343  1.6687
  190MOL   H18038358   4.877   5.646   1.308 -0.5769  0.2868 -0.8372
  190MOL   H18138359   4.785   5.842   1.284  1.0544 -0.2710 -0.5668
  190MOL   C18238360   4.652   5.823   1.148 -0.2103  0.8033  0.3537
  190MOL   O18338361   4.601   5.759   1.061 -0.0692 -0.8425  0.2201
  190MOL   C18438362   4.598   5.961   1.174  0.7239 -0.3968 -0.8670
  190MOL   C18538363   4.603   6.062   1.067  0.3914  0.0333  0.4238
  190MOL   N18638364   4.736   6.117   1.052  0.0685  0.1521  0.3286
  190MOL   H18738365   4.664   5.998   1.253  1.8171  0.3383 -2.1092
  190MOL   H18838366   4.495   5.955   1.208 -0.2319  1.2556 -3.3374
  190MOL   H18938367   4.557   6.033   0.972 -0.1227 -1.8646  1.2167
  190MOL   H19038368   4.542   6.145   1.101  0.7975  0.2063  0.7199
  190MOL   H19138369   4.813   6.083   1.108 -0.1658  0.3594  0.7813
  190MOL   C19238370   4.780   6.208   0.962  0.7604 -0.0245 -0.4413
  190MOL   O19338371   4.700   6.269   0.892 -0.1546 -0.0528 -0.4529
  190MOL   C19438372   4.928   6.239   0.966  0.1033 -0.6822  0.3056
  190MOL   C19538373   4.978   6.295   1.100 -0.0618  0.3179 -0.0289
  190MOL   N19638374   4.942   6.437   1.104 -0.0931  0.2063 -0.0517
  190MOL   H19738375   4.977   6.143   0.955  2.3334  0.3294  1.1526
  190MOL   H19838376   4.939   6.298   0.875 -1.0381  0.1974  0.7264
  190MOL   H19938377   4.940   6.245   1.189  0.7945  0.1367  0.2364
  190MOL   H20038378   5.086   6.298   1.112  0.0318 -1.6040 -0.1860
  190MOL   H20138379   4.842   6.442   1.088  0.2129 -1.9430 -3.1153
  190MOL   H20238380   4.946   6.465   1.201 -1.1541  3.7401 -0.9514
  191MOL     C138381   1.041   0.854   0.423  0.2032 -0.1251  0.0490
  191MOL     O238382   0.993   0.786   0.507 -0.1774 -0.1234  0.8088
  191MOL     C338383   1.188   0.880   0.437  0.0690 -0.1726 -0.0916
  191MOL     C438384   1.239   0.954   0.321 -0.2296  0.5552  0.2161
  191MOL     N538385   1.200   1.096   0.317 -0.1238  0.0783  0.3477
  191MOL     H638386   1.229   0.779   0.442 -1.9450 -1.0633 -0.9854
  191MOL     H738387   1.211   0.922   0.534  0.8484 -0.3648 -0.1866
  191MOL     H838388   1.210   0.899   0.232 -0.7401 -1.7384  1.7417
  191MOL     H938389   1.347   0.958   0.331 -0.1811  0.2347 -0.1857
  191MOL    H1038390   1.144   1.125   0.395 -1.4184 -0.2866 -0.4276
  191MOL    H1138391   0.988   0.897   0.338 -0.3284  2.5115  1.6531
  191MOL    C1238392   1.233   1.184   0.225 -0.3361 -0.2701  0.3697
  191MOL    O1338393   1.186   1.299   0.235 -0.3089  0.0621 -0.1035
  191MOL    C1438394   1.322   1.159   0.107  0.0640 -0.5005 -0.3174
  191MOL    C1538395   1.292   1.251   7.770 -0.6028  0.7989 -0.5833
  191MOL    N1638396   1.349   1.384   0.008 -0.0725 -0.1975 -0.2764
  191MOL    H1738397   1.324   1.052   0.088 -1.2003 -0.3173 -1.5683
  191MOL    H1838398   1.423   1.185   0.139 -1.3181  1.9939  2.2129
  191MOL    H1938399   1.332   1.197   7.684 -1.1594 -2.0210  0.8542
  191MOL    H2038400   1.184   1.260   7.753 -0.7921  2.9332  1.5053
  191MOL    H2138401   1.306   1.442   0.079 -0.4100  1.0535 -1.4740
  191MOL    C2238402   1.424   1.461   7.709 -0.0810 -0.2702 -0.2701
  191MOL    O2338403   1.485   1.407   7.614  0.3281  0.2612 -0.1032
  191MOL    C2438404   1.432   1.610   7.740 -0.1210 -0.6462 -0.1266
  191MOL    C2538405   1.305   1.679   0.017  0.3514  0.3067  0.2275
  191MOL    N2638406   1.250   1.644   0.146  0.7419  0.2945  0.0654
  191MOL    H2738407   1.454   1.663   7.647 -0.3175  1.2863  0.8977
  191MOL    H2838408   1.517   1.627   0.025 -0.6806  2.2281 -0.0386
  191MOL    H2938409   1.310   1.788   0.012  1.2460  0.2549 -0.1279
  191MOL    H3038410   1.218   1.654   7.736  0.6430  0.6178 -0.3140
  191MOL    H3138411   1.156   1.607   0.153  1.7135 -2.1765  0.9260
  191MOL    C3238412   1.297   1.685   0.269 -0.7345 -0.9848 -0.4012
  191MOL    O3338413   1.394   1.760   0.280  0.3478  0.4876  0.1193
  191MOL    C3438414   1.214   1.642   0.398  0.0462 -0.0424  0.6397
  191MOL    C3538415   1.238   1.735   0.511 -0.3463  0.3067 -0.5757
  191MOL    N3638416   1.124   1.731   0.603 -0.2763 -0.0191 -0.3019
  191MOL    H3738417   1.240   1.538   0.418  1.1679  0.2249  0.6568
  191MOL    H3838418   1.109   1.633   0.374 -0.0056 -1.0001  1.2053
  191MOL    H3938419   1.317   1.693   0.573  0.4225 -3.1826 -3.6768
  191MOL    H4038420   1.274   1.835   0.486 -0.5463  0.7740  0.9823
  191MOL    H4138421   1.129   1.658   0.673 -0.3026  0.6703  0.4319
  191MOL    C4238422   1.024   1.823   0.617  0.1218  0.2412 -0.0216
  191MOL    O4338423   1.016   1.916   0.537 -0.0575  0.1434  0.2583
  191MOL    C4438424   0.934   1.809   0.742  0.2520 -0.2228  0.1319
  191MOL    C4538425   0.864   1.942   0.772 -0.3958  0.3684 -0.5460
  191MOL    N4638426   0.755   1.914   0.868 -0.2788 -0.5641  0.6384
  191MOL    H4738427   0.869   1.722   0.731  2.3817 -1.7770 -0.5516
  191MOL    H4838428   1.004   1.794   0.825  0.0698  0.6143  0.4465
  191MOL    H4938429   0.937   2.006   0.822  1.6038 -1.3129 -1.2515
  191MOL    H5038430   0.825   1.992   0.683 -1.6096 -1.6752 -1.1953
  191MOL    H5138431   0.657   1.928   0.847 -0.1705 -0.4690  0.1808
  191MOL    C5238432   0.776   1.898   0.996 -0.4206 -0.3914 -0.5352
  191MOL    O5338433   0.883   1.897   1.047  0.5752 -0.1515 -0.4283
  191MOL    C5438434   0.646   1.883   1.076 -0.0072  0.3562  0.8791
  191MOL    C5538435   0.672   1.893   1.222  0.0844  0.4552 -0.2855
  191MOL    N5638436   0.544   1.898   1.289 -0.0893 -1.2036 -0.1741
  191MOL    H5738437   0.583   1.968   1.047  2.0566  1.1986 -1.3864
  191MOL    H5838438   0.593   1.790   1.055 -1.4941  1.5543 -0.9652
  191MOL    H5938439   0.725   1.983   1.252 -1.3785  0.8537  1.1454
  191MOL    H6038440   0.720   1.802   1.258 -1.4449  0.0879  0.8964
  191MOL    H6138441   0.505   1.814   1.328  3.0781 -2.7078 -0.0880
  191MOL    C6238442   0.467   2.012   1.295 -0.0810  0.3472 -0.3584
  191MOL    O6338443   0.484   2.108   1.219  0.0897 -0.0937  0.3866
  191MOL    C6438444   0.346   2.008   1.393 -0.1732  0.5097 -0.2491
  191MOL    C6538445   0.270   2.139   1.396 -0.8372  0.1339 -0.2308
  191MOL    N6638446   0.326   2.233   1.497 -0.9957 -0.2332  0.7030
  191MOL    H6738447   0.283   1.930   1.349  1.5237 -0.0728 -1.7315
  191MOL    H6838448   0.374   1.966   1.489 -0.8136  0.1447 -0.2223
  191MOL    H6938449   0.257   2.194   1.303  1.3644  1.4074  0.1878
  191MOL    H7038450   0.166   2.119   1.421 -0.5874 -1.3180 -0.3026
  191MOL    H7138451   0.425   2.221   1.518 -0.6189  1.3946 -0.1105
  191MOL    C7238452   0.248   2.315   1.571  0.4645 -0.3678 -0.6814
  191MOL    O7338453   0.135   2.348   1.532  0.3711 -0.4359 -0.1691
  191MOL    C7438454   0.317   2.394   1.687 -0.3655 -0.7036  0.7894
  191MOL    C7538455   0.373   2.534   1.636 -0.0403  0.2482 -0.0385
  191MOL    N7638456   0.278   2.609   1.553  0.5664 -0.7949  0.7534
  191MOL    H7738457   0.234   2.416   1.754  0.2016 -1.5322  1.7860
  191MOL    H7838458   0.393   2.338   1.742  1.5733  0.9002 -0.1920
  191MOL    H7938459   0.392   2.599   1.721 -0.5767 -2.3413  2.1447
  191MOL    H8038460   0.465   2.519   1.580 -0.7429  1.1847 -1.4617
  191MOL    H8138461   0.179   2.602   1.567  0.3938 -0.6956 -0.3516
  191MOL    C8238462   0.314   2.692   1.451 -1.1752  0.6245  0.0122
  191MOL    O8338463   0.435   2.717   1.437  0.3092 -0.2787  0.0439
  191MOL    C8438464   0.201   2.746   1.358  0.2095 -0.6002  0.2564
  191MOL    C8538465   0.167   2.637   1.257 -0.0886  0.5922  0.5360
  191MOL    N8638466   0.088   2.527   1.301  0.1464  0.1344 -0.2416
  191MOL    H8738467   0.114   2.772   1.419  1.4522  0.6124  1.5621
  191MOL    H8838468   0.222   2.835   1.299 -0.7695 -0.8465 -0.4730
  191MOL    H8938469   0.123   2.674   1.164  1.1141  0.6251 -0.0283
  191MOL    H9038470   0.260   2.593   1.220 -0.8437 -1.1796  0.6534
  191MOL    H9138471   0.128   2.445   1.345 -1.2423 -1.2525 -1.5209
  191MOL    C9238472   7.734   2.529   1.299 -0.5009  0.0366 -1.0965
  191MOL    O9338473   7.675   2.618   1.241 -0.3970  0.3473 -0.3379
  191MOL    C9438474   7.654   2.422   1.372  0.0096 -0.3907  0.7425
  191MOL    C9538475   7.560   2.479   1.479 -0.2610 -0.8199 -0.6819
  191MOL    N9638476   7.617   2.483   1.616 -0.2244 -0.3077  0.3789
  191MOL    H9738477   7.590   2.394   1.288 -1.2796  0.8673  1.2973
  191MOL    H9838478   7.709   2.335   1.407 -0.8226 -0.3937  2.0537
  191MOL    H9938479   7.525   2.575   1.443 -0.0806 -0.4521  0.1104
  191MOL   H10038480   7.466   2.425   1.492 -0.8534  0.4570  0.4246
  191MOL   H10138481   7.556   2.444   1.687 -2.2717  4.0441  1.1722
  191MOL   C10238482   7.708   2.559   1.673 -0.1358  0.4045 -0.2945
  191MOL   O10338483   7.777   2.634   1.608 -0.1611  0.3103 -0.6350
  191MOL   C10438484   7.718   2.556   1.828 -0.6914  0.3184  0.3755
  191MOL   C10538485   0.076   2.588   1.883 -0.7468 -0.4314 -0.2036
  191MOL   N10638486   0.081   2.681   1.997  0.2076  0.1208 -0.0633
  191MOL   H10738487   7.698   2.450   1.845 -0.9175 -0.1211 -2.5013
  191MOL   H10838488   7.631   2.607   1.868 -1.6361 -2.0079  1.3835
  191MOL   H10938489   0.127   2.501   1.925 -0.9838 -0.8568 -0.7851
  191MOL   H11038490   0.141   2.618   1.802  0.0656 -0.1859  0.5350
  191MOL   H11138491   0.140   2.763   1.985  0.8162 -0.2167  0.6185
  191MOL   C11238492   0.051   2.648   2.125  0.1400  0.0460  0.2774
  191MOL   O11338493   0.013   2.539   2.160  0.0524 -0.0173  0.3039
  191MOL   C11438494   0.077   2.753   2.234 -0.4702 -0.5761  0.0324
  191MOL   C11538495   7.739   2.795   2.328 -0.3711 -0.1796 -0.4844
  191MOL   N11638496   7.685   2.686   2.415  0.7135  0.2363  0.0401
  191MOL   H11738497   0.094   2.840   2.171 -1.2101 -1.0042 -0.7661
  191MOL   H11838498   0.164   2.722   2.292 -1.2862  0.6211  1.9583
  191MOL   H11938499   7.766   2.875   2.396 -1.1331 -0.2997 -0.0276
  191MOL   H12038500   7.653   2.832   2.273  0.8473 -0.3311 -2.5238
  191MOL   H12138501   7.738   2.601   2.424  2.4139  1.1069 -1.4421
  191MOL   C12238502   7.554   2.678   2.448 -0.4035 -0.3911 -0.6105
  191MOL   O12338503   7.470   2.760   2.416  0.0575 -0.1492  0.0454
  191MOL   C12438504   7.508   2.565   2.540 -0.4875  0.3328 -0.1864
  191MOL   C12538505   7.353   2.569   2.574  0.1713 -0.1066 -0.0969
  191MOL   N12638506   7.347   2.534   2.718  0.6962  0.4903  0.6437
  191MOL   H12738507   7.559   2.571   2.637  1.6654 -0.8459 -1.2054
  191MOL   H12838508   7.528   2.464   2.505  0.1173  0.0103  1.0396
  191MOL   H12938509   7.302   2.664   2.560 -1.2544 -1.0209 -1.2056
  191MOL   H13038510   7.288   2.503   2.519 -0.6577  1.3325 -0.8781
  191MOL   H13138511   7.338   2.608   2.785  0.9999  1.0697  0.0463
  191MOL   C13238512   7.309   2.415   2.761  0.1949  0.2977 -0.1901
  191MOL   O13338513   7.310   2.314   2.687  0.8365 -0.5709  0.3775
  191MOL   C13438514   7.292   2.407   2.918 -0.0038 -0.2497 -0.2213
  191MOL   C13538515   7.182   2.299   2.968 -1.0794  0.8530  0.1123
  191MOL   N13638516   7.059   2.377   2.994 -0.2616 -0.3330  0.0189
  191MOL   H13738517   7.257   2.503   2.955 -0.6894  0.1181 -1.7806
  191MOL   H13838518   7.387   2.401   2.971 -0.3860  0.2090  0.5054
  191MOL   H13938519   7.166   2.212   2.906  0.0516  1.6663 -1.3561
  191MOL   H14038520   7.225   2.263   3.062 -0.1042 -1.5359 -1.2104
  191MOL   H14138521   7.021   2.384   3.087  4.3624 -0.5902  2.0664
  191MOL   C14238522   6.966   2.391   2.898  0.7191 -0.2236 -0.6158
  191MOL   O14338523   7.001   2.385   2.783  0.1488  0.3670 -0.4529
  191MOL   C14438524   6.820   2.411   2.945 -0.2068  0.6168 -0.4982
  191MOL   C14538525   6.745   2.533   2.887 -0.0704 -1.2082 -0.2592
  191MOL   N14638526   6.700   2.515   2.754 -0.7826 -0.1247  0.2511
  191MOL   H14738527   6.827   2.413   3.054 -0.4928  2.9186 -0.5011
  191MOL   H14838528   6.770   2.315   2.935 -0.1610  0.2395  2.2941
  191MOL   H14938529   6.652   2.556   2.939  0.1363  2.3091 -1.3084
  191MOL   H15038530   6.809   2.621   2.895  1.5767 -2.5876  2.3621
  191MOL   H15138531   6.764   2.464   2.694 -0.9879 -0.6079  0.4433
  191MOL   C15238532   6.596   2.563   2.689  0.4349  0.0915  0.1615
  191MOL   O15338533   6.518   2.642   2.733 -0.2706 -0.2843  0.2510
  191MOL   C15438534   6.584   2.504   2.548 -0.8096  0.0242 -0.1805
  191MOL   C15538535   6.499   2.583   2.444  1.2390 -0.1700  0.1662
  191MOL   N15638536   6.382   2.498   2.423  0.9727 -0.0015 -0.2237
  191MOL   H15738537   6.562   2.397   2.548  0.9621 -0.3697 -1.5266
  191MOL   H15838538   6.688   2.502   2.514 -0.9699 -0.7445 -0.6410
  191MOL   H15938539   6.477   2.684   2.478  0.8522 -0.5903  1.2030
  191MOL   H16038540   6.540   2.590   2.344 -1.4852  0.9419 -0.9072
  191MOL   H16138541   6.387   2.406   2.465  3.1634 -0.3350 -1.1247
  191MOL   C16238542   6.286   2.522   2.337 -0.3281  0.1019 -0.7697
  191MOL   O16338543   6.283   2.621   2.274  0.0726  0.0812  0.2872
  191MOL   C16438544   6.191   2.408   2.318 -0.1756 -0.1813  0.0015
  191MOL   C16538545   6.111   2.404   2.191  0.1307  0.4648 -0.3048
  191MOL   N16638546   6.190   2.401   2.073  0.9121 -1.0580 -0.0345
  191MOL   H16738547   6.113   2.425   2.393 -0.4256  1.3379 -0.5862
  191MOL   H16838548   6.244   2.312   2.323 -1.2302 -0.6825  2.2871
  191MOL   H16938549   6.064   2.306   2.198  0.4268  0.1182 -2.8251
  191MOL   H17038550   6.034   2.481   2.199  0.5849  0.8619  0.3026
  191MOL   H17138551   6.286   2.373   2.081  0.5498 -1.8255  1.8585
  191MOL   C17238552   6.158   2.470   1.964  0.1725 -0.2278 -0.5700
  191MOL   O17338553   6.050   2.527   1.957 -0.0829 -0.2148 -0.3343
  191MOL   C17438554   6.264   2.467   1.849 -0.1911 -0.3765 -0.1434
  191MOL   C17538555   6.293   2.605   1.795 -0.0696  0.1299 -0.4723
  191MOL   N17638556   6.337   2.620   1.657 -0.2004 -0.7110  0.5276
  191MOL   H17738557   6.224   2.406   1.767 -1.9422  0.5233  0.0115
  191MOL   H17838558   6.353   2.410   1.873 -0.5645 -1.1720 -0.6074
  191MOL   H17938559   6.209   2.672   1.814  1.3378  1.7085  0.3820
  191MOL   H18038560   6.373   2.655   1.851  0.3534  1.1155 -1.9440
  191MOL   H18138561   6.432   2.642   1.632 -0.5284 -3.1246 -3.2045
  191MOL   C18238562   6.254   2.624   1.553  0.0230  0.2197 -0.1770
  191MOL   O18338563   6.130   2.610   1.558  0.0170  0.4959  0.2278
  191MOL   C18438564   6.312   2.658   1.419 -0.0232  0.3046  0.1576
  191MOL   C18538565   6.303   2.805   1.383  0.3866 -0.0775 -0.5316
  191MOL   N18638566   6.349   2.842   1.255  0.2877 -0.2576 -0.6213
  191MOL   H18738567   6.257   2.616   1.335  1.4273  1.0575 -1.2051
  191MOL   H18838568   6.418   2.635   1.405  0.1443 -0.5602  2.6954
  191MOL   H18938569   6.199   2.836   1.384 -0.0421 -1.3807 -1.8814
  191MOL   H19038570   6.353   2.869   1.456  0.0182  0.7911 -1.0360
  191MOL   H19138571   6.273   2.856   1.191 -1.5250 -2.3861  0.9742
  191MOL   C19238572   6.468   2.890   1.220  0.4052  0.0873 -0.1572
  191MOL   O19338573   6.570   2.876   1.291  0.1832  0.0951  0.2632
  191MOL   C19438574   6.473   2.965   1.085 -0.0324  0.7824 -0.0143
  191MOL   C19538575   6.590   3.062   1.079 -0.5435  0.2481 -0.4861
  191MOL   N19638576   6.600   3.146   0.961 -0.4504 -0.0387  0.7392
  191MOL   H19738577   6.471   2.910   0.992 -0.0509  2.4541 -1.0277
  191MOL   H19838578   6.382   3.025   1.080 -1.0000 -0.3117  3.1952
  191MOL   H19938579   6.590   3.122   1.170 -1.8902  1.0111 -0.9680
  191MOL   H20038580   6.677   2.998   1.071 -0.9823 -0.3884 -0.2762
  191MOL   H20138581   6.542   3.225   0.986 -2.8861 -1.1163 -1.2223
  191MOL   H20238582   6.690   3.191   0.960 -0.1089 -0.6952  1.8320
  192MOL     C138583   0.630   6.603   5.832 -0.1808 -0.1949  0.6727
  192MOL     O238584   0.704   6.674   5.903  0.4052  0.1901 -0.3348
  192MOL     C338585   0.621   6.456   5.853 -0.5804  0.3976  0.8303
  192MOL     C438586   0.713   6.364   5.777  0.3876 -0.0176  0.4490
  192MOL     N538587   0.677   6.342   5.637  0.1586 -0.0876  0.1378
  192MOL     H638588   0.523   6.415   5.827  1.6407 -3.9104 -1.2967
  192MOL     H738589   0.641   6.438   5.958  0.7665 -1.4077  0.2750
  192MOL     H838590   0.715   6.271   5.833  0.7396 -0.4452 -0.2616
  192MOL     H938591   0.817   6.398   5.771  0.1063  0.5719 -1.6838
  192MOL    H1038592   0.659   6.426   5.584  1.3139 -1.1235 -1.9862
  192MOL    H1138593   0.564   6.640   5.754 -1.3953  0.2431  1.8741
  192MOL    C1238594   0.669   6.226   5.570 -0.1557 -1.3091  0.0425
  192MOL    O1338595   0.705   6.115   5.612  0.0564 -0.1879  0.1193
  192MOL    C1438596   0.608   6.227   5.429 -1.1427 -0.2116  0.2427
  192MOL    C1538597   0.453   6.213   5.425  0.0210  0.2637 -0.6801
  192MOL    N1638598   0.377   6.326   5.490  0.2808 -0.1374  0.1007
  192MOL    H1738599   0.664   6.155   5.369  0.8853  0.8381  0.8537
  192MOL    H1838600   0.626   6.325   5.385 -0.4185 -0.1331  0.7038
  192MOL    H1938601   0.423   6.202   5.320  0.0594 -0.4167 -0.6221
  192MOL    H2038602   0.420   6.119   5.469  1.2773  0.2279  0.2086
  192MOL    H2138603   0.306   6.296   5.555 -0.6384  0.6229 -0.5564
  192MOL    C2238604   0.390   6.455   5.451  0.0115 -0.5748  0.5219
  192MOL    O2338605   0.457   6.493   5.356 -0.2437  0.3313  0.1762
  192MOL    C2438606   0.315   6.553   5.533  0.6432 -0.0400  0.3420
  192MOL    C2538607   0.290   6.687   5.461  0.7554  0.4646 -1.0361
  192MOL    N2638608   0.196   6.671   5.347  0.1819 -0.0049 -0.6346
  192MOL    H2738609   0.356   6.582   5.630 -0.7462 -1.6294  1.4372
  192MOL    H2838610   0.211   6.522   5.547 -0.6758  3.3331 -1.5326
  192MOL    H2938611   0.246   6.753   5.535 -2.0548 -0.0367 -2.2072
  192MOL    H3038612   0.388   6.710   5.419  1.7446 -0.4788  0.6952
  192MOL    H3138613   0.172   6.582   5.306 -2.3098  0.9609 -1.3863
  192MOL    C3238614   0.136   6.775   5.287  0.2229 -0.1263  0.2084
  192MOL    O3338615   0.164   6.891   5.313 -0.0320 -0.6086 -0.0783
  192MOL    C3438616   0.037   6.734   5.177 -0.1552 -0.0665  0.4368
  192MOL    C3538617   7.775   6.855   5.079 -0.3450 -0.1325  0.6315
  192MOL    N3638618   0.093   6.876   4.972  0.2952 -0.0257 -0.5898
  192MOL    H3738619   7.732   6.680   5.217 -0.0123 -1.5707 -1.2344
  192MOL    H3838620   0.085   6.667   5.106  2.2186  0.2945  1.6284
  192MOL    H3938621   7.681   6.836   5.027 -1.0553  1.3629  1.3533
  192MOL    H4038622   7.765   6.946   5.138 -0.6345  0.5068 -0.3986
  192MOL    H4138623   0.185   6.834   4.970  0.0470 -0.5635 -0.8519
  192MOL    C4238624   0.077   6.965   4.868 -0.2437 -0.1995 -0.2070
  192MOL    O4338625   7.748   7.017   4.849  0.0242 -0.1003  0.1134
  192MOL    C4438626   0.196   6.996   4.779  0.0976  0.2489 -0.7741
  192MOL    C4538627   0.193   7.098   4.668 -0.0301  0.5158 -0.3065
  192MOL    N4638628   0.160   7.049   4.536  0.6239  0.3091  0.0693
  192MOL    H4738629   0.263   7.035   4.855  0.1721  0.5979 -1.0180
  192MOL    H4838630   0.229   6.897   4.745 -1.3743 -0.5919  0.1908
  192MOL    H4938631   0.111   7.169   4.679 -0.6227  0.1275 -2.0062
  192MOL    H5038632   0.287   7.152   4.669  0.8517 -0.9947  0.1265
  192MOL    H5138633   0.107   6.964   4.521  2.6041 -0.6677 -1.6488
  192MOL    C5238634   0.190   7.118   4.427 -0.5961 -0.0146 -0.4794
  192MOL    O5338635   0.231   7.234   4.427  0.0035  0.6271  0.4541
  192MOL    C5438636   0.181   7.041   4.301 -0.7800  0.6068 -0.0769
  192MOL    C5538637   0.056   7.067   4.223 -0.4497  0.5246  0.6195
  192MOL    N5638638   0.032   6.972   4.116 -0.1264  0.0842  0.0971
  192MOL    H5738639   0.266   7.057   4.234  0.2473  0.6587  1.2180
  192MOL    H5838640   0.193   6.934   4.321 -0.1905  0.4516 -1.1921
  192MOL    H5938641   0.068   7.162   4.170  2.1914 -1.4536 -2.5577
  192MOL    H6038642   7.752   7.083   4.290 -1.6957  0.4218 -0.8908
  192MOL    H6138643   0.109   6.908   4.107 -0.1737 -0.6070  3.7770
  192MOL    C6238644   7.704   6.949   4.046  0.7846 -1.0148  0.3709
  192MOL    O6338645   7.596   7.008   4.064 -0.1919 -0.2273  0.1970
  192MOL    C6438646   7.707   6.834   3.939  0.5003  0.5802  0.1299
  192MOL    C6538647   7.588   6.735   3.949  0.5284 -0.3315  0.0575
  192MOL    N6638648   7.626   6.609   3.873  0.6420 -0.5974 -0.2418
  192MOL    H6738649   7.700   6.883   3.842  3.2223 -1.2098 -1.0294
  192MOL    H6838650   0.021   6.780   3.947  0.7682  1.1102  0.6264
  192MOL    H6938651   7.561   6.702   4.050  1.5839 -1.9755 -0.1785
  192MOL    H7038652   7.497   6.781   3.911  1.6608  0.3105 -1.9360
  192MOL    H7138653   7.720   6.607   3.836  0.5946 -4.5960 -0.3157
  192MOL    C7238654   7.561   6.492   3.876 -0.1371 -0.0872 -0.2057
  192MOL    O7338655   7.624   6.396   3.840 -0.4406  0.2644 -0.4068
  192MOL    C7438656   7.410   6.482   3.900 -0.3208 -0.5560 -0.5932
  192MOL    C7538657   7.343   6.367   3.821 -0.0814 -0.0013  0.1259
  192MOL    N7638658   7.200   6.393   3.809  0.1446  0.7311 -0.4964
  192MOL    H7738659   7.392   6.464   4.006 -1.5703  2.1678 -0.3201
  192MOL    H7838660   7.371   6.582   3.883  2.7459  0.3464 -2.7980
  192MOL    H7938661   7.394   6.339   3.730 -1.0558 -2.2322  0.2430
  192MOL    H8038662   7.344   6.279   3.885  0.8894 -1.3677 -1.7555
  192MOL    H8138663   7.150   6.397   3.897 -0.2251  0.2076 -0.6836
  192MOL    C8238664   7.133   6.393   3.694 -0.0346  0.8334 -0.0600
  192MOL    O8338665   7.185   6.378   3.584  0.3524 -0.0672 -0.0744
  192MOL    C8438666   6.978   6.391   3.704  0.9390 -0.1010 -0.9146
  192MOL    C8538667   6.913   6.535   3.715 -0.4276  0.4175  0.1894
  192MOL    N8638668   6.765   6.529   3.705  0.0354 -0.0905 -0.4249
  192MOL    H8738669   6.935   6.350   3.612 -0.1936 -1.7161  0.3053
  192MOL    H8838670   6.937   6.337   3.789 -1.4560  1.3859 -1.0946
  192MOL    H8938671   6.930   6.576   3.814 -1.2486  1.2682 -0.0231
  192MOL    H9038672   6.953   6.610   3.647 -0.1544  0.8369  0.8086
  192MOL    H9138673   6.719   6.442   3.729  0.4652  0.1577  1.3489
  192MOL    C9238674   6.687   6.636   3.688 -0.1648 -0.5124  0.5354
  192MOL    O9338675   6.733   6.750   3.687  0.4627 -0.0991  0.1332
  192MOL    C9438676   6.536   6.619   3.672 -0.2487 -0.7371 -0.8214
  192MOL    C9538677   6.479   6.675   3.546 -0.5593 -0.1083  0.2868
  192MOL    N9638678   6.527   6.617   3.417 -0.0359  0.1126  0.1439
  192MOL    H9738679   6.518   6.511   3.666  1.8415 -1.2057  0.9080
  192MOL    H9838680   6.486   6.649   3.764  2.0677  1.8200 -0.3230
  192MOL    H9938681   6.376   6.640   3.556 -0.1762 -0.9763  1.2696
  192MOL   H10038682   6.487   6.784   3.548 -1.5824 -0.0073 -0.7557
  192MOL   H10138683   6.577   6.530   3.410 -1.7379 -0.8194 -0.9382
  192MOL   C10238684   6.519   6.677   3.294 -0.2969  0.2376 -0.5616
  192MOL   O10338685   6.482   6.792   3.273 -0.2691 -0.4365 -0.1028
  192MOL   C10438686   6.556   6.584   3.180  0.5102  0.0956 -0.2922
  192MOL   C10538687   6.640   6.650   3.065  0.3956  0.4784 -0.2661
  192MOL   N10638688   6.568   6.758   3.000  0.5037 -0.0283  0.2023
  192MOL   H10738689   6.462   6.553   3.134  0.1684 -2.3429  1.9613
  192MOL   H10838690   6.602   6.494   3.221  1.0947  0.1020 -0.9321
  192MOL   H10938691   6.726   6.695   3.115  0.4573  2.2369 -1.9011
  192MOL   H11038692   6.668   6.579   2.988 -0.4586 -1.5877  1.2827
  192MOL   H11138693   6.476   6.736   2.964  0.0964  1.3514  0.3857
  192MOL   C11238694   6.596   6.888   2.973 -0.0791  0.0577  0.2233
  192MOL   O11338695   6.537   6.950   2.889  0.9975  0.3509  1.0007
  192MOL   C11438696   6.710   6.952   3.058  0.0900 -0.1648 -0.6717
  192MOL   C11538697   6.740   7.099   3.035 -0.0108  1.2125 -0.7276
  192MOL   N11638698   6.827   7.150   3.134 -0.5641 -0.1630  0.2045
  192MOL   H11738699   6.805   6.899   3.043  0.5147  0.0646  1.1180
  192MOL   H11838700   6.673   6.937   3.159  0.3551  1.0823 -0.3868
  192MOL   H11938701   6.788   7.124   2.940  1.0752  0.0048 -0.5177
  192MOL   H12038702   6.645   7.151   3.027 -0.0875  1.0374 -1.0062
  192MOL   H12138703   6.924   7.165   3.112 -1.3855  3.1293 -1.4931
  192MOL   C12238704   6.793   7.230   3.234 -0.5971 -1.0695 -0.1279
  192MOL   O12338705   6.675   7.240   3.263  0.1877 -0.4142 -0.2294
  192MOL   C12438706   6.902   7.298   3.316  0.5126  0.7946 -0.1637
  192MOL   C12538707   6.873   7.331   3.459  0.3127 -0.0485 -0.0167
  192MOL   N12638708   6.866   7.216   3.545  0.6942  0.4346 -0.4307
  192MOL   H12738709   6.910   7.393   3.262 -1.9757  0.8093 -0.5545
  192MOL   H12838710   6.992   7.239   3.297  0.6745  0.8570  0.3886
  192MOL   H12938711   6.954   7.387   3.508 -0.1319  1.4213 -0.9418
  192MOL   H13038712   6.781   7.389   3.461 -1.2289 -2.4562 -0.1640
  192MOL   H13138713   6.775   7.175   3.555  0.0429  2.4919  2.6748
  192MOL   C13238714   6.962   7.152   3.613 -0.3257  0.2163 -0.0235
  192MOL   O13338715   7.080   7.191   3.622 -0.0705 -0.5285 -0.1105
  192MOL   C13438716   6.916   7.026   3.687  0.1728  0.4702 -0.3513
  192MOL   C13538717   7.019   6.917   3.728  0.2469 -0.2141  0.4527
  192MOL   N13638718   7.081   6.833   3.621  0.5682 -0.3287  0.5094
  192MOL   H13738719   6.838   6.976   3.629 -1.0575 -0.5995  2.1048
  192MOL   H13838720   6.851   7.053   3.771  0.6264  0.2087  0.0869
  192MOL   H13938721   7.094   6.961   3.794 -0.3180 -1.3176  1.8745
  192MOL   H14038722   6.956   6.843   3.778 -1.8363 -0.6075 -2.6097
  192MOL   H14138723   7.037   6.837   3.530 -0.6300  1.3865  1.1447
  192MOL   C14238724   7.201   6.773   3.641 -0.2542  0.9198  0.2464
  192MOL   O14338725   7.262   6.774   3.749 -0.2535 -0.1420  0.2739
  192MOL   C14438726   7.255   6.692   3.516  0.8300  0.3610 -1.1663
  192MOL   C14538727   7.391   6.609   3.538  0.2648  0.1574 -0.7563
  192MOL   N14638728   7.514   6.692   3.536 -0.2186  0.8475  0.3875
  192MOL   H14738729   7.253   6.767   3.437  0.8422  0.2660 -1.2574
  192MOL   H14838730   7.171   6.627   3.492  1.3085  0.5355 -3.4436
  192MOL   H14938731   7.395   6.561   3.635 -0.9547  1.9350  0.1941
  192MOL   H15038732   7.387   6.536   3.457  0.0113  0.5458 -1.1004
  192MOL   H15138733   7.554   6.710   3.627  1.0780  1.2176 -0.2466
  192MOL   C15238734   7.580   6.737   3.429  0.1173 -0.4451 -0.0994
  192MOL   O15338735   7.540   6.739   3.312 -0.1125  0.0494 -0.2331
  192MOL   C15438736   7.726   6.779   3.457 -0.0425  0.3388  0.2373
  192MOL   C15538737   7.776   6.897   3.375  0.1954  0.2239  0.7913
  192MOL   N15638738   0.091   6.981   3.452  0.0392 -0.3709 -0.4394
  192MOL   H15738739   0.002   6.688   3.438 -0.1487  0.5353 -1.0940
  192MOL   H15838740   7.733   6.799   3.564  2.7566  2.1030 -0.2317
  192MOL   H15938741   0.048   6.852   3.291  0.6442 -0.3709  1.3783
  192MOL   H16038742   7.695   6.961   3.342 -0.1152 -1.2080 -1.2920
  192MOL   H16138743   0.182   7.005   3.414 -0.6905  2.4566 -0.4794
  192MOL   C16238744   0.064   7.047   3.568  0.1978 -0.2548  0.3776
  192MOL   O16338745   7.727   7.047   3.613  0.3555 -0.1833  0.1830
  192MOL   C16438746   0.180   7.127   3.634 -0.2791 -0.1170  0.1678
  192MOL   C16538747   0.199   7.091   3.783 -0.9870  0.1533 -0.0997
  192MOL   N16638748   0.242   7.204   3.860 -0.0214 -0.4185 -0.1533
  192MOL   H16738749   0.177   7.234   3.613 -0.3810 -0.1948 -0.2116
  192MOL   H16838750   0.273   7.091   3.589 -0.9913 -1.0231 -0.5965
  192MOL   H16938751   0.110   7.040   3.818 -0.3332 -0.1577  1.1306
  192MOL   H17038752   0.276   7.014   3.786 -0.7102  0.4474  0.3330
  192MOL   H17138753   0.342   7.211   3.869 -0.0751 -0.4711  0.4792
  192MOL   C17238754   0.157   7.303   3.895  0.3449  0.6074 -0.5378
  192MOL   O17338755   0.040   7.299   3.860 -0.1144 -0.1747  0.4654
  192MOL   C17438756   0.217   7.421   3.965  0.0818  0.4663  0.3974
  192MOL   C17538757   0.181   7.554   3.905  0.8729  0.2494  0.1341
  192MOL   N17638758   0.261   7.660   3.965 -0.6780  0.3335  0.0558
  192MOL   H17738759   0.322   7.396   3.971 -0.2430 -0.7616  1.1397
  192MOL   H17838760   0.187   7.408   4.069 -0.7424 -1.9663 -0.0889
  192MOL   H17938761   0.193   7.543   3.797 -0.0227 -1.5821  0.2122
  192MOL   H18038762   0.074   7.569   3.923  0.5650 -2.1996  0.4621
  192MOL   H18138763   0.355   7.669   3.928  0.2959 -1.6599  1.9372
  192MOL   C18238764   0.244   7.719   4.087  0.0062 -0.1062  0.5849
  192MOL   O18338765   0.145   7.703   4.161  0.6694  0.2880 -0.1476
  192MOL   C18438766   0.353   0.045   4.112  0.2768  0.3306  0.4126
  192MOL   C18538767   0.334   0.132   4.231  0.0405 -0.0337 -0.2761
  192MOL   N18638768   0.367   0.073   4.360  0.0680 -0.3955 -0.6145
  192MOL   H18738769   0.353   0.110   4.024 -0.2455  0.6497  0.6492
  192MOL   H18838770   0.448   7.772   4.110  0.4022  0.5156 -3.8094
  192MOL   H18938771   0.392   0.222   4.214 -3.0469  1.3755 -4.3066
  192MOL   H19038772   0.229   0.159   4.242 -0.9822 -2.9950 -1.9578
  192MOL   H19138773   0.425   7.770   4.359 -0.0663 -0.5066  0.1917
  192MOL   C19238774   0.326   0.125   4.479  0.2469  0.7509 -0.6415
  192MOL   O19338775   0.264   0.233   4.488 -0.1172  0.1169  0.0589
  192MOL   C19438776   0.374   0.055   4.608  0.1449 -0.0856 -0.5310
  192MOL   C19538777   0.298   0.092   4.736 -0.3907 -0.0248  1.1496
  192MOL   N19638778   0.162   0.047   4.754 -0.3427 -0.0690 -0.0499
  192MOL   H19738779   0.362   7.730   4.582 -1.6233  0.8501 -3.8656
  192MOL   H19838780   0.480   0.069   4.626  0.3870 -0.3076 -1.7176
  192MOL   H19938781   0.355   0.056   4.821 -1.2851 -0.1396  1.7090
  192MOL   H20038782   0.298   0.201   4.741  1.2394 -0.0219  1.4502
  192MOL   H20138783   0.177   7.729   4.773  3.3461  0.3368 -0.6536
  192MOL   H20238784   0.112   0.078   4.837 -2.9829  0.3101 -1.7263
  193MOL     C138785   4.198   2.399   7.038 -0.4490 -0.2171  0.1033
  193MOL     O238786   4.147   2.401   7.147  0.3283 -0.2692  0.4496
  193MOL     C338787   4.191   2.271   6.952 -0.0531 -0.0824  0.1610
  193MOL     C438788   4.219   2.310   6.804  0.4391  0.2798  0.1725
  193MOL     N538789   4.089   2.331   6.736  0.2103 -0.3895 -0.2873
  193MOL     H638790   4.100   2.212   6.968 -0.0419 -0.1286  0.0557
  193MOL     H738791   4.270   2.205   6.989  0.6191  0.5284 -0.1763
  193MOL     H838792   4.274   2.233   6.750 -0.8048 -0.5980  0.1318
  193MOL     H938793   4.287   2.392   6.781  1.2892 -1.1838 -2.8202
  193MOL    H1038794   4.012   2.368   6.790 -1.3757  0.1665 -2.8188
  193MOL    H1138795   4.243   2.481   6.982 -3.6503 -0.1047 -2.4321
  193MOL    C1238796   4.072   2.309   6.604  0.7306 -0.4991  0.4986
  193MOL    O1338797   4.172   2.299   6.532  0.1817  0.0434  0.5037
  193MOL    C1438798   3.929   2.288   6.554  0.1610 -0.2968  0.3389
  193MOL    C1538799   3.891   2.369   6.429  0.3878  0.6790 -0.5074
  193MOL    N1638800   3.969   2.327   6.310  0.4133 -0.3219  0.6222
  193MOL    H1738801   3.872   2.329   6.637  0.6906  0.4804  0.3269
  193MOL    H1838802   3.915   2.181   6.540  1.4855 -0.2656 -1.4022
  193MOL    H1938803   3.784   2.364   6.407  0.5902 -0.2348 -1.3044
  193MOL    H2038804   3.890   2.477   6.445 -1.5160  0.3177  2.1213
  193MOL    H2138805   4.008   2.234   6.325 -2.5463 -1.8035 -0.5525
  193MOL    C2238806   4.005   2.396   6.202 -0.0747 -0.9283  0.2288
  193MOL    O2338807   3.961   2.507   6.174 -0.2613 -0.1221 -0.1011
  193MOL    C2438808   4.104   2.330   6.105  0.1279 -0.1863  0.7446
  193MOL    C2538809   4.250   2.387   6.115  0.1582  0.2679 -0.0680
  193MOL    N2638810   4.325   2.345   6.239  0.2823  0.0527 -0.2591
  193MOL    H2738811   4.059   2.346   6.007  1.0188  0.0441  0.3722
  193MOL    H2838812   4.099   2.221   6.105 -0.3379 -0.1778 -0.2305
  193MOL    H2938813   4.305   2.341   6.033 -0.8997 -2.3021  0.6169
  193MOL    H3038814   4.248   2.493   6.089  1.4195  0.3641  0.2111
  193MOL    H3138815   4.303   2.269   6.301 -0.2227  1.2696  1.0989
  193MOL    C3238816   4.418   2.428   6.292 -0.3017  1.1998 -0.1617
  193MOL    O3338817   4.452   2.536   6.239 -0.3178  0.6419 -0.0034
  193MOL    C3438818   4.468   2.387   6.430 -0.1728 -0.6443  0.7540
  193MOL    C3538819   4.602   2.443   6.476 -0.1819 -0.2112  0.1252
  193MOL    N3638820   4.720   2.372   6.420 -0.3467  0.4238 -0.0349
  193MOL    H3738821   4.464   2.279   6.437  0.1977 -0.8063 -1.4011
  193MOL    H3838822   4.390   2.429   6.494 -0.3768  2.3556 -1.3500
  193MOL    H3938823   4.605   2.550   6.455 -2.1210  0.1605  1.5171
  193MOL    H4038824   4.594   2.428   6.584  1.5180  0.5794  0.3766
  193MOL    H4138825   4.710   2.343   6.324  3.1208 -0.7842 -0.0929
  193MOL    C4238826   4.825   2.343   6.492 -0.0601 -0.2017 -0.1054
  193MOL    O4338827   4.835   2.382   6.609 -0.8098  0.1809  0.2337
  193MOL    C4438828   4.933   2.267   6.422  0.0745 -0.0389  0.0703
  193MOL    C4538829   5.066   2.248   6.503  0.3849 -0.2564  0.3082
  193MOL    N4638830   5.071   2.125   6.571 -0.7576  0.4435  0.0913
  193MOL    H4738831   4.892   2.172   6.389  1.3542 -0.7048  0.3601
  193MOL    H4838832   4.956   2.316   6.327  0.7926 -0.8911 -0.2001
  193MOL    H4938833   5.150   2.228   6.437 -1.0193  2.8077 -2.6156
  193MOL    H5038834   5.093   2.338   6.559  0.8252  1.4104 -2.4637
  193MOL    H5138835   5.100   2.050   6.510 -0.9206  1.6912 -1.5473
  193MOL    C5238836   5.049   2.108   6.697 -0.0796  0.5209  0.3160
  193MOL    O5338837   5.025   2.205   6.773  0.3948  0.4360 -0.2040
  193MOL    C5438838   5.046   1.964   6.739 -0.3565 -0.2774 -0.4104
  193MOL    C5538839   5.015   1.936   6.889 -0.9619 -0.1585  0.4618
  193MOL    N5638840   5.135   1.945   6.974 -0.2363 -0.2015 -0.4257
  193MOL    H5738841   4.960   1.925   6.685 -0.3048 -0.4297 -0.3809
  193MOL    H5838842   5.133   1.902   6.722  0.2033  0.4128 -0.1037
  193MOL    H5938843   4.973   1.836   6.904 -0.6358 -0.0779  2.0663
  193MOL    H6038844   4.936   2.003   6.924 -1.1494 -2.2935  4.5442
  193MOL    H6138845   5.205   1.886   6.931  1.4694  0.9261  0.7689
  193MOL    C6238846   5.152   1.999   7.094 -0.4109 -0.0262  0.1352
  193MOL    O6338847   5.052   2.046   7.164  0.0593  0.0528  0.1515
  193MOL    C6438848   5.291   2.008   7.150 -0.6919 -0.1896 -0.0987
  193MOL    C6538849   5.298   2.016   7.301 -0.0100 -0.1167  0.4018
  193MOL    N6638850   5.234   1.906   7.378  0.2775  0.2881 -0.0367
  193MOL    H6738851   5.361   1.933   7.116 -0.2214 -0.2942  1.0642
  193MOL    H6838852   5.334   2.101   7.114 -1.3161 -1.1659 -3.5919
  193MOL    H6938853   5.404   2.019   7.327  0.4484  0.8346 -1.4889
  193MOL    H7038854   5.260   2.110   7.340  0.9211  0.2702  0.3920
  193MOL    H7138855   5.174   1.935   7.455 -1.1076  1.1808 -1.4114
  193MOL    C7238856   5.240   1.771   7.346  0.5505  0.1268 -0.1452
  193MOL    O7338857   5.294   1.722   7.246  0.3193 -0.9011  0.4016
  193MOL    C7438858   5.173   1.675   7.441  0.6366  0.6330 -0.2715
  193MOL    C7538859   5.028   1.651   7.396  0.1184 -0.1196 -0.2622
  193MOL    N7638860   4.945   1.766   7.408 -0.2094 -0.9068  0.1011
  193MOL    H7738861   5.226   1.580   7.435 -1.5633 -0.5759 -1.5259
  193MOL    H7838862   5.180   1.702   7.546  0.6083 -2.2078  0.5219
  193MOL    H7938863   5.029   1.623   7.291  0.3931  3.4195 -1.2653
  193MOL    H8038864   4.976   1.567   7.443  2.2238 -0.7541  1.0001
  193MOL    H8138865   4.996   1.852   7.415  0.5915 -1.2918 -0.8564
  193MOL    C8238866   4.811   1.763   7.398  0.2796  0.5707 -0.7181
  193MOL    O8338867   4.758   1.656   7.398 -0.1359  0.3242 -0.3768
  193MOL    C8438868   4.718   1.879   7.422 -0.4355 -0.5799 -0.0097
  193MOL    C8538869   4.583   1.867   7.345 -0.5352  0.4165  0.5154
  193MOL    N8638870   4.476   1.799   7.413  0.5347 -0.3425  0.4185
  193MOL    H8738871   4.726   1.912   7.526  3.8408  1.9529 -0.9811
  193MOL    H8838872   4.762   1.960   7.364 -0.6060  0.5604  1.4248
  193MOL    H8938873   4.551   1.967   7.317  1.0028  0.3363 -1.6729
  193MOL    H9038874   4.602   1.826   7.246  0.0900  0.7566  0.4916
  193MOL    H9138875   4.453   1.838   7.503 -0.8927 -1.6929  0.6471
  193MOL    C9238876   4.418   1.687   7.367  0.5151 -0.7659 -0.0560
  193MOL    O9338877   4.454   1.614   7.270  0.2712 -0.3749 -0.6703
  193MOL    C9438878   4.294   1.659   7.456 -0.2030  0.2439 -0.3326
  193MOL    C9538879   4.219   1.526   7.429 -0.6439  0.0853  0.0569
  193MOL    N9638880   4.108   1.550   7.342  0.4580  0.1765  0.4686
  193MOL    H9738881   4.312   1.650   7.563 -1.9588 -2.0727 -0.1830
  193MOL    H9838882   4.230   1.747   7.456  0.5720  0.8509  2.4213
  193MOL    H9938883   4.288   1.453   7.387  0.4602  1.3558 -0.3860
  193MOL   H10038884   4.193   1.494   7.530 -0.1348 -1.8480 -0.4087
  193MOL   H10138885   4.113   1.572   7.244  0.5208 -0.7329  0.2698
  193MOL   C10238886   3.978   1.544   7.389  0.2121 -0.0777  1.0083
  193MOL   O10338887   3.943   1.525   7.506 -0.0184  0.7861  0.1241
  193MOL   C10438888   3.864   1.538   7.288 -0.1720 -0.3837  0.2770
  193MOL   C10538889   3.770   1.410   7.305  0.3311  0.0150 -0.1160
  193MOL   N10638890   3.840   1.284   7.286  0.1884  0.4267 -0.4936
  193MOL   H10738891   3.914   1.534   7.191  3.7895  2.1049  2.0495
  193MOL   H10838892   3.801   1.627   7.293  0.0059 -0.0675 -2.4679
  193MOL   H10938893   3.727   1.422   7.404 -1.4552  1.1003 -0.9982
  193MOL   H11038894   3.701   1.413   7.220 -0.7933 -0.7509  0.7581
  193MOL   H11138895   3.899   1.264   7.207  0.9994 -0.6932  0.3652
  193MOL   C11238896   3.822   1.180   7.369  0.5818 -0.1013  0.2167
  193MOL   O11338897   3.739   1.178   7.463  0.2189 -0.1414  0.2743
  193MOL   C11438898   3.895   1.054   7.330  0.0076  0.3837 -0.1464
  193MOL   C11538899   3.927   0.967   7.453 -0.6265  0.2012  0.1433
  193MOL   N11638900   4.015   0.855   7.414  0.1752 -0.1063 -0.0224
  193MOL   H11738901   3.987   1.091   7.285  0.0939 -1.8854 -1.9139
  193MOL   H11838902   3.839   1.002   7.252 -0.0583  1.0778 -0.5644
  193MOL   H11938903   3.972   1.027   7.532 -0.7261 -1.4452  1.4806
  193MOL   H12038904   3.837   0.920   7.493 -0.6874 -0.4895 -0.7908
  193MOL   H12138905   4.020   0.846   7.313 -0.5609  1.5759 -0.2383
  193MOL   C12238906   4.067   0.780   7.512 -0.3510  0.7416  0.7766
  193MOL   O12338907   4.034   0.798   7.628 -0.4688  0.1538 -0.3349
  193MOL   C12438908   4.155   0.656   7.475 -0.3158 -0.0936  0.0935
  193MOL   C12538909   4.116   0.527   7.550 -0.3610 -0.4497 -0.4293
  193MOL   N12638910   4.113   0.402   7.470  0.3995  0.9149  0.3888
  193MOL   H12738911   4.259   0.684   7.489 -0.5872 -0.0969  2.4323
  193MOL   H12838912   4.151   0.633   7.369  0.3259  1.5881 -0.2977
  193MOL   H12938913   4.194   0.512   7.625  0.8840  3.3301 -0.8232
  193MOL   H13038914   4.022   0.542   7.602 -0.6385  1.1425 -1.3524
  193MOL   H13138915   4.152   0.318   7.511 -1.3553 -0.3433 -0.4338
  193MOL   C13238916   4.019   0.371   7.380 -0.6385  0.5905 -0.6535
  193MOL   O13338917   3.925   0.444   7.363  0.4980  0.0212 -0.4607
  193MOL   C13438918   4.032   0.238   7.310 -0.5665 -0.1491  0.1577
  193MOL   C13538919   3.935   0.130   7.351  0.4543 -0.6285 -0.1349
  193MOL   N13638920   3.957   0.079   7.482 -0.8474  0.0278  0.4603
  193MOL   H13738921   4.135   0.202   7.324  0.1413  1.4015 -0.9907
  193MOL   H13838922   4.014   0.254   7.204 -0.1768 -1.0432 -0.0508
  193MOL   H13938923   3.832   0.165   7.356  0.4617 -0.7024  0.6945
  193MOL   H14038924   3.928   0.050   7.277  1.1570 -0.4890 -0.3545
  193MOL   H14138925   4.030   0.130   7.530 -0.2044  0.4514 -0.9452
  193MOL   C14238926   3.908   7.744   7.540 -0.0857 -0.4305  0.6296
  193MOL   O14338927   3.838   7.669   7.474  0.3403 -0.3061  0.4100
  193MOL   C14438928   3.931   7.717   7.687  0.2983  0.1457  0.3412
  193MOL   C14538929   3.830   7.621   7.747 -0.1272  0.4095 -0.0571
  193MOL   N14638930   3.866   7.572   0.100  0.2173  0.1475  0.0758
  193MOL   H14738931   3.931   0.037   7.729  1.1484  0.6622 -0.8482
  193MOL   H14838932   4.031   7.673   7.681  0.6804  0.4641  3.4008
  193MOL   H14938933   3.729   7.662   7.754  0.0060  0.9214 -1.0692
  193MOL   H15038934   3.820   7.541   7.675 -2.0761 -0.4017  1.0651
  193MOL   H15138935   3.947   7.610   0.146  1.3543 -0.6727 -1.2088
  193MOL   C15238936   3.784   7.489   0.168  0.0521 -0.2230  0.2544
  193MOL   O15338937   3.684   7.434   0.118 -0.4590 -0.0547  0.6858
  193MOL   C15438938   3.803   7.468   0.317  0.0271 -0.6685  0.9841
  193MOL   C15538939   3.736   7.339   0.379 -0.0636  0.4232 -0.7306
  193MOL   N15638940   3.801   7.294   0.506 -0.4941 -0.2684 -0.1970
  193MOL   H15738941   3.777   7.558   0.371  0.8482  1.0270 -1.3664
  193MOL   H15838942   3.909   7.453   0.333  0.2582  0.3821  0.4834
  193MOL   H15938943   3.628   7.358   0.380 -0.2495 -0.5943 -0.2622
  193MOL   H16038944   3.765   7.256   0.314  1.4132  1.3726 -1.2943
  193MOL   H16138945   3.852   7.360   0.562 -1.8373  0.2715  0.4190
  193MOL   C16238946   3.766   7.181   0.554 -0.1435 -0.1053  0.4242
  193MOL   O16338947   3.683   7.105   0.498 -0.0659 -0.1382  0.2857
  193MOL   C16438948   3.842   7.126   0.682  0.0757 -0.3353  0.1742
  193MOL   C16538949   3.749   7.113   0.800  0.0016  0.1462 -0.4151
  193MOL   N16638950   3.684   6.980   0.806  0.0748 -0.0155 -0.1758
  193MOL   H16738951   3.926   7.190   0.709  1.5185 -2.0808 -0.0697
  193MOL   H16838952   3.886   7.031   0.653  2.6624  0.4169  1.4774
  193MOL   H16938953   3.810   7.115   0.890 -3.5975 -0.1381  2.1276
  193MOL   H17038954   3.672   7.190   0.803 -0.8372 -0.7549  2.8382
  193MOL   H17138955   3.740   6.896   0.810  2.8103  1.7585  0.5476
  193MOL   C17238956   3.552   6.959   0.804 -0.1706  0.3982 -0.0443
  193MOL   O17338957   3.472   7.055   0.811 -0.5042  0.1259 -0.5955
  193MOL   C17438958   3.496   6.818   0.777 -0.4607  0.5885 -0.2821
  193MOL   C17538959   3.547   6.757   0.644 -0.5469 -0.1316 -0.1119
  193MOL   N17638960   3.454   6.765   0.526  0.9335  0.4194  0.3159
  193MOL   H17738961   3.389   6.806   0.766 -0.6153 -0.3371  1.8633
  193MOL   H17838962   3.519   6.752   0.861 -0.8282  2.2028  1.1249
  193MOL   H17938963   3.638   6.807   0.611  0.3814 -1.1280  0.8546
  193MOL   H18038964   3.578   6.655   0.666  1.8252  0.2544 -1.4417
  193MOL   H18138965   3.365   6.813   0.529  0.9702  0.4515  0.9270
  193MOL   C18238966   3.483   6.691   0.412 -0.2352 -0.1405  0.1598
  193MOL   O18338967   3.583   6.617   0.412 -0.4767 -0.1220 -0.0070
  193MOL   C18438968   3.393   6.715   0.293  0.1063  0.1432  0.0420
  193MOL   C18538969   3.364   6.584   0.218 -0.0597 -0.3814  0.4258
  193MOL   N18638970   3.492   6.544   0.155  0.8489 -0.4108  0.1984
  193MOL   H18738971   3.440   6.785   0.223  0.9578  1.7043  2.1133
  193MOL   H18838972   3.301   6.754   0.337 -0.0084  0.2942 -0.3245
  193MOL   H18938973   3.324   6.506   0.284  0.7539 -1.5161 -0.3941
  193MOL   H19038974   3.285   6.594   0.144 -1.5467 -1.1699  1.8656
  193MOL   H19138975   3.575   6.596   0.181 -1.2718  4.4931 -2.1520
  193MOL   C19238976   3.502   6.481   0.037  0.1395 -0.2762  0.2043
  193MOL   O19338977   3.404   6.442   7.756  0.4289  0.1384 -0.0297
  193MOL   C19438978   3.644   6.464   7.760  0.1871 -0.9129  0.0392
  193MOL   C19538979   3.699   6.589   7.697  1.3098 -0.6444  0.1357
  193MOL   N19638980   3.772   6.677   0.008 -0.0845 -0.1257  0.9446
  193MOL   H19738981   3.711   6.424   0.056  0.5074 -0.2904  0.0925
  193MOL   H19838982   3.622   6.384   7.689 -3.6581 -0.5029  0.6673
  193MOL   H19938983   3.773   6.562   7.621  0.4777 -1.1891 -0.4766
  193MOL   H20038984   3.625   6.650   7.645  2.1321  1.8950  1.8419
  193MOL   H20138985   3.825   6.743   7.734 -0.8270  1.2042  1.8184
  193MOL   H20238986   3.836   6.622   0.064  0.7325 -0.2121 -0.0729
  194MOL     C138987   2.477   3.561   0.387  0.0127 -0.4176  1.1080
  194MOL     O238988   2.460   3.445   0.426 -0.3061 -0.9617 -0.4988
  194MOL     C338989   2.620   3.605   0.334  0.1680 -0.1188  0.0088
  194MOL     C438990   2.599   3.701   0.219  0.7391 -0.3282 -0.3023
  194MOL     N538991   2.561   3.643   0.090  0.0280 -0.9175 -0.7383
  194MOL     H638992   2.673   3.513   0.307  0.8131  0.0339  0.7410
  194MOL     H738993   2.673   3.670   0.403 -1.2887 -0.0336  1.0802
  194MOL     H838994   2.702   3.729   0.202 -0.0545  2.4392 -0.7432
  194MOL     H938995   2.532   3.786   0.228 -0.6681 -1.3464 -0.9236
  194MOL    H1038996   2.485   3.577   0.090 -1.3983  0.6486  0.9843
  194MOL    H1138997   2.401   3.639   0.387 -0.3765 -0.7994  1.3895
  194MOL    C1238998   2.610   3.688   7.753 -0.0671 -0.0482 -0.6778
  194MOL    O1338999   2.689   3.784   7.741  0.1137 -0.1484  0.1390
  194MOL    C1439000   2.548   3.624   7.624  0.2941  0.2767  0.2130
  194MOL    C1539001   2.629   3.622   7.493  0.3098 -0.1699  0.2975
  194MOL    N1639002   2.689   3.494   7.468 -0.9571  0.0588  0.0320
  194MOL    H1739003   2.458   3.683   7.606  1.4487  2.0342  0.0226
  194MOL    H1839004   2.522   3.521   7.647 -1.1211  0.8590  1.2920
  194MOL    H1939005   2.583   3.669   7.406  2.7026  0.0665 -0.8919
  194MOL    H2039006   2.719   3.680   7.515  0.4109  0.0638 -0.7041
  194MOL    H2139007   2.709   3.430   7.543 -0.0656  0.7542  0.3963
  194MOL    C2239008   2.727   3.459   7.346  0.3817  0.8750 -0.1797
  194MOL    O2339009   2.712   3.530   7.246  0.1472  0.2030  0.5366
  194MOL    C2439010   2.804   3.325   7.338  0.0240 -0.0835  0.9961
  194MOL    C2539011   2.803   3.249   7.205  0.4489  0.4437  0.3364
  194MOL    N2639012   2.674   3.180   7.174  0.4112 -0.0965 -0.1472
  194MOL    H2739013   2.766   3.253   7.411 -2.6810  0.4319  0.1505
  194MOL    H2839014   2.905   3.351   7.367  0.0254  0.9406  0.0781
  194MOL    H2939015   2.860   3.320   7.144  0.9416 -0.6009 -0.4237
  194MOL    H3039016   2.883   3.176   7.221 -0.3141  0.0452  2.5740
  194MOL    H3139017   2.639   3.123   7.249  1.7329 -1.4563 -0.5350
  194MOL    C3239018   2.600   3.197   7.065  0.5453  0.0833  0.0760
  194MOL    O3339019   2.626   3.277   6.973 -0.0033  0.7579 -0.4346
  194MOL    C3439020   2.477   3.115   7.045  0.0207  0.5918 -0.0012
  194MOL    C3539021   2.357   3.195   6.996  0.3778  0.3263 -0.9573
  194MOL    N3639022   2.319   3.312   7.071 -0.1043 -0.3811 -0.0670
  194MOL    H3739023   2.444   3.075   7.141  0.3871 -2.2846 -1.0259
  194MOL    H3839024   2.508   3.025   6.992 -0.5436  0.1461  0.4251
  194MOL    H3939025   2.376   3.236   6.897 -0.9059  1.6326 -0.6806
  194MOL    H4039026   2.280   3.119   6.983  0.7402  0.0887 -1.6945
  194MOL    H4139027   2.378   3.393   7.058 -2.3621  1.2141 -0.6746
  194MOL    C4239028   2.240   3.312   7.179 -0.4985 -0.2841  0.6171
  194MOL    O4339029   2.164   3.221   7.205  0.3397 -0.3507  0.7699
  194MOL    C4439030   2.254   3.429   7.276 -0.4373 -0.4494 -0.1507
  194MOL    C4539031   2.366   3.399   7.377  1.2635 -0.1495  0.4172
  194MOL    N4639032   2.319   3.314   7.483  0.4236  0.0066  0.7664
  194MOL    H4739033   2.270   3.515   7.211  0.9550 -0.4106  0.2230
  194MOL    H4839034   2.158   3.444   7.326 -0.1742  1.8996 -0.3097
  194MOL    H4939035   2.455   3.368   7.323  2.0155  1.7152  0.5705
  194MOL    H5039036   2.386   3.490   7.433 -1.3249  0.0154  1.1480
  194MOL    H5139037   2.223   3.283   7.479  0.5058 -0.1292 -0.2177
  194MOL    C5239038   2.386   3.228   7.560  1.0177  0.8106 -0.2957
  194MOL    O5339039   2.506   3.236   7.562 -0.1164 -0.8413  0.8588
  194MOL    C5439040   2.314   3.127   7.657  0.1002  0.1256 -0.2140
  194MOL    C5539041   2.393   3.065   7.769 -0.7413 -0.5740 -0.1939
  194MOL    N5639042   2.319   2.964   0.050 -0.1079 -0.1140  0.2429
  194MOL    H5739043   2.223   3.160   7.706  0.2146 -0.8187  0.6588
  194MOL    H5839044   2.280   3.042   7.597 -1.2986  0.8651 -0.4762
  194MOL    H5939045   2.422   3.131   0.070 -3.3262 -0.6068  0.7959
  194MOL    H6039046   2.484   3.013   7.737 -0.2670 -0.9312  1.6520
  194MOL    H6139047   2.254   2.992   0.122 -0.2896 -1.9787  0.8291
  194MOL    C6239048   2.318   2.836   0.020  0.6992 -0.2099  0.4101
  194MOL    O6339049   2.379   2.791   7.705 -0.0398 -0.1523  0.2129
  194MOL    C6439050   2.226   2.747   0.115  0.2934 -0.4558  0.3010
  194MOL    C6539051   2.317   2.713   0.236 -0.5867 -0.0310 -0.0919
  194MOL    N6639052   2.346   2.825   0.321  0.2474 -0.1542 -0.2441
  194MOL    H6739053   2.137   2.793   0.157  0.7664  0.7196  0.0174
  194MOL    H6839054   2.190   2.651   0.078  0.9030 -0.3643 -0.5476
  194MOL    H6939055   2.270   2.643   0.305 -0.8779  1.6888  1.4947
  194MOL    H7039056   2.406   2.667   0.195 -1.3813 -1.3784 -0.3223
  194MOL    H7139057   2.300   2.910   0.291  2.0385  0.4405 -1.3974
  194MOL    C7239058   2.443   2.831   0.416 -0.3820  0.3523 -0.4401
  194MOL    O7339059   2.526   2.740   0.432 -0.2197  0.3164  0.0376
  194MOL    C7439060   2.440   2.954   0.498  0.4566 -0.1832  0.1010
  194MOL    C7539061   2.503   2.938   0.638  0.4371  0.9383  0.9306
  194MOL    N7639062   2.498   3.054   0.726  0.2281 -0.3020 -0.3864
  194MOL    H7739063   2.500   3.030   0.448 -0.6472  1.4093  1.1681
  194MOL    H7839064   2.335   2.984   0.497  0.3746 -0.4469 -1.7124
  194MOL    H7939065   2.458   2.848   0.680  2.4382 -1.0282 -1.0203
  194MOL    H8039066   2.608   2.910   0.632  0.6771  1.1833  3.4337
  194MOL    H8139067   2.579   3.087   0.777 -1.5268  2.1824  0.8666
  194MOL    C8239068   2.390   3.122   0.775 -0.3300 -0.0191  0.2532
  194MOL    O8339069   2.276   3.088   0.747 -0.0901 -0.1381  0.0417
  194MOL    C8439070   2.405   3.252   0.859  0.2038 -0.8666 -1.1070
  194MOL    C8539071   2.405   3.392   0.787  0.0395 -1.3029  0.2424
  194MOL    N8639072   2.515   3.413   0.689  0.3529 -0.5455 -0.0222
  194MOL    H8739073   2.324   3.260   0.930  0.8757  1.5468 -0.5912
  194MOL    H8839074   2.506   3.249   0.901  0.6384  1.5326 -1.9017
  194MOL    H8939075   2.306   3.402   0.741  1.0533  1.8553 -1.3724
  194MOL    H9039076   2.416   3.468   0.864 -2.3727 -0.1222 -0.4941
  194MOL    H9139077   2.484   3.409   0.592 -0.9908  0.6131  0.3351
  194MOL    C9239078   2.639   3.426   0.734  0.5218  0.0833 -0.0915
  194MOL    O9339079   2.659   3.431   0.858 -0.3501  0.3296 -0.1049
  194MOL    C9439080   2.756   3.429   0.636 -0.2188  0.4959 -0.2525
  194MOL    C9539081   2.859   3.325   0.682  0.0584  0.0295  0.2062
  194MOL    N9639082   2.964   3.330   0.586 -1.2836  0.1491  0.1121
  194MOL    H9739083   2.725   3.403   0.535  1.7654 -0.1605 -0.7181
  194MOL    H9839084   2.816   3.521   0.636  0.9972 -0.2264  3.0582
  194MOL    H9939085   2.910   3.353   0.774  1.9870 -0.4244 -0.7094
  194MOL   H10039086   2.828   3.222   0.698  2.1407 -0.7823 -0.9507
  194MOL   H10139087   3.042   3.388   0.617 -0.9234 -0.6024  0.6407
  194MOL   C10239088   2.976   3.259   0.478  0.3683  0.1154  0.0588
  194MOL   O10339089   2.879   3.192   0.433 -0.2327 -0.0875 -0.1231
  194MOL   C10439090   3.099   3.279   0.394  0.2875  0.0879 -0.3363
  194MOL   C10539091   3.128   3.152   0.306  0.3033 -0.0073 -0.4030
  194MOL   N10639092   3.271   3.137   0.287  0.5355  0.1425 -0.2822
  194MOL   H10739093   3.188   3.292   0.456  1.3165 -2.0625 -1.2855
  194MOL   H10839094   3.080   3.370   0.338  1.7717  0.7573  0.2289
  194MOL   H10939095   3.091   3.063   0.358  3.8837 -3.0403 -2.7914
  194MOL   H11039096   3.077   3.152   0.210 -1.5584 -0.4975  0.5672
  194MOL   H11139097   3.327   3.210   0.327 -0.1452 -0.6342  2.1648
  194MOL   C11239098   3.326   3.019   0.249  0.4039  0.0032 -0.2837
  194MOL   O11339099   3.266   2.914   0.216 -0.6599 -0.5678  0.6201
  194MOL   C11439100   3.472   3.005   0.262  0.0901 -0.4681  0.0661
  194MOL   C11539101   3.535   2.980   0.394  0.2172  0.8121 -1.3188
  194MOL   N11639102   3.585   3.100   0.455  0.4190 -0.0302 -0.4853
  194MOL   H11739103   3.520   3.082   0.202 -0.1482 -0.7831 -0.5238
  194MOL   H11839104   3.485   2.927   0.187 -0.4100 -1.8519  1.4015
  194MOL   H11939105   3.469   2.914   0.451 -0.4907  1.8609 -0.8948
  194MOL   H12039106   3.629   2.933   0.367  2.0974  3.0752  1.0266
  194MOL   H12139107   3.681   3.127   0.440  0.8972 -1.3461  0.1718
  194MOL   C12239108   3.504   3.175   0.530  0.5560 -0.5176 -0.0682
  194MOL   O12339109   3.387   3.155   0.559 -0.3015  0.1063  0.4410
  194MOL   C12439110   3.569   3.294   0.600  0.2701  0.0581  0.1265
  194MOL   C12539111   3.632   3.261   0.735 -0.5771  0.3176 -0.6425
  194MOL   N12639112   3.780   3.264   0.728  0.8272  0.1220  0.4159
  194MOL   H12739113   3.498   3.376   0.606  1.9061  1.6048 -0.9673
  194MOL   H12839114   3.633   3.334   0.521 -0.1980 -0.7958 -0.6964
  194MOL   H12939115   3.609   3.340   0.807 -1.6385 -0.3108 -0.2942
  194MOL   H13039116   3.594   3.171   0.782 -3.0960  0.9619 -1.3991
  194MOL   H13139117   3.823   3.355   0.731 -1.1618  1.2040 -1.5714
  194MOL   C13239118   3.859   3.160   0.707 -0.2680  0.4709 -0.3845
  194MOL   O13339119   3.827   3.037   0.704 -0.5444  0.0253  0.3694
  194MOL   C13439120   4.004   3.184   0.732  0.2490 -0.3838 -0.1348
  194MOL   C13539121   4.092   3.155   0.609 -0.0766  0.8230  0.0012
  194MOL   N13639122   4.099   3.268   0.512 -0.2851  0.7332  0.4113
  194MOL   H13739123   4.041   3.112   0.804 -0.3334  0.0437  0.5911
  194MOL   H13839124   4.021   3.284   0.771 -0.3635 -0.5786  0.6417
  194MOL   H13939125   4.198   3.139   0.632  0.5189  1.7524 -1.9692
  194MOL   H14039126   4.052   3.067   0.560  1.0983 -1.0219  2.2596
  194MOL   H14139127   4.177   3.331   0.529 -1.6302  2.3484  0.6645
  194MOL   C14239128   4.002   3.307   0.423  0.0036  0.4286 -0.4615
  194MOL   O14339129   3.901   3.241   0.408 -0.1615  0.7676  0.1346
  194MOL   C14439130   4.021   3.433   0.343 -0.0170 -1.0928  0.1178
  194MOL   C14539131   3.904   3.458   0.235 -0.1299 -0.8342  0.5749
  194MOL   N14639132   3.915   3.353   0.125 -0.7108 -0.1354  0.6349
  194MOL   H14739133   4.123   3.433   0.305 -0.5171 -0.7343 -1.2347
  194MOL   H14839134   4.020   3.512   0.418 -0.1894 -2.5958  1.7291
  194MOL   H14939135   3.802   3.448   0.273 -0.4426 -0.8231 -0.2396
  194MOL   H15039136   3.918   3.551   0.181  1.4851 -1.3931  0.0127
  194MOL   H15139137   4.007   3.344   0.083 -1.4683 -2.2032 -0.6571
  194MOL   C15239138   3.817   3.274   0.080  0.2193  0.4519  0.1140
  194MOL   O15339139   3.698   3.284   0.112  0.3770 -0.1731 -0.5338
  194MOL   C15439140   3.857   3.175   7.748 -0.1184  0.0734 -0.5633
  194MOL   C15539141   3.883   3.030   0.026  0.0164 -0.8142 -0.2993
  194MOL   N15639142   3.997   3.029   0.121  0.4561  0.0364  0.0800
  194MOL   H15739143   3.939   3.205   7.683  0.3063  3.9505  1.5573
  194MOL   H15839144   3.768   3.169   7.686  0.2718  1.7827 -1.3217
  194MOL   H15939145   3.797   2.987   0.076  2.3013 -1.0110  3.7208
  194MOL   H16039146   3.904   2.960   7.726 -3.7699 -2.6172  0.2010
  194MOL   H16139147   4.019   3.116   0.167  1.5246 -1.3139  2.2022
  194MOL   C16239148   4.039   2.915   0.181 -0.2653 -0.1649 -0.5196
  194MOL   O16339149   3.993   2.805   0.153 -0.3370  0.4280 -0.3281
  194MOL   C16439150   4.144   2.927   0.302  0.1339 -0.2007 -0.2968
  194MOL   C16539151   4.210   2.795   0.341  0.7696 -0.4405 -0.4065
  194MOL   N16639152   4.320   2.751   0.250 -0.3853 -0.3115  0.6945
  194MOL   H16739153   4.078   2.950   0.386 -0.9612 -1.6906 -0.7218
  194MOL   H16839154   4.215   3.010   0.297  0.4405 -0.4221  0.3059
  194MOL   H16939155   4.253   2.817   0.439 -0.8462 -1.2809  0.5092
  194MOL   H17039156   4.141   2.711   0.341 -1.6259  1.4374  1.2977
  194MOL   H17139157   4.316   2.661   0.204  2.4444 -0.9059  1.5112
  194MOL   C17239158   4.440   2.815   0.217 -0.5728 -0.1958  0.3630
  194MOL   O17339159   4.457   2.931   0.244 -0.5831 -0.0009  0.5526
  194MOL   C17439160   4.549   2.731   0.150  0.4946 -0.0278 -0.0825
  194MOL   C17539161   4.600   2.781   0.014 -0.4131 -0.0465 -0.0076
  194MOL   N17639162   4.657   2.672   7.716  0.7343  0.2185 -0.3698
  194MOL   H17739163   4.515   2.628   0.141 -0.1234  0.4000 -3.1743
  194MOL   H17839164   4.623   2.728   0.230 -1.3041  0.8042  1.6395
  194MOL   H17939165   4.515   2.813   7.734 -0.3321  0.1973  0.0021
  194MOL   H18039166   4.665   2.869   0.022 -0.6712  0.2131 -0.7457
  194MOL   H18139167   4.605   2.645   7.634  0.2694 -0.2309  0.0682
  194MOL   C18239168   4.761   2.599   7.749 -0.0373  0.3798 -0.2540
  194MOL   O18339169   4.827   2.631   0.072 -0.5112  0.1177  1.1786
  194MOL   C18439170   4.801   2.485   7.659 -0.4955  0.1732  0.7258
  194MOL   C18539171   4.757   2.356   7.728  0.3000  0.6631  0.2575
  194MOL   N18639172   4.627   2.311   7.681  0.3694  0.1154 -0.1391
  194MOL   H18739173   4.910   2.480   7.656 -0.4816  0.0443  1.3665
  194MOL   H18839174   4.757   2.496   7.559  0.5238  0.3758  0.2969
  194MOL   H18939175   4.832   2.283   7.697 -0.2736  1.1176 -2.3347
  194MOL   H19039176   4.756   2.360   0.056 -0.5170  1.4075  0.2282
  194MOL   H19139177   4.559   2.376   7.645 -0.1191  0.0967  0.7415
  194MOL   C19239178   4.564   2.195   7.726 -0.0637  0.3314  0.4488
  194MOL   O19339179   4.606   2.131   0.042 -0.4233 -0.1037  0.1452
  194MOL   C19439180   4.445   2.144   7.649  0.1075 -0.1728 -0.2137
  194MOL   C19539181   4.367   2.019   7.683 -0.5812  0.4876 -0.2253
  194MOL   N19639182   4.444   1.900   7.698  0.2263  1.0942  0.6019
  194MOL   H19739183   4.372   2.224   7.650 -2.0101 -2.0235 -1.1556
  194MOL   H19839184   4.459   2.147   7.541 -1.1135  1.0642 -0.3433
  194MOL   H19939185   4.313   2.047   7.774  0.9240  0.4204  0.6994
  194MOL   H20039186   4.315   1.990   7.592  1.0098 -2.2798 -0.2977
  194MOL   H20139187   4.505   1.928   7.773 -0.2475  0.7744  1.1073
  194MOL   H20239188   4.382   1.831   7.737  0.5430  0.3580 -0.1885
  195MOL     C139189   4.347   1.067   2.621 -0.7434  0.8706  0.7829
  195MOL     O239190   4.330   1.104   2.503 -0.4903  0.3432  0.5399
  195MOL     C339191   4.481   1.083   2.691 -0.2441  0.0091 -0.0733
  195MOL     C439192   4.597   1.153   2.613 -0.6798  0.5930 -0.0819
  195MOL     N539193   4.635   1.092   2.482  0.1557 -0.0891 -0.1713
  195MOL     H639194   4.525   0.997   2.743 -2.0334 -2.2989 -2.2483
  195MOL     H739195   4.465   1.151   2.774 -3.0184  1.3073 -1.6269
  195MOL     H839196   4.684   1.159   2.678 -0.0505  0.8813 -0.9464
  195MOL     H939197   4.562   1.254   2.593  0.1455  0.8248 -0.3680
  195MOL    H1039198   4.599   1.135   2.398 -1.7644  0.7309  1.0393
  195MOL    H1139199   4.259   1.034   2.677  0.2917  2.4495  3.4670
  195MOL    C1239200   4.724   0.998   2.466 -0.1485 -0.2973  0.0479
  195MOL    O1339201   4.766   0.933   2.568  0.6282 -0.3289 -0.4830
  195MOL    C1439202   4.783   0.967   2.331  0.0778  0.3862 -0.7833
  195MOL    C1539203   4.925   0.910   2.338 -0.3171  0.6867  0.2424
  195MOL    N1639204   5.026   1.015   2.351  0.0602  0.5059 -0.1018
  195MOL    H1739205   4.790   1.058   2.271 -0.1848 -1.2068 -3.2910
  195MOL    H1839206   4.713   0.899   2.284 -0.8323  0.6519  0.1614
  195MOL    H1939207   4.927   0.833   2.415  0.6822 -0.8366 -1.2852
  195MOL    H2039208   4.944   0.840   2.257  3.1753 -1.6025  2.8396
  195MOL    H2139209   5.015   1.104   2.305 -0.0252 -0.1368 -1.3405
  195MOL    C2239210   5.111   1.013   2.456 -0.3884  0.1289 -0.5577
  195MOL    O2339211   5.111   0.922   2.540 -0.1985  0.6250 -0.3317
  195MOL    C2439212   5.210   1.115   2.472 -0.2584 -0.3066 -0.5588
  195MOL    C2539213   5.172   1.225   2.577 -0.0304 -0.4055  0.1909
  195MOL    N2639214   5.049   1.296   2.547 -0.2204  0.1488  0.1423
  195MOL    H2739215   5.221   1.168   2.377  0.9624  0.7984  0.1831
  195MOL    H2839216   5.307   1.070   2.494 -0.9141 -1.3649  0.1583
  195MOL    H2939217   5.174   1.189   2.680 -0.7008 -1.8429 -0.2760
  195MOL    H3039218   5.240   1.307   2.556 -2.5063  0.8428 -3.5032
  195MOL    H3139219   5.038   1.320   2.450  0.6110  2.1870  0.5286
  195MOL    C3239220   4.973   1.359   2.637 -0.2815  0.0633  0.0222
  195MOL    O3339221   4.994   1.356   2.756 -0.3830  0.1298 -0.4737
  195MOL    C3439222   4.857   1.434   2.585  0.2149  0.3803  0.4450
  195MOL    C3539223   4.877   1.588   2.592  0.0139  0.5735 -1.1566
  195MOL    N3639224   4.756   1.662   2.551  0.0312  0.1408  0.9896
  195MOL    H3739225   4.767   1.400   2.636  1.4623 -3.5020  0.2655
  195MOL    H3839226   4.838   1.414   2.479  1.6520  1.1230  0.0418
  195MOL    H3939227   4.890   1.613   2.698 -1.3765  1.1559 -1.1135
  195MOL    H4039228   4.960   1.631   2.536  1.2490  0.1257  0.2969
  195MOL    H4139229   4.748   1.683   2.452  0.7958 -3.7134  0.0342
  195MOL    C4239230   4.665   1.735   2.617  0.2855 -0.0192  0.5420
  195MOL    O4339231   4.654   1.719   2.741 -0.1193  0.1401 -0.3300
  195MOL    C4439232   4.574   1.828   2.539  0.7206 -0.2749 -0.2239
  195MOL    C4539233   4.434   1.777   2.518  0.1701 -0.2647 -0.0936
  195MOL    N4639234   4.421   1.668   2.418 -0.8959 -0.9436  0.1971
  195MOL    H4739235   4.559   1.913   2.606 -1.3850 -0.9526  0.1862
  195MOL    H4839236   4.627   1.873   2.455  0.7715 -0.7853 -0.4618
  195MOL    H4939237   4.385   1.738   2.607 -1.3561 -0.9805 -1.2255
  195MOL    H5039238   4.360   1.854   2.498  0.5496  0.4276  1.1430
  195MOL    H5139239   4.413   1.693   2.321  0.2661  0.1835  0.3757
  195MOL    C5239240   4.418   1.534   2.461  0.0899 -0.1601 -0.0266
  195MOL    O5339241   4.429   1.496   2.577 -0.1368 -0.4335 -0.5930
  195MOL    C5439242   4.380   1.432   2.353  0.3739  0.0859 -0.8340
  195MOL    C5539243   4.235   1.388   2.371 -0.8131 -0.3325 -0.1397
  195MOL    N5639244   4.128   1.486   2.329 -0.0261 -0.2007 -0.0551
  195MOL    H5739245   4.396   1.477   2.256 -1.7076  0.5983 -0.9654
  195MOL    H5839246   4.440   1.344   2.376 -0.2821 -0.5662 -1.6216
  195MOL    H5939247   4.212   1.365   2.475  1.8661  1.4460  0.9158
  195MOL    H6039248   4.202   1.298   2.318  1.3409 -1.4466  0.3460
  195MOL    H6139249   4.111   1.562   2.393 -1.1039  0.5351 -1.1979
  195MOL    C6239250   4.064   1.489   2.217  0.1666  0.1049 -0.3949
  195MOL    O6339251   4.079   1.405   2.128  0.5677  0.1688 -0.1273
  195MOL    C6439252   3.979   1.616   2.200 -0.1883  0.0469 -0.2802
  195MOL    C6539253   3.850   1.601   2.276  0.1049 -0.5570  0.0146
  195MOL    N6639254   3.756   1.511   2.208  0.0321 -0.7173  0.1801
  195MOL    H6739255   4.032   1.706   2.230 -1.0616  0.8038 -1.0113
  195MOL    H6839256   3.955   1.630   2.095  2.8965  1.2573 -0.8690
  195MOL    H6939257   3.864   1.564   2.378  2.2273  3.7076  1.4048
  195MOL    H7039258   3.812   1.702   2.289  1.6529  0.0531 -0.0715
  195MOL    H7139259   3.769   1.411   2.221 -1.4753 -1.0199 -0.5496
  195MOL    C7239260   3.663   1.542   2.121  0.2094  0.5265  0.0798
  195MOL    O7339261   3.617   1.655   2.102 -0.7894 -0.0669 -0.4200
  195MOL    C7439262   3.602   1.415   2.050 -0.3247 -0.5698 -0.0008
  195MOL    C7539263   3.451   1.427   2.001 -0.4363  0.6717  0.1528
  195MOL    N7639264   3.357   1.438   2.115  0.4582  0.0298 -0.1447
  195MOL    H7739265   3.661   1.406   1.959 -1.4952  0.9777 -0.9532
  195MOL    H7839266   3.621   1.326   2.109 -0.1265  0.6013  1.7150
  195MOL    H7939267   3.437   1.503   1.924 -2.6533  0.5176  0.3773
  195MOL    H8039268   3.417   1.334   1.955  2.0121 -0.7720  1.1711
  195MOL    H8139269   3.308   1.525   2.128 -0.7978 -0.7747  0.6463
  195MOL    C8239270   3.289   1.336   2.162 -0.2521 -0.4828 -0.4657
  195MOL    O8339271   3.312   1.223   2.134 -0.0542  0.6203  0.2677
  195MOL    C8439272   3.179   1.378   2.253 -0.8984 -0.2292 -0.0112
  195MOL    C8539273   3.053   1.300   2.227  0.6545  0.0185  0.2481
  195MOL    N8639274   2.951   1.306   2.336  0.5877  0.3389 -0.3505
  195MOL    H8739275   3.221   1.349   2.350 -1.2293 -1.0386 -0.1060
  195MOL    H8839276   3.167   1.485   2.273 -0.8343 -0.3752  0.8350
  195MOL    H8939277   3.005   1.343   2.138  2.3227  0.2760 -0.5371
  195MOL    H9039278   3.065   1.195   2.200  0.0932  0.1485 -0.5285
  195MOL    H9139279   2.981   1.329   2.430 -2.0389 -1.8639  1.0821
  195MOL    C9239280   2.819   1.298   2.316 -0.5398  0.0715 -0.7569
  195MOL    O9339281   2.770   1.275   2.206 -0.1650  0.3479  0.0321
  195MOL    C9439282   2.731   1.320   2.443 -0.2166 -0.0054 -0.2515
  195MOL    C9539283   2.672   1.464   2.457  0.3304 -0.9687 -0.4276
  195MOL    N9639284   2.774   1.545   2.524  0.9028  0.0442 -0.2279
  195MOL    H9739285   2.646   1.251   2.436 -0.4881  0.2944  0.0743
  195MOL    H9839286   2.782   1.278   2.530 -0.1793 -1.8691 -1.1434
  195MOL    H9939287   2.639   1.499   2.359 -0.3718  0.5520  0.3434
  195MOL   H10039288   2.584   1.474   2.521  0.8652 -1.6309  0.4147
  195MOL   H10139289   2.812   1.508   2.610 -0.4720 -0.5456  0.1381
  195MOL   C10239290   2.829   1.653   2.469 -0.6859  0.9789  0.0454
  195MOL   O10339291   2.791   1.700   2.362  0.3826  0.0205  0.3568
  195MOL   C10439292   2.953   1.711   2.539  0.0295  0.4829 -0.6479
  195MOL   C10539293   3.082   1.661   2.478 -0.0897 -0.0419  0.8428
  195MOL   N10639294   3.197   1.745   2.516 -0.3276  0.1361  0.0339
  195MOL   H10739295   2.964   1.681   2.644 -0.7973  0.6492 -0.5140
  195MOL   H10839296   2.952   1.820   2.535  1.1669  0.5000 -0.7136
  195MOL   H10939297   3.087   1.553   2.493  1.5521  0.2740  2.7972
  195MOL   H11039298   3.078   1.674   2.370 -0.7861 -1.4788  0.6905
  195MOL   H11139299   3.244   1.700   2.594 -2.9787 -0.6494  1.2228
  195MOL   C11239300   3.225   1.861   2.456 -0.3298  0.0637 -0.0680
  195MOL   O11339301   3.160   1.916   2.370  0.2317 -0.8457  0.3054
  195MOL   C11439302   3.363   1.902   2.495  0.8947  0.5193 -0.0128
  195MOL   C11539303   3.483   1.825   2.427 -0.0480  0.2826  0.3053
  195MOL   N11639304   3.530   1.891   2.310 -0.4023 -0.1345  0.4989
  195MOL   H11739305   3.368   1.897   2.604 -1.4572 -1.0235  0.0692
  195MOL   H11839306   3.372   2.010   2.484  0.2372  0.7923  1.8819
  195MOL   H11939307   3.570   1.811   2.491  1.4746  1.4238 -1.4841
  195MOL   H12039308   3.446   1.725   2.402  0.8664  0.1473 -0.5345
  195MOL   H12139309   3.469   1.864   2.234 -1.5803  0.5895  1.1812
  195MOL   C12239310   3.649   1.943   2.288  0.0977 -0.5425  0.2987
  195MOL   O12339311   3.728   1.942   2.381 -0.1286 -0.1821 -0.2138
  195MOL   C12439312   3.681   2.000   2.145  0.3218 -0.2595  0.0646
  195MOL   C12539313   3.821   1.958   2.099  0.0459 -1.0096  0.1897
  195MOL   N12639314   3.848   2.007   1.962  0.5596  0.7564  0.1670
  195MOL   H12739315   3.669   2.107   2.158  1.6838 -0.0050 -0.7042
  195MOL   H12839316   3.614   1.966   2.066 -0.0695  0.7003 -0.0283
  195MOL   H12939317   3.892   2.007   2.166 -0.7576 -1.2070  1.2052
  195MOL   H13039318   3.840   1.851   2.107 -0.1956 -1.0340  0.4713
  195MOL   H13139319   3.801   2.091   1.933  0.0354  0.7930  1.1323
  195MOL   C13239320   3.928   1.949   1.873  0.5593  0.7497 -0.6519
  195MOL   O13339321   3.992   1.848   1.909 -0.4472 -0.7332  0.0260
  195MOL   C13439322   3.950   2.019   1.739  0.2908  0.0727  0.1045
  195MOL   C13539323   4.093   2.017   1.679  0.4085 -0.0129 -0.0893
  195MOL   N13639324   4.197   2.081   1.759 -0.2204  0.1223 -0.5388
  195MOL   H13739325   3.915   2.122   1.738 -0.4775 -0.1840 -0.0064
  195MOL   H13839326   3.883   1.971   1.667 -2.3821  2.8477  0.6301
  195MOL   H13939327   4.115   1.912   1.660  0.3461  0.2270 -1.5446
  195MOL   H14039328   4.100   2.056   1.577 -2.9823  0.2786 -0.2727
  195MOL   H14139329   4.157   2.141   1.830  1.5146  0.0116  0.5641
  195MOL   C14239330   4.317   2.104   1.721 -0.5733  0.3118  0.8280
  195MOL   O14339331   4.377   2.027   1.647  0.0755  0.1941  0.4523
  195MOL   C14439332   4.388   2.225   1.773 -0.0508 -0.8284 -0.1054
  195MOL   C14539333   4.358   2.354   1.697 -0.1328 -0.4536  0.1408
  195MOL   N14639334   4.230   2.411   1.730  0.6957 -0.4486  0.3366
  195MOL   H14739335   4.496   2.214   1.761 -0.2589 -0.9425 -1.9684
  195MOL   H14839336   4.374   2.235   1.881 -0.6849 -0.0125 -0.2629
  195MOL   H14939337   4.431   2.433   1.714 -0.7771  0.3194 -0.6517
  195MOL   H15039338   4.363   2.342   1.589  2.6881 -0.8989  0.2761
  195MOL   H15139339   4.235   2.491   1.791  0.9319  0.1471 -0.4633
  195MOL   C15239340   4.119   2.411   1.656 -0.4381  0.2804  0.2441
  195MOL   O15339341   4.096   2.324   1.577  0.1967 -0.8468  0.3499
  195MOL   C15439342   4.026   2.528   1.688  0.2841 -0.8338 -0.5571
  195MOL   C15539343   3.919   2.495   1.796  0.6913  0.3718 -0.0130
  195MOL   N15639344   3.802   2.441   1.727 -0.4639 -0.4432  0.2175
  195MOL   H15739345   3.972   2.552   1.596 -2.2862  0.0052  1.1289
  195MOL   H15839346   4.082   2.612   1.729  1.7626 -1.5769 -1.0169
  195MOL   H15939347   3.973   2.427   1.862 -2.0259 -1.9890 -0.1249
  195MOL   H16039348   3.879   2.578   1.854 -0.5804 -0.3912  0.2299
  195MOL   H16139349   3.766   2.494   1.648 -2.0287  0.3864  1.4627
  195MOL   C16239350   3.718   2.345   1.772 -0.2023  0.6709 -0.4248
  195MOL   O16339351   3.726   2.281   1.875 -0.7995 -0.6136 -0.1774
  195MOL   C16439352   3.590   2.336   1.692  0.7994 -0.3827 -0.0916
  195MOL   C16539353   3.465   2.354   1.778 -0.5978 -0.0812  0.2355
  195MOL   N16639354   3.346   2.331   1.702 -0.1803  0.0574  0.6741
  195MOL   H16739355   3.593   2.233   1.657 -0.7362 -0.4798  0.0656
  195MOL   H16839356   3.583   2.401   1.605 -1.7335 -1.2210 -0.5559
  195MOL   H16939357   3.470   2.294   1.870  0.9696  0.4892  0.5403
  195MOL   H17039358   3.476   2.456   1.814  1.2944 -0.2333  0.1674
  195MOL   H17139359   3.321   2.241   1.662 -0.9373  0.7069 -0.3219
  195MOL   C17239360   3.239   2.416   1.712 -0.3070  0.3580 -0.0452
  195MOL   O17339361   3.243   2.524   1.767 -0.3357  0.0053 -0.1712
  195MOL   C17439362   3.115   2.358   1.652 -0.3027 -0.2598 -0.1606
  195MOL   C17539363   3.011   2.462   1.601  0.1326 -0.0288 -0.3815
  195MOL   N17639364   3.064   2.513   1.472  0.4629  0.0603  0.4458
  195MOL   H17739365   3.067   2.297   1.729  1.3920  1.2462  2.1436
  195MOL   H17839366   3.143   2.287   1.574  2.4026  0.3168  0.2628
  195MOL   H17939367   2.914   2.414   1.590  0.4137 -0.9742  1.0874
  195MOL   H18039368   3.003   2.538   1.678  1.0057 -1.3695  1.0575
  195MOL   H18139369   3.107   2.603   1.485 -3.8198  2.2864  0.1994
  195MOL   C18239370   3.064   2.455   1.350 -0.7433 -0.5479  0.0299
  195MOL   O18339371   3.002   2.350   1.322 -0.1841  0.3781 -0.2484
  195MOL   C18439372   3.143   2.529   1.239 -0.8121 -0.3058 -0.7223
  195MOL   C18539373   3.056   2.615   1.145  0.0060 -0.4136  0.9157
  195MOL   N18639374   2.997   2.534   1.037  0.0518 -0.1139  0.3131
  195MOL   H18739375   3.199   2.457   1.181  0.1471  0.1326 -0.3493
  195MOL   H18839376   3.212   2.596   1.291  0.8469 -1.7057 -1.0904
  195MOL   H18939377   2.979   2.669   1.201 -1.0405  2.4645 -3.1116
  195MOL   H19039378   3.125   2.690   1.107 -2.2882  3.0518  3.2905
  195MOL   H19139379   2.997   2.434   1.054 -1.7734 -0.6254 -2.3849
  195MOL   C19239380   2.938   2.582   0.928 -0.4965  0.2349  0.4944
  195MOL   O19339381   2.923   2.704   0.911 -0.3645 -0.2497 -0.5353
  195MOL   C19439382   2.871   2.482   0.830  0.3884 -0.5068 -0.3289
  195MOL   C19539383   2.790   2.546   0.709 -0.3115  0.0151  0.1623
  195MOL   N19639384   2.676   2.632   0.734  0.4025  0.0667 -0.6429
  195MOL   H19739385   2.955   2.427   0.787  2.4737  2.7300 -0.5966
  195MOL   H19839386   2.810   2.410   0.886  0.3276  1.3456  2.0591
  195MOL   H19939387   2.858   2.600   0.645  2.3240  0.1457  2.9566
  195MOL   H20039388   2.757   2.462   0.648  0.1319  0.4417 -0.6644
  195MOL   H20139389   2.724   2.689   0.801 -1.3144  0.0665  0.6221
  195MOL   H20239390   2.655   2.684   0.650  0.4797  1.3513  0.1268
  196MOL     C139391   5.118   5.252   6.862  0.6191 -0.1425 -0.5370
  196MOL     O239392   5.109   5.138   6.827  0.0777  0.0119 -0.1206
  196MOL     C339393   5.135   5.362   6.759  0.1270  0.0921 -0.0318
  196MOL     C439394   5.194   5.498   6.809 -0.2296  0.1203  0.5045
  196MOL     N539395   5.330   5.482   6.856  0.2496 -0.2688  0.4177
  196MOL     H639396   5.037   5.381   6.715  0.0837  4.6116  1.7198
  196MOL     H739397   5.198   5.322   6.680 -0.5608 -1.9640  0.4200
  196MOL     H839398   5.123   5.532   6.885 -1.6157  0.7204 -1.0199
  196MOL     H939399   5.187   5.579   6.736 -4.5057  0.6233  1.3331
  196MOL    H1039400   5.388   5.400   6.844  1.6422  0.5336  1.4321
  196MOL    H1139401   5.116   5.277   6.968  2.0065 -1.5087 -0.1730
  196MOL    C1239402   5.389   5.578   6.920 -1.1431 -0.4679  0.0247
  196MOL    O1339403   5.340   5.690   6.940 -0.4547 -0.2916 -0.0949
  196MOL    C1439404   5.529   5.548   6.966 -0.2829 -0.7638 -0.2912
  196MOL    C1539405   5.629   5.574   6.847  0.6167  0.6330 -0.1399
  196MOL    N1639406   5.770   5.529   6.881  0.1607  0.2947  0.2808
  196MOL    H1739407   5.532   5.444   6.999  1.6777  0.0140  2.1518
  196MOL    H1839408   5.548   5.616   7.050 -0.6294 -1.1811  0.1304
  196MOL    H1939409   5.600   5.520   6.757 -0.8128  1.4087 -0.1532
  196MOL    H2039410   5.635   5.674   6.805  0.5722  0.2700 -1.0235
  196MOL    H2139411   5.794   5.434   6.856  0.5430  0.7693 -1.2625
  196MOL    C2239412   5.867   5.612   6.911 -0.8674 -0.8975  0.2248
  196MOL    O2339413   5.856   5.733   6.915  0.1830 -0.3264 -0.3032
  196MOL    C2439414   5.997   5.547   6.947 -0.4327 -0.5651 -0.1178
  196MOL    C2539415   6.043   5.428   6.856 -0.4735  1.2588 -0.3946
  196MOL    N2639416   6.074   5.472   6.715  0.7421  0.4540 -0.1479
  196MOL    H2739417   5.999   5.505   7.047 -0.4069  1.1817  0.6356
  196MOL    H2839418   6.077   5.621   6.945  0.2132 -1.2270  0.8991
  196MOL    H2939419   6.134   5.392   6.904  0.4347  1.1027 -2.2049
  196MOL    H3039420   5.976   5.342   6.854  3.1176 -1.6385 -1.7375
  196MOL    H3139421   6.171   5.491   6.694  1.6706 -2.2167  1.5458
  196MOL    C3239422   6.000   5.435   6.611 -0.1780  0.3100 -0.0226
  196MOL    O3339423   5.891   5.378   6.625  0.0399  0.3723  0.0152
  196MOL    C3439424   6.059   5.460   6.470 -0.1311  0.5980 -0.8439
  196MOL    C3539425   6.048   5.328   6.388 -0.7517 -0.1548 -0.2434
  196MOL    N3639426   6.165   5.310   6.301  0.3243 -0.0533  0.2484
  196MOL    H3739427   6.165   5.484   6.479  0.0436 -0.3457 -0.2565
  196MOL    H3839428   6.028   5.553   6.423  1.5051  1.5340 -0.1064
  196MOL    H3939429   6.036   5.242   6.455 -0.9932  0.8405  1.0202
  196MOL    H4039430   5.960   5.323   6.324  0.0277 -3.7816 -1.1617
  196MOL    H4139431   6.183   5.394   6.248  0.6800  0.8805  1.8238
  196MOL    C4239432   6.255   5.203   6.304 -0.1409  0.2137  0.5533
  196MOL    O4339433   6.238   5.099   6.371 -0.1970  0.0307  0.3636
  196MOL    C4439434   6.375   5.230   6.207  0.0879  0.8755 -0.1244
  196MOL    C4539435   6.397   5.110   6.113  0.1957 -0.2801  0.5034
  196MOL    N4639436   6.318   5.115   5.987 -0.5968  0.0728  0.4369
  196MOL    H4739437   6.351   5.322   6.152 -1.3738  2.3318  2.8300
  196MOL    H4839438   6.468   5.240   6.263 -0.0947 -3.1468  1.0344
  196MOL    H4939439   6.501   5.105   6.084 -0.1025 -1.6105 -0.3785
  196MOL    H5039440   6.375   5.022   6.175  0.2614  1.0077  2.4161
  196MOL    H5139441   6.377   5.138   5.908 -0.0436 -2.1984  0.1441
  196MOL    C5239442   6.184   5.095   5.971 -0.0351 -0.4105  0.3723
  196MOL    O5339443   6.111   5.049   6.060 -0.1593 -0.7775  0.1017
  196MOL    C5439444   6.116   5.132   5.839  0.4750  0.8624  0.1979
  196MOL    C5539445   6.064   5.010   5.759  0.1560 -0.2072  0.3471
  196MOL    N5639446   6.157   4.963   5.661 -0.4172 -0.4383  0.0212
  196MOL    H5739447   6.041   5.207   5.862 -0.1354  1.2143 -2.7865
  196MOL    H5839448   6.194   5.182   5.782  1.1061 -1.5923 -1.2006
  196MOL    H5939449   5.967   5.044   5.723  2.1142  2.8583 -2.3230
  196MOL    H6039450   6.055   4.924   5.825  0.0693 -0.8943 -0.5461
  196MOL    H6139451   6.239   4.925   5.705  1.0022  0.3882 -1.8268
  196MOL    C6239452   6.154   4.987   5.526  0.1029  0.0745 -0.0445
  196MOL    O6339453   6.059   5.050   5.479 -0.1874  0.4644 -0.1962
  196MOL    C6439454   6.275   4.941   5.442  0.6967  0.2733  0.0965
  196MOL    C6539455   6.266   4.960   5.296 -0.1703  0.2900 -0.2172
  196MOL    N6639456   6.307   4.842   5.221  0.4135  0.3950 -0.4809
  196MOL    H6739457   6.355   4.995   5.494  0.3751 -0.6178  1.5560
  196MOL    H6839458   6.290   4.836   5.467  1.2630 -0.0806 -1.6463
  196MOL    H6939459   6.165   4.981   5.261 -0.3206  1.7030  1.0186
  196MOL    H7039460   6.319   5.049   5.263 -0.1084  0.3929  0.1575
  196MOL    H7139461   6.238   4.796   5.164 -0.3125 -1.0830  1.5176
  196MOL    C7239462   6.434   4.802   5.204 -0.8499  0.6628 -0.1807
  196MOL    O7339463   6.527   4.855   5.269  0.2488  0.3112  0.1305
  196MOL    C7439464   6.458   4.701   5.096  0.2860  0.0766  0.3044
  196MOL    C7539465   6.563   4.741   5.005 -0.6648 -0.3052  0.6139
  196MOL    N7639466   6.603   4.637   4.918 -0.5883 -0.0240 -0.2032
  196MOL    H7739467   6.500   4.618   5.153 -1.9202  1.1001  3.5318
  196MOL    H7839468   6.365   4.665   5.051  0.3135 -2.2644  1.9775
  196MOL    H7939469   6.537   4.826   4.943  0.9407  0.0657  0.4066
  196MOL    H8039470   6.646   4.781   5.064 -1.7851  0.1783  1.8904
  196MOL    H8139471   6.535   4.587   4.863 -0.1835 -0.3767 -0.3852
  196MOL    C8239472   6.719   4.575   4.915 -0.7894 -0.0035  0.4374
  196MOL    O8339473   6.806   4.611   4.997  0.1643  0.4815  0.4454
  196MOL    C8439474   6.736   4.459   4.816  0.3165  0.3253  0.1469
  196MOL    C8539475   6.882   4.439   4.776  0.1478 -0.4793  0.1662
  196MOL    N8639476   6.951   4.543   4.711  0.2226  0.3166  0.1764
  196MOL    H8739477   6.700   4.361   4.846  3.0052 -0.9944 -0.7607
  196MOL    H8839478   6.680   4.483   4.725 -0.5241  2.3830  1.1736
  196MOL    H8939479   6.947   4.414   4.860 -0.2083  0.6946  0.7905
  196MOL    H9039480   6.884   4.350   4.713 -0.1649 -0.9094  0.7680
  196MOL    H9139481   7.022   4.592   4.765 -0.7275  2.0476 -0.1161
  196MOL    C9239482   6.919   4.607   4.595  0.3228  0.4797  0.1470
  196MOL    O9339483   6.840   4.565   4.513 -0.5735  0.1518 -0.7981
  196MOL    C9439484   7.004   4.736   4.578 -0.1350  0.9409  0.0724
  196MOL    C9539485   6.932   4.852   4.501 -0.0522  1.0067  0.0128
  196MOL    N9639486   6.825   4.926   4.580 -0.3777  0.1114  0.5685
  196MOL    H9739487   7.021   4.774   4.679 -1.2321 -1.3278  1.1544
  196MOL    H9839488   7.096   4.711   4.525  0.2044 -1.5623  1.7338
  196MOL    H9939489   7.011   4.923   4.475  0.5011  0.3125 -0.2079
  196MOL   H10039490   6.895   4.823   4.403 -0.5051  0.4751  0.3437
  196MOL   H10139491   6.734   4.883   4.575 -0.4740  0.5250 -2.4923
  196MOL   C10239492   6.850   5.025   4.666 -0.2153  0.7147 -0.6011
  196MOL   O10339493   6.960   5.065   4.677 -0.3390 -0.3821 -0.1320
  196MOL   C10439494   6.729   5.077   4.737 -0.5243 -0.8473 -0.4891
  196MOL   C10539495   6.716   5.231   4.762 -0.0053  0.4735 -0.9913
  196MOL   N10639496   6.727   5.302   4.636 -0.0520 -0.3584 -0.4283
  196MOL   H10739497   6.738   5.030   4.835  2.5006 -0.1588 -0.3817
  196MOL   H10839498   6.639   5.039   4.690 -0.4008  0.3452 -1.7041
  196MOL   H10939499   6.616   5.262   4.795  0.0101  1.4362 -1.7935
  196MOL   H11039500   6.789   5.266   4.835  1.2604 -1.1410 -1.4811
  196MOL   H11139501   6.753   5.245   4.556  0.7234  1.4888 -1.5347
  196MOL   C11239502   6.730   5.430   4.624  0.3392 -0.2338 -0.1764
  196MOL   O11339503   6.710   5.507   4.720  0.4796 -1.0693  0.4380
  196MOL   C11439504   6.747   5.483   4.481  0.2828  0.6432  0.1095
  196MOL   C11539505   6.887   5.496   4.431 -0.1458 -0.5130  0.7834
  196MOL   N11639506   6.963   5.374   4.443  0.0918 -0.0146 -0.5742
  196MOL   H11739507   6.681   5.569   4.473 -1.9144 -0.9961  0.2868
  196MOL   H11839508   6.693   5.415   4.415 -0.0085 -1.3983  2.3679
  196MOL   H11939509   6.894   5.544   4.333 -1.0358  1.2254  1.5469
  196MOL   H12039510   6.948   5.570   4.484 -0.1215 -0.3242  0.4939
  196MOL   H12139511   6.915   5.286   4.460  1.1533 -0.0180  2.5231
  196MOL   C12239512   7.091   5.357   4.421  0.6308  0.8038 -0.1936
  196MOL   O12339513   7.167   5.448   4.386 -0.6418 -0.0015 -0.2553
  196MOL   C12439514   7.140   5.218   4.439  0.1835 -0.3325 -0.1479
  196MOL   C12539515   7.217   5.176   4.314 -0.7433  0.4848 -0.0407
  196MOL   N12639516   7.281   5.048   4.334  0.4625 -0.0621  0.2693
  196MOL   H12739517   7.055   5.153   4.459 -0.1947 -0.4108 -1.8635
  196MOL   H12839518   7.194   5.214   4.533 -0.5069  0.0071  0.2586
  196MOL   H12939519   7.155   5.192   4.226  1.0051  2.0215 -1.0482
  196MOL   H13039520   7.298   5.249   4.313 -1.1712  0.9578 -0.2812
  196MOL   H13139521   7.376   5.057   4.366  0.8794  0.2799 -1.0643
  196MOL   C13239522   7.228   4.936   4.293 -0.0235  0.2768  0.5011
  196MOL   O13339523   7.113   4.934   4.243  0.3059  0.4553 -0.5178
  196MOL   C13439524   7.312   4.813   4.306 -0.1505 -0.7577  0.2940
  196MOL   C13539525   7.282   4.710   4.189  0.8971  0.0441 -0.0118
  196MOL   N13639526   7.357   4.584   4.212 -0.1222  0.2373  0.0305
  196MOL   H13739527   7.281   4.775   4.404  0.9684  0.3524  1.0956
  196MOL   H13839528   7.417   4.841   4.312 -0.4489  1.4466 -3.1400
  196MOL   H13939529   7.176   4.694   4.170  0.6926  1.3992 -0.1048
  196MOL   H14039530   7.316   4.759   4.098 -1.2449  1.5825 -0.0345
  196MOL   H14139531   7.313   4.506   4.259  0.3996 -0.2481 -0.2843
  196MOL   C14239532   7.485   4.560   4.188 -0.0538  0.1221 -0.0625
  196MOL   O14339533   7.559   4.638   4.125 -0.3915 -0.3983 -0.2255
  196MOL   C14439534   7.538   4.424   4.233  0.4356 -0.8990  0.1471
  196MOL   C14539535   7.568   4.326   4.120  0.0202 -0.6654  0.3946
  196MOL   N14639536   7.440   4.266   4.078  0.4322  0.1174 -1.0791
  196MOL   H14739537   7.478   4.369   4.304 -0.7754  0.9860  0.6255
  196MOL   H14839538   7.633   4.441   4.285  1.4447  1.1190 -2.2247
  196MOL   H14939539   7.615   4.373   4.033 -0.1734 -0.5449  0.3543
  196MOL   H15039540   7.641   4.254   4.158 -0.0634 -1.5562 -1.0662
  196MOL   H15139541   7.396   4.323   4.008 -1.0978  1.4483  0.9116
  196MOL   C15239542   7.382   4.152   4.120  0.6895  0.1848  0.0843
  196MOL   O15339543   7.404   4.092   4.224  0.0674 -0.1820 -0.1922
  196MOL   C15439544   7.270   4.113   4.028 -0.1518  0.2925 -0.1974
  196MOL   C15539545   7.327   4.055   3.898 -0.2347  0.2018 -0.6992
  196MOL   N15639546   7.242   3.968   3.813 -0.0985 -0.0193  0.1052
  196MOL   H15739547   7.201   4.193   4.002  0.1750  1.0824  1.3148
  196MOL   H15839548   7.218   4.036   4.086 -0.4158 -0.9301 -2.0146
  196MOL   H15939549   7.344   4.146   3.840  0.9114  0.6604  0.3359
  196MOL   H16039550   7.426   4.012   3.913 -0.0173  0.6243 -0.9442
  196MOL   H16139551   7.159   3.934   3.861  0.6012 -0.6644  0.8775
  196MOL   C16239552   7.278   3.919   3.692  0.0306  0.4037  0.3006
  196MOL   O16339553   7.377   3.956   3.633  0.1146  1.0464  1.0440
  196MOL   C16439554   7.191   3.815   3.629 -0.4966  0.6828  0.6580
  196MOL   C16539555   7.186   3.809   3.464  0.7361  0.8956 -0.2820
  196MOL   N16639556   7.156   3.937   3.401 -0.1606  0.1791 -0.4595
  196MOL   H16739557   7.086   3.841   3.645 -0.8808 -0.4271 -0.0564
  196MOL   H16839558   7.227   3.722   3.672 -0.8419  1.4935  2.7887
  196MOL   H16939559   7.287   3.784   3.432  0.2351  0.5097 -1.6377
  196MOL   H17039560   7.113   3.734   3.433  0.8239  0.5830  0.2728
  196MOL   H17139561   7.236   3.987   3.366 -1.2335 -0.0731 -3.4043
  196MOL   C17239562   7.036   3.976   3.356 -0.3491  0.4904  0.2390
  196MOL   O17339563   6.933   3.912   3.371 -0.0619 -0.8250  0.3405
  196MOL   C17439564   7.046   4.098   3.265  0.9220  0.0412 -0.7889
  196MOL   C17539565   6.995   4.227   3.324  0.7616  0.2803  0.1884
  196MOL   N17639566   7.062   4.338   3.266  0.0471  0.4661 -0.2629
  196MOL   H17739567   7.002   4.065   3.170 -0.2741 -2.1653  0.4887
  196MOL   H17839568   7.150   4.114   3.237  0.0735  0.9170 -3.5886
  196MOL   H17939569   6.889   4.231   3.299  0.9428  0.5235 -0.5713
  196MOL   H18039570   7.004   4.225   3.432 -0.0939  0.6380  0.2741
  196MOL   H18139571   7.036   4.355   3.170 -0.4281 -0.7392 -0.3571
  196MOL   C18239572   7.142   4.425   3.321  0.1177  0.2569  1.5972
  196MOL   O18339573   7.158   4.425   3.445  0.1642  0.1494 -0.5168
  196MOL   C18439574   7.201   4.538   3.225  0.1342  0.4064 -0.1538
  196MOL   C18539575   7.257   4.660   3.295  0.1302  0.1985 -0.0937
  196MOL   N18639576   7.154   4.760   3.331 -0.1388  0.0844  0.8042
  196MOL   H18739577   7.121   4.580   3.164 -0.3088 -0.8672 -0.4536
  196MOL   H18839578   7.282   4.488   3.172  2.1301  3.1866  0.1666
  196MOL   H18939579   7.316   4.640   3.385  0.5625 -1.6424 -0.7686
  196MOL   H19039580   7.324   4.705   3.222  0.7827  2.0283  1.5728
  196MOL   H19139581   7.071   4.766   3.274  0.1068  2.7181  0.6769
  196MOL   C19239582   7.161   4.850   3.428  0.2688  0.0311 -0.1621
  196MOL   O19339583   7.264   4.852   3.497  0.5593 -0.6880 -0.1105
  196MOL   C19439584   7.052   4.957   3.431 -0.0305  0.5505 -0.1292
  196MOL   C19539585   6.941   4.951   3.542  0.7592  0.1435 -0.0771
  196MOL   N19639586   6.836   4.850   3.525  0.1010  0.2814 -0.0071
  196MOL   H19739587   7.105   5.048   3.459  0.1791  0.7919 -1.2804
  196MOL   H19839588   7.022   4.969   3.327  1.1736 -0.5213 -0.6012
  196MOL   H19939589   6.988   4.915   3.634 -0.2382  0.3904  0.5318
  196MOL   H20039590   6.890   5.047   3.550  1.0043  0.2631  0.0773
  196MOL   H20139591   6.757   4.887   3.474 -0.7678 -0.8857  0.4500
  196MOL   H20239592   6.878   4.786   3.459  1.1331  1.9589 -1.0029
  197MOL     C139593   3.644   6.837   6.032  0.0689 -0.5168  0.0031
  197MOL     O239594   3.721   6.875   5.944 -0.0659 -0.2342 -0.0305
  197MOL     C339595   3.688   6.830   6.182 -0.0284  0.0389 -0.0918
  197MOL     C439596   3.833   6.844   6.217  0.0641  0.6226 -0.2355
  197MOL     N539597   3.908   6.718   6.182  0.3319  0.4924 -0.4636
  197MOL     H639598   3.637   6.741   6.220  2.2451 -0.6069  1.5857
  197MOL     H739599   3.636   6.907   6.240 -1.4930 -0.6937 -0.4121
  197MOL     H839600   3.841   6.875   6.322 -0.8171  1.1054 -0.3078
  197MOL     H939601   3.875   6.933   6.170  1.3571  0.2039  0.1283
  197MOL    H1039602   3.890   6.698   6.084 -2.4924  0.2570  0.0722
  197MOL    H1139603   3.546   6.791   6.015 -0.8117  1.4364 -0.3992
  197MOL    C1239604   4.000   6.649   6.260 -0.4435  0.1178 -0.1506
  197MOL    O1339605   4.019   6.685   6.374  0.1772 -0.3905  0.0662
  197MOL    C1439606   4.069   6.528   6.210 -0.2596 -0.9452 -0.0516
  197MOL    C1539607   4.177   6.466   6.301  0.1878  0.7798 -0.9712
  197MOL    N1639608   4.115   6.396   6.414  0.1391  0.1898 -0.2633
  197MOL    H1739609   4.119   6.552   6.116  1.3027  1.3778  1.3351
  197MOL    H1839610   4.000   6.449   6.179 -1.4700 -0.1994  0.6785
  197MOL    H1939611   4.248   6.398   6.254 -1.5402 -0.8727 -1.2452
  197MOL    H2039612   4.227   6.546   6.356  2.1886 -1.3224  0.4035
  197MOL    H2139613   4.076   6.460   6.481 -3.5522  0.6921 -2.7488
  197MOL    C2239614   4.140   6.271   6.443 -0.6888  0.4371  0.1510
  197MOL    O2339615   4.208   6.196   6.369 -0.4931 -0.3346  0.1195
  197MOL    C2439616   4.071   6.207   6.559  0.5520 -0.0729  0.4930
  197MOL    C2539617   4.175   6.203   6.679  0.0657  0.0655  0.1912
  197MOL    N2639618   4.189   6.333   6.750  0.2084 -0.6563  1.0760
  197MOL    H2739619   4.051   6.102   6.537  1.8063 -0.7972  2.6478
  197MOL    H2839620   3.980   6.261   6.585 -0.3011 -0.7725 -0.9339
  197MOL    H2939621   4.141   6.128   6.751  1.2199 -0.5261  0.1397
  197MOL    H3039622   4.269   6.162   6.641 -0.9740 -0.1608 -2.2019
  197MOL    H3139623   4.258   6.397   6.712 -0.4995  0.0652  0.9791
  197MOL    C3239624   4.138   6.347   6.866 -0.1525  0.0269 -0.6833
  197MOL    O3339625   4.076   6.256   6.920  0.4694  0.4861  0.2565
  197MOL    C3439626   4.172   6.483   6.938  0.5057  0.6380  0.0321
  197MOL    C3539627   4.083   6.524   7.056  0.5708  0.3778  0.0133
  197MOL    N3639628   4.140   6.478   7.182 -0.2521  0.1780 -0.1846
  197MOL    H3739629   4.181   6.566   6.868 -1.0443  0.9068  0.1473
  197MOL    H3839630   4.274   6.465   6.972  0.3289  0.1762  0.3121
  197MOL    H3939631   4.091   6.633   7.059  0.2003  0.3740  1.6480
  197MOL    H4039632   3.978   6.495   7.052  0.9505 -1.1767  0.8820
  197MOL    H4139633   4.190   6.391   7.173 -0.2244  0.1716  0.0336
  197MOL    C4239634   4.107   6.523   7.305  0.6571 -0.4122  0.7719
  197MOL    O4339635   4.152   6.463   7.404  0.1866 -0.1172  0.1048
  197MOL    C4439636   4.015   6.649   7.318 -0.6359  0.4913  0.0178
  197MOL    C4539637   3.988   6.697   7.461 -0.2317 -0.4439  0.1685
  197MOL    N4639638   4.097   6.763   7.527  0.3703 -0.6495  0.3698
  197MOL    H4739639   4.066   6.730   7.265  1.3572 -0.0279  1.1000
  197MOL    H4839640   3.917   6.639   7.273 -1.2862  1.5063  1.1847
  197MOL    H4939641   3.905   6.768   7.460 -0.8128 -1.0837  1.4660
  197MOL    H5039642   3.960   6.613   7.525  3.5854 -1.2008  0.9785
  197MOL    H5139643   4.167   6.807   7.469  0.5307  0.9154  1.7213
  197MOL    C5239644   4.105   6.806   7.652 -0.1976  1.1616 -0.3737
  197MOL    O5339645   4.030   6.767   7.742 -0.1937 -0.0871 -0.0427
  197MOL    C5439646   4.226   6.893   7.683  0.0764  0.0682 -0.3369
  197MOL    C5539647   4.241   6.971   0.032 -0.7137 -0.0681 -0.5087
  197MOL    N5639648   4.304   6.880   0.131  1.1625 -0.1168 -0.1614
  197MOL    H5739649   4.316   6.839   7.652  0.9776  0.6503  1.1672
  197MOL    H5839650   4.208   6.968   7.605 -2.9833 -0.1581  0.1082
  197MOL    H5939651   4.143   7.010   0.061  0.5258  3.2915 -0.6293
  197MOL    H6039652   4.301   7.059   0.008 -0.1035 -0.2677  0.2786
  197MOL    H6139653   4.244   6.802   0.150 -1.0304  1.5710  0.1180
  197MOL    C6239654   4.420   6.894   0.191  0.2219 -0.3594  0.2400
  197MOL    O6339655   4.490   6.992   0.166 -0.0567  0.4621  0.0952
  197MOL    C6439656   4.464   6.779   0.284 -0.9729 -0.1725 -0.5748
  197MOL    C6539657   4.549   6.830   0.405 -0.7626 -0.0966  0.1676
  197MOL    N6639658   4.617   6.726   0.473 -0.1606  0.1151 -0.1837
  197MOL    H6739659   4.372   6.747   0.332 -0.6407  2.6783  2.1160
  197MOL    H6839660   4.516   6.702   0.226 -0.0975 -0.6852  0.8589
  197MOL    H6939661   4.622   6.903   0.369 -1.4996  0.9545  0.7838
  197MOL    H7039662   4.481   6.884   0.471  1.3587  4.0070 -0.8299
  197MOL    H7139663   4.616   6.633   0.432 -0.8679 -0.0811  0.2503
  197MOL    C7239664   4.665   6.731   0.601 -0.2280 -0.1372 -0.4434
  197MOL    O7339665   4.690   6.838   0.656  0.8090 -0.2922 -0.0906
  197MOL    C7439666   4.704   6.595   0.665 -0.8780 -0.2847  0.4272
  197MOL    C7539667   4.798   6.612   0.790 -0.3136 -0.7965 -0.2955
  197MOL    N7639668   4.731   6.601   0.925 -0.5876  1.0515  0.1528
  197MOL    H7739669   4.615   6.541   0.698 -0.8325  0.5574  1.9533
  197MOL    H7839670   4.759   6.545   0.585  0.4457  0.7908  0.6496
  197MOL    H7939671   4.864   6.527   0.804 -0.0344 -0.2328  1.8853
  197MOL    H8039672   4.863   6.699   0.788 -0.6886 -0.4596  1.4023
  197MOL    H8139673   4.725   6.507   0.961  1.2261  1.1528  0.7663
  197MOL    C8239674   4.711   6.698   1.016 -0.6897 -0.0320 -0.4515
  197MOL    O8339675   4.744   6.816   0.996  0.0676 -0.2682 -0.6950
  197MOL    C8439676   4.645   6.649   1.141  0.0899  0.0639  0.0701
  197MOL    C8539677   4.661   6.767   1.253 -0.1022  0.1398 -0.3824
  197MOL    N8639678   4.640   6.712   1.389 -0.2809  0.0494  0.5315
  197MOL    H8739679   4.542   6.620   1.122  0.4068  0.0029 -1.6733
  197MOL    H8839680   4.703   6.565   1.177 -0.5639 -0.8747 -1.0369
  197MOL    H8939681   4.764   6.805   1.250  0.1636 -0.4456  1.0474
  197MOL    H9039682   4.600   6.855   1.234 -1.0785 -0.1183  1.4395
  197MOL    H9139683   4.726   6.673   1.424 -0.1432 -0.2516 -0.1298
  197MOL    C9239684   4.529   6.733   1.463 -0.2595  0.3902  0.2513
  197MOL    O9339685   4.427   6.783   1.418  0.3811  0.7153 -0.1244
  197MOL    C9439686   4.531   6.694   1.614 -0.3502  0.0070  0.6097
  197MOL    C9539687   4.409   6.626   1.668  0.5289  0.1672 -0.0063
  197MOL    N9639688   4.435   6.612   1.813  0.1607  0.3460  0.1452
  197MOL    H9739689   4.620   6.633   1.630  0.8006  1.7860  1.0796
  197MOL    H9839690   4.545   6.788   1.667  0.6096 -1.0894  2.3285
  197MOL    H9939691   4.317   6.679   1.644  1.4023  1.1597 -1.1880
  197MOL   H10039692   4.398   6.529   1.620 -0.5533 -0.1389  0.8404
  197MOL   H10139693   4.514   6.658   1.854 -0.4462 -0.5030  2.3146
  197MOL   C10239694   4.348   6.549   1.899  0.4038  0.0948  0.0121
  197MOL   O10339695   4.243   6.498   1.865  0.3789 -0.6363 -0.5590
  197MOL   C10439696   4.393   6.546   2.046  0.0035 -0.2103  0.0898
  197MOL   C10539697   4.281   6.570   2.158  0.2231  0.2714 -1.0257
  197MOL   N10639698   4.156   6.496   2.134 -0.7490 -0.4229 -0.3660
  197MOL   H10739699   4.482   6.607   2.060  0.2253 -0.5776  0.2837
  197MOL   H10839700   4.422   6.441   2.058 -1.6997 -1.0536 -2.6233
  197MOL   H10939701   4.317   6.545   2.258 -1.1508 -0.8910 -0.8149
  197MOL   H11039702   4.251   6.675   2.166  0.8247  0.5047 -1.7539
  197MOL   H11139703   4.134   6.482   2.036  0.7392 -0.3720 -0.7271
  197MOL   C11239704   4.071   6.445   2.226 -0.4211 -0.2086 -0.7931
  197MOL   O11339705   4.083   6.460   2.344  0.1235 -0.3514 -0.5694
  197MOL   C11439706   3.951   6.378   2.171 -0.1990 -0.4132  0.2583
  197MOL   C11539707   3.828   6.397   2.263  0.6005  0.4079  0.0313
  197MOL   N11639708   3.697   6.356   2.202  0.0762 -0.0651  0.1504
  197MOL   H11739709   3.974   6.272   2.158  1.1953 -0.2011  0.9155
  197MOL   H11839710   3.934   6.426   2.075 -0.5215 -1.0089  0.0140
  197MOL   H11939711   3.843   6.342   2.355 -2.7725 -0.9778 -0.1628
  197MOL   H12039712   3.811   6.500   2.293  0.1246  0.0408  1.0361
  197MOL   H12139713   3.688   6.371   2.102 -3.4673  0.2818  0.4689
  197MOL   C12239714   3.585   6.321   2.276 -0.3708  0.0071  0.5513
  197MOL   O12339715   3.586   6.315   2.396  0.5788 -0.2555  0.9276
  197MOL   C12439716   3.455   6.284   2.195 -0.7150 -0.1179 -0.1575
  197MOL   C12539717   3.352   6.231   2.297 -0.6418 -0.1132 -0.5487
  197MOL   N12639718   3.225   6.210   2.238  0.5470 -0.2512 -0.5366
  197MOL   H12739719   3.458   6.217   2.109 -2.2046 -0.2091 -0.1388
  197MOL   H12839720   3.414   6.380   2.162 -0.0206 -0.7722 -3.0096
  197MOL   H12939721   3.378   6.132   2.333 -0.8505 -0.4960 -1.4388
  197MOL   H13039722   3.342   6.299   2.382  0.4141 -1.0633  0.3402
  197MOL   H13139723   3.227   6.186   2.140 -0.2191 -1.8190 -0.1824
  197MOL   C13239724   3.110   6.231   2.305  0.2410  0.2680  0.3088
  197MOL   O13339725   3.110   6.263   2.425 -0.0728 -0.2161  0.1921
  197MOL   C13439726   2.978   6.212   2.233 -0.0723  0.1879 -0.1422
  197MOL   C13539727   2.870   6.147   2.316 -0.3960 -0.6563 -0.4566
  197MOL   N13639728   2.892   6.007   2.341  0.6771  0.4846 -0.1306
  197MOL   H13739729   3.008   6.147   2.151  0.0989 -0.3100  0.3157
  197MOL   H13839730   2.946   6.313   2.205 -0.2171 -0.4049 -2.2049
  197MOL   H13939731   2.859   6.200   2.411  0.8215 -0.4410 -0.4262
  197MOL   H14039732   2.780   6.178   2.261 -0.9602 -1.2083  0.1506
  197MOL   H14139733   2.975   5.977   2.390  1.0247 -1.0880 -1.6396
  197MOL   C14239734   2.790   5.925   2.361 -0.1386 -0.6479  0.6661
  197MOL   O14339735   2.675   5.966   2.356  0.2782  0.4159 -0.1584
  197MOL   C14439736   2.827   5.784   2.402 -0.8547 -0.2273  0.5439
  197MOL   C14539737   2.815   5.670   2.299 -0.1776 -0.4454 -0.7171
  197MOL   N14639738   2.681   5.645   2.252  0.4995  0.6160  0.5652
  197MOL   H14739739   2.758   5.774   2.486 -1.7761 -0.1817 -0.1989
  197MOL   H14839740   2.929   5.791   2.441 -0.2873 -3.4670 -0.2580
  197MOL   H14939741   2.885   5.690   2.217  0.4847  0.4895  0.0637
  197MOL   H15039742   2.849   5.579   2.348 -2.2290 -0.8283  0.0284
  197MOL   H15139743   2.597   5.683   2.294 -0.0425  0.6084 -0.4864
  197MOL   C15239744   2.663   5.566   2.140  0.3375  0.7032  0.1977
  197MOL   O15339745   2.752   5.508   2.081 -0.2779  0.1673 -0.0618
  197MOL   C15439746   2.517   5.551   2.095 -0.0445  0.0858 -0.1163
  197MOL   C15539747   2.469   5.620   1.965  0.4022  0.4010 -0.5688
  197MOL   N15639748   2.524   5.567   1.846  0.6532 -0.5881  0.3591
  197MOL   H15739749   2.454   5.583   2.178  0.4818  1.8627 -0.3791
  197MOL   H15839750   2.500   5.444   2.088 -0.7962  0.1141  1.0949
  197MOL   H15939751   2.362   5.611   1.949  0.5936 -1.1936 -0.9865
  197MOL   H16039752   2.496   5.726   1.965  0.1969  0.4546  0.6813
  197MOL   H16139753   2.551   5.471   1.834  0.6423 -0.7986  1.9169
  197MOL   C16239754   2.549   5.643   1.735  0.2093  0.1087  0.7031
  197MOL   O16339755   2.522   5.762   1.730 -0.3269  0.2173 -0.2735
  197MOL   C16439756   2.621   5.566   1.618 -0.6244 -0.1780  0.2708
  197MOL   C16539757   2.743   5.646   1.563 -0.5635 -0.0325 -0.1000
  197MOL   N16639758   2.874   5.592   1.604  0.7208  0.2806 -0.6173
  197MOL   H16739759   2.551   5.565   1.534 -0.2746 -1.5481 -0.0136
  197MOL   H16839760   2.654   5.466   1.645  0.0199  0.4439  1.8014
  197MOL   H16939761   2.752   5.647   1.454  1.3659 -3.0115 -0.0341
  197MOL   H17039762   2.738   5.751   1.592 -0.9759 -0.5514  1.7678
  197MOL   H17139763   2.928   5.532   1.543  0.5704 -1.5349  1.0249
  197MOL   C17239764   2.934   5.629   1.723  0.6300  0.3464 -0.1425
  197MOL   O17339765   2.881   5.699   1.805 -0.2654 -0.4996 -0.5914
  197MOL   C17439766   3.061   5.545   1.756 -0.1615 -0.2929  0.2576
  197MOL   C17539767   3.058   5.487   1.899  0.1230 -0.6384 -0.2940
  197MOL   N17639768   2.940   5.399   1.926 -0.3483  0.5572  0.5679
  197MOL   H17739769   3.144   5.612   1.735 -0.8969  0.7834  0.7453
  197MOL   H17839770   3.072   5.464   1.684  1.8342 -1.1199  1.4671
  197MOL   H17939771   3.151   5.430   1.907  0.3193 -0.2391  0.3185
  197MOL   H18039772   3.072   5.570   1.969 -0.8443 -0.8443  0.1479
  197MOL   H18139773   2.865   5.442   1.979  0.1419  1.7742  0.2838
  197MOL   C18239774   2.932   5.275   1.877 -0.2965 -0.1121 -0.6915
  197MOL   O18339775   3.021   5.222   1.807  0.2780 -0.0068  0.3324
  197MOL   C18439776   2.810   5.198   1.920  0.1471  0.4944  0.0116
  197MOL   C18539777   2.737   5.105   1.816 -0.2753 -0.5672 -0.3595
  197MOL   N18639778   2.595   5.077   1.869 -0.9245 -0.1616  0.7621
  197MOL   H18739779   2.734   5.269   1.951 -2.0946 -1.7559 -0.2273
  197MOL   H18839780   2.833   5.150   2.015 -0.2872  2.5917  1.1856
  197MOL   H18939781   2.748   5.156   1.721  1.2844  0.0015  0.1169
  197MOL   H19039782   2.784   5.007   1.805 -0.7163 -1.0398  1.6835
  197MOL   H19139783   2.580   4.986   1.910  1.9024 -1.0640 -0.0882
  197MOL   C19239784   2.496   5.167   1.858  0.0466 -0.1086  0.0083
  197MOL   O19339785   2.515   5.275   1.802 -0.0084 -0.4433  0.2181
  197MOL   C19439786   2.359   5.125   1.906  0.0716  0.4254  0.6188
  197MOL   C19539787   2.251   5.230   1.917 -0.3646  0.3378  0.0294
  197MOL   N19639788   2.233   5.291   1.783  0.4975  0.1225 -0.1411
  197MOL   H19739789   2.331   5.063   1.820 -0.0972  1.0806  0.2027
  197MOL   H19839790   2.370   5.061   1.994 -0.5564  1.7901  1.7036
  197MOL   H19939791   2.157   5.202   1.964 -0.0846  1.5247  1.3312
  197MOL   H20039792   2.298   5.303   1.983 -1.6193 -1.7047  3.2643
  197MOL   H20139793   2.330   5.315   1.768  1.3606 -1.1203  2.9911
  197MOL   H20239794   2.183   5.378   1.785 -0.2802 -0.3401  0.8747
  198MOL     C139795   1.140   6.991   4.751  0.2462  0.1408  0.7280
  198MOL     O239796   1.177   7.058   4.657 -0.3172  0.1296  0.6204
  198MOL     C339797   1.191   6.854   4.784  0.3229 -0.1225  0.0054
  198MOL     C439798   1.159   6.804   4.933  0.9663 -0.1264  0.6225
  198MOL     N539799   1.262   6.839   5.028 -0.2062 -0.4223  0.0551
  198MOL     H639800   1.293   6.844   4.746  0.2035  0.3298 -0.4523
  198MOL     H739801   1.131   6.794   4.715  0.8685  1.9104 -2.3600
  198MOL     H839802   1.138   6.698   4.923 -2.8914  0.5321  0.6927
  198MOL     H939803   1.067   6.845   4.975  0.5859  1.1113 -1.3155
  198MOL    H1039804   1.332   6.906   4.999  0.4166 -0.1224  2.1932
  198MOL    H1139805   1.069   7.023   4.827  1.4415  0.7317  1.6143
  198MOL    C1239806   1.259   6.816   5.160  0.2912 -0.2067 -0.1842
  198MOL    O1339807   1.172   6.739   5.206  0.0408 -0.3406  0.0616
  198MOL    C1439808   1.375   6.871   5.254 -0.0519 -0.8130 -0.1683
  198MOL    C1539809   1.478   6.762   5.280 -0.5207  0.1693  0.2746
  198MOL    N1639810   1.570   6.789   5.390  0.6291 -0.8061  0.3553
  198MOL    H1739811   1.318   6.897   5.344 -1.1201  0.2982 -1.1449
  198MOL    H1839812   1.415   6.963   5.212  1.1520 -2.1154 -1.9544
  198MOL    H1939813   1.426   6.669   5.303 -2.0705  1.4965  2.4228
  198MOL    H2039814   1.539   6.726   5.197  0.7522  0.6868  0.9665
  198MOL    H2139815   1.643   6.857   5.379 -1.3744  0.8234 -4.2262
  198MOL    C2239816   1.567   6.731   5.511  0.4596 -0.0189  0.1233
  198MOL    O2339817   1.477   6.651   5.547 -0.1922  0.0138 -0.5176
  198MOL    C2439818   1.684   6.768   5.601  0.2232  0.0765 -0.8829
  198MOL    C2539819   1.637   6.796   5.743  0.1284  0.2306 -0.1887
  198MOL    N2639820   1.744   6.823   5.837 -0.0398  0.1100 -0.5382
  198MOL    H2739821   1.744   6.841   5.546 -1.0807  1.1542 -0.9034
  198MOL    H2839822   1.736   6.672   5.606 -1.6687 -0.9600 -0.5228
  198MOL    H2939823   1.578   6.888   5.739  0.2049  0.2350 -1.8517
  198MOL    H3039824   1.574   6.717   5.783  1.7343  0.0807  2.1154
  198MOL    H3139825   1.839   6.830   5.803  0.4896  0.3719  0.9485
  198MOL    C3239826   1.730   6.859   5.965  0.6198  0.5025  0.3332
  198MOL    O3339827   1.622   6.893   6.021 -0.2871  0.3498  0.1159
  198MOL    C3439828   1.864   6.895   6.040 -0.1959 -0.1069  0.1711
  198MOL    C3539829   1.851   6.982   6.170  0.7791  0.0598 -0.1522
  198MOL    N3639830   1.979   6.979   6.242 -0.0587  0.1769 -0.7399
  198MOL    H3739831   1.916   6.959   5.969  0.1160 -0.0845  0.4163
  198MOL    H3839832   1.927   6.806   6.051 -0.8966 -0.5104  0.9760
  198MOL    H3939833   1.831   7.086   6.147 -0.0086  0.3069  1.5314
  198MOL    H4039834   1.771   6.949   6.238  2.8758 -2.2521  1.2995
  198MOL    H4139835   2.043   7.054   6.217  0.3943 -0.5833 -1.8731
  198MOL    C4239836   2.018   6.892   6.337 -0.2072  0.7802  0.4212
  198MOL    O4339837   1.960   6.788   6.352  0.1333  0.6918  0.3409
  198MOL    C4439838   2.140   6.927   6.422  0.1196 -0.0683  0.1543
  198MOL    C4539839   2.264   6.853   6.387 -0.3245 -0.4554  0.2450
  198MOL    N4639840   2.282   6.732   6.470  0.6132  0.0367  0.0442
  198MOL    H4739841   2.155   7.034   6.404 -0.7983 -0.0263 -0.4211
  198MOL    H4839842   2.137   6.912   6.530  3.7926  0.8153  0.4363
  198MOL    H4939843   2.257   6.826   6.282  0.6251 -1.6976  0.4783
  198MOL    H5039844   2.350   6.919   6.399  1.5134 -2.6729 -0.2573
  198MOL    H5139845   2.213   6.705   6.539  1.9253 -0.5171  1.1688
  198MOL    C5239846   2.383   6.649   6.445 -1.2330 -0.4202 -0.7245
  198MOL    O5339847   2.476   6.678   6.369 -0.9914 -0.4130 -1.0692
  198MOL    C5439848   2.385   6.509   6.499 -0.5698 -0.4122  0.3073
  198MOL    C5539849   2.520   6.468   6.566 -0.2868 -0.1408 -0.0411
  198MOL    N5639850   2.539   6.527   6.692  0.5154 -0.8892 -0.1111
  198MOL    H5739851   2.303   6.501   6.570 -0.3463  1.0654  0.7529
  198MOL    H5839852   2.363   6.454   6.407  0.8531 -1.9781  0.8801
  198MOL    H5939853   2.609   6.508   6.518  0.5589 -1.5427  0.3295
  198MOL    H6039854   2.538   6.361   6.577  2.5148  0.0638 -2.0567
  198MOL    H6139855   2.591   6.613   6.689 -2.8757  1.2038 -1.1446
  198MOL    C6239856   2.513   6.471   6.806 -0.3449 -0.5183 -0.7240
  198MOL    O6339857   2.447   6.366   6.818 -0.4740 -0.3000 -0.0290
  198MOL    C6439858   2.561   6.544   6.936 -0.4679 -0.5552  0.8320
  198MOL    C6539859   2.627   6.457   7.040  0.9657  0.7623 -0.2853
  198MOL    N6639860   2.768   6.449   7.027  0.6302  0.1273 -0.3480
  198MOL    H6739861   2.624   6.631   6.914 -0.5715 -0.5764  0.4434
  198MOL    H6839862   2.469   6.582   6.980 -0.3006  0.2621  0.4931
  198MOL    H6939863   2.612   6.493   7.142  0.3295 -0.5451  0.0936
  198MOL    H7039864   2.585   6.356   7.044  1.8643  0.3911 -0.0672
  198MOL    H7139865   2.831   6.522   7.058  0.7708  0.5071 -1.5071
  198MOL    C7239866   2.834   6.336   6.984  0.3778 -0.2206 -0.2088
  198MOL    O7339867   2.780   6.224   6.955 -0.6064  0.1922 -0.1423
  198MOL    C7439868   2.984   6.342   6.995  0.9088 -0.3986 -0.2291
  198MOL    C7539869   3.032   6.319   7.136 -0.3015 -0.1988  0.4420
  198MOL    N7639870   3.067   6.180   7.157  0.0601  0.1904  0.0582
  198MOL    H7739871   3.048   6.285   6.927 -0.0302 -1.7656  0.0206
  198MOL    H7839872   3.014   6.444   6.971 -2.2282  0.7260  0.4778
  198MOL    H7939873   3.126   6.374   7.144  0.2609 -1.1134  0.1240
  198MOL    H8039874   2.967   6.361   7.213 -1.7298 -1.0944 -0.2631
  198MOL    H8139875   3.056   6.116   7.080 -0.0130  0.1813  0.0758
  198MOL    C8239876   3.103   6.140   7.276  0.3263 -0.0599 -0.4270
  198MOL    O8339877   3.142   6.226   7.360  1.0461  0.1752  0.2374
  198MOL    C8439878   3.082   5.991   7.305  0.5482 -0.1629  0.3552
  198MOL    C8539879   3.200   5.905   7.262  0.6263  0.8721 -0.1746
  198MOL    N8639880   3.153   5.791   7.180  0.1871 -0.4057 -0.2953
  198MOL    H8739881   3.056   5.986   7.411 -0.1975 -1.0168  0.1361
  198MOL    H8839882   2.994   5.963   7.247  0.6878 -0.8825  0.4912
  198MOL    H8939883   3.272   5.963   7.204  0.3908  0.6428 -0.6930
  198MOL    H9039884   3.244   5.870   7.356  1.8821 -0.9897 -1.4125
  198MOL    H9139885   3.058   5.797   7.147  0.6252  1.7902 -1.2618
  198MOL    C9239886   3.207   5.670   7.184  0.7126  0.3848 -0.1339
  198MOL    O9339887   3.319   5.660   7.234 -0.1614 -0.2272 -0.0833
  198MOL    C9439888   3.121   5.553   7.140 -1.0287 -0.0994  0.0091
  198MOL    C9539889   2.981   5.574   7.078  0.1106 -0.2744 -0.1441
  198MOL    N9639890   3.000   5.640   6.946  0.2162 -0.3756  0.1834
  198MOL    H9739891   3.178   5.497   7.066  1.0381  2.2675 -0.2547
  198MOL    H9839892   3.114   5.485   7.225 -0.1106  0.4164  0.5160
  198MOL    H9939893   2.946   5.475   7.049  0.7281 -0.3056 -0.7819
  198MOL   H10039894   2.910   5.622   7.145 -0.0145 -0.5454 -0.0812
  198MOL   H10139895   3.062   5.597   6.880  1.5626  0.6925  0.7257
  198MOL   C10239896   2.963   5.763   6.920  0.3781 -0.1645 -0.8637
  198MOL   O10339897   2.911   5.834   7.006  0.1746 -0.0166 -0.1402
  198MOL   C10439898   2.999   5.801   6.775  0.1296  0.4425 -0.0437
  198MOL   C10539899   2.975   5.951   6.747  0.1095 -0.3236  0.3031
  198MOL   N10639900   2.834   6.002   6.760 -0.1146 -0.0246 -0.2277
  198MOL   H10739901   2.931   5.745   6.711  3.0985 -2.7604 -0.5388
  198MOL   H10839902   3.096   5.767   6.737  0.5597  1.5490  0.0427
  198MOL   H10939903   3.048   6.011   6.802  0.0740  0.8780 -0.9281
  198MOL   H11039904   3.010   5.961   6.644  1.4422 -1.2892  0.6341
  198MOL   H11139905   2.805   6.033   6.851 -0.8462 -1.6224  0.0863
  198MOL   C11239906   2.755   6.029   6.659 -0.4010  0.3432 -0.1524
  198MOL   O11339907   2.789   6.014   6.542 -0.2873  0.0092  0.5440
  198MOL   C11439908   2.620   6.085   6.700  0.0948 -0.5270  0.3144
  198MOL   C11539909   2.502   6.070   6.604  0.7312 -0.5684 -0.3483
  198MOL   N11639910   2.378   6.149   6.623 -0.8272  0.1045  0.4926
  198MOL   H11739911   2.626   6.191   6.727  0.7292 -0.6927  0.8316
  198MOL   H11839912   2.583   6.051   6.796  1.1294  2.5701  1.8840
  198MOL   H11939913   2.536   6.103   6.506 -1.3856  2.7464 -0.0564
  198MOL   H12039914   2.480   5.963   6.598 -3.3460  0.0829  0.9892
  198MOL   H12139915   2.366   6.205   6.705  0.9139 -0.6241  1.2650
  198MOL   C12239916   2.268   6.139   6.541  0.7926  0.4988 -1.2013
  198MOL   O12339917   2.267   6.058   6.452  0.5806  0.0244  0.3218
  198MOL   C12439918   2.148   6.227   6.560  0.2108  0.2189 -0.2422
  198MOL   C12539919   2.047   6.227   6.442 -0.8476 -0.0592  0.0880
  198MOL   N12639920   1.917   6.285   6.484 -0.0991  0.0061  0.9026
  198MOL   H12739921   2.194   6.326   6.562  0.1145  0.2828 -0.9813
  198MOL   H12839922   2.098   6.201   6.653  0.2855 -0.4016 -0.3765
  198MOL   H12939923   2.082   6.282   6.354 -1.2642 -0.5688 -0.3997
  198MOL   H13039924   2.029   6.128   6.400 -2.0778  0.3837 -0.4845
  198MOL   H13139925   1.864   6.222   6.542 -0.6906 -0.7047 -0.3986
  198MOL   C13239926   1.883   6.413   6.479  0.4769  0.2610  0.3475
  198MOL   O13339927   1.963   6.498   6.437 -0.0146  0.1030 -0.0917
  198MOL   C13439928   1.746   6.453   6.535  0.2503  0.4179 -0.4380
  198MOL   C13539929   1.690   6.579   6.484 -0.1896 -0.4421 -0.3386
  198MOL   N13639930   1.755   6.689   6.550  0.3102  0.5949  0.0390
  198MOL   H13739931   1.762   6.464   6.642 -1.1956 -1.1127 -0.0528
  198MOL   H13839932   1.681   6.366   6.525  1.6862 -0.6792 -0.4592
  198MOL   H13939933   1.687   6.582   6.375 -1.5292  0.2961 -0.2951
  198MOL   H14039934   1.583   6.579   6.504 -0.2749 -0.5967 -0.7918
  198MOL   H14139935   1.809   6.747   6.487  0.5345 -0.7922 -1.0668
  198MOL   C14239936   1.743   6.717   6.683  0.4460  0.4422  0.4974
  198MOL   O14339937   1.662   6.668   6.755  0.1940 -0.0765 -0.1901
  198MOL   C14439938   1.854   6.797   6.738  0.0973 -0.2619  0.0571
  198MOL   C14539939   1.811   6.932   6.793 -0.6429  0.2242  0.1479
  198MOL   N14639940   1.778   7.041   6.697  0.2285 -0.0352  0.0738
  198MOL   H14739941   1.937   6.804   6.667 -0.1766  1.6670 -0.0815
  198MOL   H14839942   1.911   6.741   6.813 -0.6645 -1.0452  0.0583
  198MOL   H14939943   1.718   6.920   6.849 -0.6874 -1.9053 -0.3415
  198MOL   H15039944   1.888   6.975   6.857 -0.0048  0.6478 -0.8868
  198MOL   H15139945   1.683   7.071   6.681  0.5307  0.2265 -1.2364
  198MOL   C15239946   1.875   7.099   6.629  0.1496  1.2715  0.5324
  198MOL   O15339947   1.994   7.076   6.649  0.2676  0.5185 -0.1466
  198MOL   C15439948   1.833   7.195   6.519  0.4964 -0.2095  0.1733
  198MOL   C15539949   1.859   7.344   6.555 -0.0790 -0.0392  0.0363
  198MOL   N15639950   1.769   7.397   6.654  0.0563 -0.0975  0.1820
  198MOL   H15739951   1.732   7.178   6.482 -0.1792 -0.2800  1.9940
  198MOL   H15839952   1.895   7.169   6.433 -0.1214 -2.7516  0.4388
  198MOL   H15939953   1.957   7.373   6.592  0.1503 -0.8882  0.1166
  198MOL   H16039954   1.851   7.395   6.459  1.1413  0.4543  0.1838
  198MOL   H16139955   1.824   7.437   6.728 -0.7451 -0.1917  0.8359
  198MOL   C16239956   1.645   7.445   6.630  0.0913 -0.0665  0.1160
  198MOL   O16339957   1.589   7.421   6.523  0.5451  0.1228 -0.2723
  198MOL   C16439958   1.589   7.545   6.738  0.3153 -0.7589  0.2419
  198MOL   C16539959   1.509   7.655   6.673 -0.7845  0.1342  0.5656
  198MOL   N16639960   1.429   7.730   6.763 -0.0849 -0.0820 -0.2950
  198MOL   H16739961   1.677   7.573   6.795 -0.7639  1.3462  0.9301
  198MOL   H16839962   1.511   7.505   6.804  0.0265 -0.8857 -0.1747
  198MOL   H16939963   1.587   7.723   6.637 -0.6574  0.0717  0.7228
  198MOL   H17039964   1.445   7.617   6.593  1.5063 -0.3390 -1.1003
  198MOL   H17139965   1.348   7.681   6.797  0.4087 -0.3040  0.5614
  198MOL   C17239966   1.439   0.082   6.802  0.3353  0.3351  0.0231
  198MOL   O17339967   1.526   0.158   6.758  0.6893 -0.3393 -0.1481
  198MOL   C17439968   1.333   0.131   6.902 -0.5516 -0.3301  0.1637
  198MOL   C17539969   1.342   0.280   6.949  0.3442 -0.1360 -0.2730
  198MOL   N17639970   1.241   0.313   7.052  0.0962  0.4454  0.2227
  198MOL   H17739971   1.346   0.059   6.983  2.1345 -0.1866 -0.0860
  198MOL   H17839972   1.244   0.107   6.845 -0.9123  2.7078 -0.6405
  198MOL   H17939973   1.446   0.299   6.977  1.2577 -1.5152 -2.5726
  198MOL   H18039974   1.321   0.337   6.858 -0.4140 -3.3101 -2.1741
  198MOL   H18139975   1.183   0.233   7.073 -1.9799  1.2059 -2.2629
  198MOL   C18239976   1.198   0.432   7.086  0.0566 -0.2239 -1.0449
  198MOL   O18339977   1.262   0.531   7.054 -0.1946  0.0044 -0.0084
  198MOL   C18439978   1.079   0.444   7.186  0.0981 -0.2164 -0.1578
  198MOL   C18539979   1.082   0.584   7.257  0.1901 -0.5072  0.4102
  198MOL   N18639980   0.977   0.688   7.219 -0.5504  0.0307  0.2517
  198MOL   H18739981   1.080   0.361   7.256 -2.0243  1.0179  1.3781
  198MOL   H18839982   0.983   0.438   7.134 -0.5288  1.1026  0.8349
  198MOL   H18939983   1.073   0.567   7.364 -1.8794 -0.2326  0.2984
  198MOL   H19039984   1.171   0.642   7.232 -0.6626  0.6690  0.0155
  198MOL   H19139985   1.012   0.772   7.174 -0.3583 -1.4407 -2.4894
  198MOL   C19239986   0.848   0.676   7.236 -0.3669  0.2530 -0.5041
  198MOL   O19339987   0.796   0.578   7.292  0.1722  0.2326 -0.5865
  198MOL   C19439988   0.763   0.793   7.191  0.0617 -0.0927 -0.4104
  198MOL   C19539989   0.704   0.866   7.312  0.6254 -0.1762 -0.0685
  198MOL   N19639990   0.593   0.786   7.369 -0.6591 -0.0374  0.2664
  198MOL   H19739991   0.831   0.853   7.130 -1.2316  1.7645 -0.0794
  198MOL   H19839992   0.695   0.760   7.113  1.4910 -2.7725 -0.5558
  198MOL   H19939993   0.787   0.886   7.380  2.7171  0.7864 -2.7972
  198MOL   H20039994   0.660   0.962   7.287  0.0580 -0.5173 -0.3830
  198MOL   H20139995   0.559   0.824   7.456 -1.7577  0.7359 -0.4917
  198MOL   H20239996   0.625   0.691   7.382  3.3535  0.6802 -3.3829
  199MOL     C139997   3.303   4.005   5.975 -0.0168  1.1132  0.5920
  199MOL     O239998   3.295   4.054   6.087 -0.4488 -0.0569  0.1909
  199MOL     C339999   3.207   4.058   5.875  0.0857 -0.3023  0.1293
  199MOL     C440000   3.230   4.194   5.832 -0.0977 -0.3588  0.3318
  199MOL     N540001   3.356   4.226   5.762 -0.5124 -0.8347 -0.6256
  199MOL     H640002   3.119   4.040   5.937  1.1708  0.9109  2.0507
  199MOL     H740003   3.204   3.983   5.796 -0.0277 -0.6628  0.4716
  199MOL     H840004   3.225   4.258   5.920 -0.4566 -0.2279  0.2190
  199MOL     H940005   3.140   4.215   5.773  1.2083 -1.1128 -2.0007
  199MOL    H1040006   3.423   4.286   5.806 -0.8926 -1.9339  1.4943
  199MOL    H1140007   3.386   3.942   5.943 -0.8172 -0.3477  1.3604
  199MOL    C1240008   3.402   4.174   5.647  0.0073  0.8372  0.0688
  199MOL    O1340009   3.338   4.088   5.591 -0.4565  0.5151  0.5228
  199MOL    C1440010   3.531   4.228   5.587  0.1442 -0.1370 -0.0959
  199MOL    C1540011   3.514   4.288   5.445  0.5403  0.3545  0.5909
  199MOL    N1640012   3.435   4.409   5.447  0.0350  0.4296 -0.4769
  199MOL    H1740013   3.603   4.147   5.594  0.6023  0.1279 -1.6309
  199MOL    H1840014   3.570   4.310   5.648  1.9762  1.3830 -3.1933
  199MOL    H1940015   3.607   4.295   5.387 -0.2550 -0.5704 -0.8271
  199MOL    H2040016   3.458   4.212   5.390  1.5003  1.7783 -2.4993
  199MOL    H2140017   3.480   4.497   5.469  2.7003 -0.7101 -1.1785
  199MOL    C2240018   3.306   4.428   5.408  0.0797  0.4684 -0.6176
  199MOL    O2340019   3.243   4.338   5.351 -0.6965 -0.4814  0.0137
  199MOL    C2440020   3.250   4.562   5.429  0.3677 -1.0166 -0.5079
  199MOL    C2540021   3.242   4.618   5.572  0.4983  0.2837 -0.4793
  199MOL    N2640022   3.115   4.589   5.632  0.1395 -0.2368 -0.4597
  199MOL    H2740023   3.143   4.552   5.409 -0.0846  1.3560  0.5721
  199MOL    H2840024   3.279   4.637   5.356 -0.4068  0.4232  0.6161
  199MOL    H2940025   3.312   4.567   5.638  1.0833 -0.4363 -1.6271
  199MOL    H3040026   3.284   4.718   5.559  1.1467  0.1891  0.8775
  199MOL    H3140027   3.075   4.498   5.615 -1.4073  0.1383  1.0156
  199MOL    C3240028   3.050   4.664   5.726  0.2360 -0.5280  0.0101
  199MOL    O3340029   3.096   4.764   5.780  0.3227  0.0370 -0.5525
  199MOL    C3440030   2.914   4.607   5.757  0.5359  0.0958  0.6055
  199MOL    C3540031   2.803   4.705   5.812  0.0189  0.5610  0.5065
  199MOL    N3640032   2.685   4.644   5.873 -0.0060 -0.2869 -0.1026
  199MOL    H3740033   2.921   4.521   5.824  0.7209  0.3860  0.9632
  199MOL    H3840034   2.872   4.576   5.661 -0.5266 -0.6191  1.2897
  199MOL    H3940035   2.850   4.766   5.888 -0.8871  0.3273  1.2648
  199MOL    H4040036   2.774   4.777   5.735 -0.1533 -3.1817 -3.1147
  199MOL    H4140037   2.593   4.675   5.844 -0.2822  0.3598  1.4123
  199MOL    C4240038   2.691   4.564   5.980  0.5598 -0.7873  0.0909
  199MOL    O4340039   2.798   4.542   6.037  0.4135  0.2683  0.6027
  199MOL    C4440040   2.562   4.507   6.030  0.5666  0.0771  0.0461
  199MOL    C4540041   2.572   4.356   6.036 -0.3283  0.2004  0.4299
  199MOL    N4640042   2.594   4.307   6.171 -0.4529 -0.4022 -0.1705
  199MOL    H4740043   2.525   4.559   6.119 -0.1077  3.2801 -2.0220
  199MOL    H4840044   2.488   4.532   5.954 -2.9199 -1.3361  2.7867
  199MOL    H4940045   2.495   4.295   5.988  1.7191 -2.4869  0.4338
  199MOL    H5040046   2.663   4.322   5.985 -1.7541 -2.0535 -0.6771
  199MOL    H5140047   2.693   4.304   6.193 -0.2881  0.0595 -0.8499
  199MOL    C5240048   2.508   4.261   6.255  0.3750 -0.3233 -0.2105
  199MOL    O5340049   2.386   4.257   6.229  0.3320  0.7713  0.6240
  199MOL    C5440050   2.553   4.201   6.386  0.4872 -0.1340 -0.2916
  199MOL    C5540051   2.533   4.289   6.515 -0.3834  0.1765 -0.3147
  199MOL    N5640052   2.593   4.423   6.516  0.3462 -0.1152 -1.1017
  199MOL    H5740053   2.482   4.119   6.398 -0.6396  0.5072 -2.3845
  199MOL    H5840054   2.650   4.156   6.364  0.7016  0.6208 -0.9040
  199MOL    H5940055   2.568   4.234   6.602  1.7057  0.4124 -0.9688
  199MOL    H6040056   2.427   4.302   6.536 -0.2111  1.4257 -0.1739
  199MOL    H6140057   2.530   4.500   6.536  0.5577 -0.2927  0.3135
  199MOL    C6240058   2.718   4.457   6.479  0.6299 -0.4660 -0.0597
  199MOL    O6340059   2.793   4.376   6.424  0.3764  0.1049 -0.0177
  199MOL    C6440060   2.758   4.602   6.502 -0.0096  0.2497 -0.1287
  199MOL    C6540061   2.885   4.613   6.593  0.1116  0.4888  0.1442
  199MOL    N6640062   2.852   4.625   6.736 -0.3076 -0.2125  0.1605
  199MOL    H6740063   2.781   4.646   6.405 -0.0145 -0.3854 -0.4202
  199MOL    H6840064   2.680   4.668   6.542 -1.1331 -1.0194 -0.2148
  199MOL    H6940065   2.953   4.530   6.573 -0.7824 -0.9950  3.0720
  199MOL    H7040066   2.939   4.703   6.564 -0.0662  0.6686  0.3731
  199MOL    H7140067   2.870   4.553   6.805  0.5651  1.3256  1.5681
  199MOL    C7240068   2.820   4.742   6.791  0.2449 -0.1029  0.2276
  199MOL    O7340069   2.810   4.843   6.721 -0.2761 -0.0910 -0.7353
  199MOL    C7440070   2.777   4.749   6.945  0.0428 -0.2024  1.1868
  199MOL    C7540071   2.622   4.751   6.957  0.6120  1.3542  0.0338
  199MOL    N7640072   2.549   4.752   7.085  0.2070 -0.5306  0.0623
  199MOL    H7740073   2.822   4.659   6.986  0.0994 -0.6943  0.0541
  199MOL    H7840074   2.820   4.834   6.998 -1.0396  1.5452 -0.6635
  199MOL    H7940075   2.594   4.849   6.917 -0.7723  1.1824  0.5859
  199MOL    H8040076   2.584   4.675   6.890 -1.3714 -0.7509  3.3969
  199MOL    H8140077   2.603   4.775   7.167  2.1373  0.5961 -1.4701
  199MOL    C8240078   2.424   4.704   7.091  0.0127 -0.0130  0.1121
  199MOL    O8340079   2.361   4.658   6.992 -0.2585  0.0532 -0.3189
  199MOL    C8440080   2.353   4.714   7.220  0.2695 -0.4579 -0.1348
  199MOL    C8540081   2.207   4.683   7.211 -0.4204  0.7572  0.3928
  199MOL    N8640082   2.127   4.706   7.336  0.1321  0.0496  0.3689
  199MOL    H8740083   2.399   4.640   7.286  0.3035  0.0339  0.3941
  199MOL    H8840084   2.356   4.815   7.259 -1.0146 -0.7614  0.8047
  199MOL    H8940085   2.155   4.720   7.122 -0.9841 -0.9839 -0.0336
  199MOL    H9040086   2.206   4.574   7.201 -1.5665  0.8523 -0.6620
  199MOL    H9140087   2.175   4.753   7.412 -0.9580 -0.7887  1.5947
  199MOL    C9240088   1.997   4.671   7.358 -0.0604  0.3299  0.7467
  199MOL    O9340089   1.935   4.631   7.259 -0.5540  0.4869  0.0541
  199MOL    C9440090   1.940   4.691   7.501  0.0769 -0.3611  0.2425
  199MOL    C9540091   1.811   4.772   7.509 -0.6739 -0.4784 -0.2105
  199MOL    N9640092   1.742   4.763   7.634 -0.8957  0.3374 -0.4137
  199MOL    H9740093   1.925   4.590   7.538 -4.4793 -0.6182 -2.0099
  199MOL    H9840094   2.007   4.748   7.566  1.9305 -3.3542  1.0206
  199MOL    H9940095   1.829   4.879   7.497 -2.3658 -0.2605 -0.9586
  199MOL   H10040096   1.749   4.747   7.422  0.5828 -1.3515 -0.8720
  199MOL   H10140097   1.767   4.831   7.705 -1.2894  0.9281 -0.8376
  199MOL   C10240098   1.658   4.676   7.675 -0.5465 -0.2859 -0.1298
  199MOL   O10340099   1.614   4.588   7.604 -0.2224  0.4595  0.2030
  199MOL   C10440100   1.619   4.695   0.042  0.3808  0.9317  0.1504
  199MOL   C10540101   1.673   4.579   0.131 -0.2880 -0.0026 -0.1052
  199MOL   N10640102   1.614   4.449   0.101 -0.0878  0.2094 -0.3148
  199MOL   H10740103   1.510   4.695   0.042  0.3800  1.3358  0.7149
  199MOL   H10840104   1.644   4.793   0.083 -0.7556  0.8742  1.0108
  199MOL   H10940105   1.778   4.572   0.103 -0.9095  0.3937 -2.6242
  199MOL   H11040106   1.675   4.612   0.235 -3.1164 -0.8121  0.2345
  199MOL   H11140107   1.546   4.440   0.027 -0.3024  1.8434 -0.3352
  199MOL   C11240108   1.626   4.344   0.183 -0.5886 -0.3191 -0.2939
  199MOL   O11340109   1.675   4.351   0.297  0.2075 -0.2306  0.0883
  199MOL   C11440110   1.559   4.215   0.135  0.2471 -0.4646 -0.2944
  199MOL   C11540111   1.654   4.090   0.146  0.6053  0.1620 -0.3531
  199MOL   N11640112   1.592   3.975   0.084  0.4429  0.0147  1.4435
  199MOL   H11740113   1.531   4.232   0.032 -0.5713  0.9997  0.1577
  199MOL   H11840114   1.459   4.193   0.174  0.3493 -0.8562 -0.2474
  199MOL   H11940115   1.749   4.098   0.093  0.9832  0.2841  0.3397
  199MOL   H12040116   1.682   4.073   0.250  1.6900  0.6523 -0.5522
  199MOL   H12140117   1.536   3.923   0.150  0.0512  0.2372  1.2822
  199MOL   C12240118   1.589   3.927   7.738  0.1988 -0.5889  0.0107
  199MOL   O12340119   1.642   3.986   7.643  0.3863 -0.4241  0.3451
  199MOL   C12440120   1.527   3.787   7.713  0.2409 -0.6243  0.7182
  199MOL   C12540121   1.594   3.671   0.011 -0.6894 -0.5377 -0.7708
  199MOL   N12640122   1.701   3.607   7.706  0.3766 -0.1371  0.3156
  199MOL   H12740123   1.533   3.755   7.609  1.4443  3.0876 -0.4303
  199MOL   H12840124   1.421   3.795   7.738  0.2725 -2.1660  1.4448
  199MOL   H12940125   1.641   3.706   0.103  1.0120 -1.1680 -1.3635
  199MOL   H13040126   1.519   3.593   0.024 -2.5437  1.5292  1.3671
  199MOL   H13140127   1.669   3.531   7.647  1.4402 -1.0504  0.9103
  199MOL   C13240128   1.832   3.612   7.721  0.0820 -0.8243  0.1340
  199MOL   O13340129   1.889   3.677   0.029 -0.2441  0.6854  0.2589
  199MOL   C13440130   1.914   3.534   7.617 -1.1642 -0.6138 -0.6069
  199MOL   C13540131   1.928   3.607   7.476  0.3277  0.0252 -0.0143
  199MOL   N13640132   1.808   3.648   7.413  0.4364  0.1231  0.2727
  199MOL   H13740133   1.862   3.438   7.619 -1.2280 -0.5430  2.2348
  199MOL   H13840134   2.009   3.514   7.665 -1.7737 -1.1974  0.3764
  199MOL   H13940135   1.993   3.692   7.499 -2.1660  2.0563 -0.2185
  199MOL   H14040136   1.980   3.545   7.403  0.2121 -2.4307  1.9174
  199MOL   H14140137   1.741   3.572   7.414 -0.6869  1.0696 -0.6965
  199MOL   C14240138   1.785   3.768   7.358  0.2549 -0.3584  0.2931
  199MOL   O14340139   1.874   3.858   7.353  0.1245  0.1870 -0.1944
  199MOL   C14440140   1.638   3.787   7.314 -0.1920  0.0786 -0.4410
  199MOL   C14540141   1.608   3.916   7.232  0.2010  0.4518 -0.2855
  199MOL   N14640142   1.626   4.030   7.320  0.5775  0.1053 -0.7561
  199MOL   H14740143   1.580   3.786   7.407  0.7744 -0.4092  0.1558
  199MOL   H14840144   1.613   3.700   7.254  0.1722 -0.3961  0.1011
  199MOL   H14940145   1.682   3.924   7.152  1.7596 -1.9920  0.8717
  199MOL   H15040146   1.507   3.906   7.192  0.0561 -2.0958  0.6394
  199MOL   H15140147   1.716   4.034   7.367  0.3210 -0.7157 -0.1786
  199MOL   C15240148   1.537   4.125   7.342 -0.2316 -0.2798 -0.3237
  199MOL   O15340149   1.426   4.125   7.286  0.0454 -0.1288 -0.4214
  199MOL   C15440150   1.577   4.233   7.438 -0.5870 -0.0602  0.2757
  199MOL   C15540151   1.629   4.357   7.360  0.4747  0.1812  0.4311
  199MOL   N15640152   1.772   4.342   7.341 -0.4889 -0.7290 -0.2889
  199MOL   H15740153   1.649   4.201   7.513 -0.0677 -0.2973 -0.3143
  199MOL   H15840154   1.483   4.245   7.491 -1.0683  2.5498 -1.0806
  199MOL   H15940155   1.577   4.360   7.264 -0.6044  1.2498  1.0417
  199MOL   H16040156   1.607   4.454   7.405 -1.7427 -0.9996  1.9851
  199MOL   H16140157   1.833   4.377   7.414 -0.7117 -1.2855  0.1702
  199MOL   C16240158   1.825   4.304   7.226  0.1630 -0.3104  0.1220
  199MOL   O16340159   1.756   4.267   7.131  0.1752  0.5714 -0.2067
  199MOL   C16440160   1.980   4.295   7.222 -0.1224 -0.0008 -0.4944
  199MOL   C16540161   2.036   4.151   7.205  0.1524  0.3058  0.0430
  199MOL   N16640162   1.980   4.081   7.085 -0.4530 -0.0821 -0.1788
  199MOL   H16740163   2.018   4.342   7.313 -2.1089 -0.3340  0.5451
  199MOL   H16840164   2.026   4.351   7.141  0.6895 -0.3017 -0.2485
  199MOL   H16940165   2.145   4.156   7.205  0.0593  2.3918  0.1680
  199MOL   H17040166   2.014   4.098   7.298  1.2819  0.1183  0.2162
  199MOL   H17140167   1.900   4.126   7.043  0.1925 -0.3941 -1.7663
  199MOL   C17240168   2.036   3.986   7.020  0.6210  0.1601  0.2583
  199MOL   O17340169   2.151   3.941   7.042 -0.0716  0.2661 -0.1974
  199MOL   C17440170   1.951   3.930   6.901  0.0145 -0.0275 -0.1324
  199MOL   C17540171   2.034   3.882   6.777  0.7488 -0.3007 -0.0454
  199MOL   N17640172   2.111   3.982   6.705  0.1684  0.2643  0.2459
  199MOL   H17740173   1.887   4.007   6.858  1.1662 -0.2815 -2.3810
  199MOL   H17840174   1.894   3.842   6.930  1.5924 -1.2189 -0.5742
  199MOL   H17940175   2.100   3.800   6.806  0.7977 -0.1867  0.1664
  199MOL   H18040176   1.978   3.821   6.706  4.4083 -2.0533 -1.6088
  199MOL   H18140177   2.118   4.076   6.740  1.1490  0.3472 -0.1615
  199MOL   C18240178   2.151   3.965   6.584  0.0870 -0.0566  0.7886
  199MOL   O18340179   2.142   3.859   6.521  0.0924  0.5876 -0.2662
  199MOL   C18440180   2.214   4.077   6.512 -1.0963  0.2914 -0.4279
  199MOL   C18540181   2.114   4.188   6.481  0.3718  0.3851 -0.0688
  199MOL   N18640182   2.176   4.303   6.422  0.1212 -0.2534 -0.1202
  199MOL   H18740183   2.257   4.041   6.418  0.4715  0.0719  0.3657
  199MOL   H18840184   2.289   4.119   6.578 -0.7694  0.8839 -1.1672
  199MOL   H18940185   2.044   4.160   6.403 -1.4382  1.5827  1.0935
  199MOL   H19040186   2.054   4.218   6.567  1.4937  4.3128 -0.5547
  199MOL   H19140187   2.255   4.274   6.366 -0.8968 -1.5323 -0.9328
  199MOL   C19240188   2.140   4.430   6.426 -0.2569  0.4111 -0.2705
  199MOL   O19340189   2.035   4.468   6.477  0.4384  0.1575 -0.5672
  199MOL   C19440190   2.244   4.527   6.372  0.1570  0.2074  0.9206
  199MOL   C19540191   2.283   4.642   6.463  0.4048  0.1221 -0.6092
  199MOL   N19640192   2.366   4.599   6.578 -0.2447  0.0032  0.4179
  199MOL   H19740193   2.337   4.475   6.349 -0.2009  0.9042 -2.2900
  199MOL   H19840194   2.208   4.557   6.274  1.2665 -2.8248 -0.4610
  199MOL   H19940195   2.324   4.724   6.404 -0.7301  0.7707 -0.4898
  199MOL   H20040196   2.199   4.692   6.509  0.4081  1.0087 -1.5456
  199MOL   H20140197   2.330   4.521   6.630 -0.3890 -1.7849 -2.2389
  199MOL   H20240198   2.349   4.673   6.645 -1.6910 -0.6414  0.7859
  200MOL     C140199   1.019   6.656   7.169 -0.2381 -0.5225 -0.2856
  200MOL     O240200   0.914   6.682   7.229  0.3691 -0.3864 -0.1544
  200MOL     C340201   1.060   6.513   7.132  0.3754 -0.4025 -0.1122
  200MOL     C440202   1.031   6.421   7.254  0.8878  0.1768 -0.4091
  200MOL     N540203   1.142   6.407   7.344 -0.3269 -0.0809 -0.4082
  200MOL     H640204   1.162   6.504   7.095  0.2444  1.1531 -0.8674
  200MOL     H740205   0.992   6.494   7.049 -1.3280  1.2101  0.8813
  200MOL     H840206   1.010   6.323   7.212  0.7597  0.8054 -1.8372
  200MOL     H940207   0.940   6.450   7.306 -0.8330 -1.0602 -2.6256
  200MOL    H1040208   1.122   6.435   7.440  0.5947 -0.4801 -0.0920
  200MOL    H1140209   1.077   6.740   7.130 -1.0275 -1.4998 -3.8165
  200MOL    C1240210   1.269   6.361   7.311  0.2934  0.1578 -0.0394
  200MOL    O1340211   1.286   6.309   7.199  0.4038 -0.4704 -0.4725
  200MOL    C1440212   1.380   6.364   7.416 -0.2438  0.0737  0.1925
  200MOL    C1540213   1.525   6.376   7.356  0.2073  0.3614 -0.0494
  200MOL    N1640214   1.561   6.516   7.326 -0.2171 -0.2350  0.2384
  200MOL    H1740215   1.389   6.267   7.466  1.8186  0.3645  0.4342
  200MOL    H1840216   1.364   6.435   7.497 -2.2231 -2.0637  1.7759
  200MOL    H1940217   1.598   6.338   7.428 -0.4720  2.4848  1.8339
  200MOL    H2040218   1.544   6.308   7.273 -0.6439  0.5367 -0.3880
  200MOL    H2140219   1.581   6.577   7.404 -2.1684  0.4714  0.2135
  200MOL    C2240220   1.567   6.570   7.207  0.1503 -0.1426  0.3790
  200MOL    O2340221   1.549   6.510   7.098  0.3171  0.3692 -0.1191
  200MOL    C2440222   1.627   6.714   7.214 -0.4739  0.3697  0.0657
  200MOL    C2540223   1.738   6.743   7.107  0.4337 -0.5272 -0.0565
  200MOL    N2640224   1.810   6.880   7.125  0.2038  0.0870 -0.1594
  200MOL    H2740225   1.667   6.728   7.314 -4.2969  3.4521  1.2412
  200MOL    H2840226   1.538   6.775   7.205 -1.2848 -0.7527  0.4640
  200MOL    H2940227   1.807   6.661   7.127  2.3771  0.9794 -0.3885
  200MOL    H3040228   1.696   6.738   7.007  0.8862 -1.0085 -0.2260
  200MOL    H3140229   1.770   6.970   7.101 -0.3020  0.4572  1.9797
  200MOL    C3240230   1.931   6.884   7.173 -0.1642 -0.2222  0.3165
  200MOL    O3340231   1.993   6.784   7.207  0.4101  0.2602  0.4350
  200MOL    C3440232   2.005   7.012   7.170 -0.0181  0.0899 -0.2878
  200MOL    C3540233   2.153   7.003   7.211 -0.2239  0.2025  0.1857
  200MOL    N3640234   2.169   7.028   7.354 -0.7886  0.1777 -0.3065
  200MOL    H3740235   1.945   7.080   7.231  0.6736  0.0479  0.4553
  200MOL    H3840236   2.009   7.042   7.065  1.2505 -1.8147 -0.8032
  200MOL    H3940237   2.198   6.906   7.190 -0.5634  0.3645 -1.2944
  200MOL    H4040238   2.219   7.063   7.148  1.1727 -0.9055  0.5675
  200MOL    H4140239   2.177   6.949   7.417 -0.8305  1.1672  0.9578
  200MOL    C4240240   2.169   7.151   7.415 -0.2101  0.4025  0.6064
  200MOL    O4340241   2.139   7.254   7.352 -0.1040  0.4330  0.1623
  200MOL    C4440242   2.193   7.157   7.565 -0.5590 -0.2266  0.2835
  200MOL    C4540243   2.268   7.283   7.616  0.0961 -0.4562 -0.4503
  200MOL    N4640244   2.403   7.263   7.618 -0.5046 -0.0486 -0.1263
  200MOL    H4740245   2.091   7.156   7.603 -1.9060 -1.6483 -3.1474
  200MOL    H4840246   2.234   7.065   7.607  0.7879 -0.4137 -1.3821
  200MOL    H4940247   2.247   7.371   7.556 -0.0414 -0.8101 -0.9191
  200MOL    H5040248   2.242   7.294   7.722  0.9862 -2.3584 -0.0257
  200MOL    H5140249   2.437   7.189   7.678  0.2999 -0.1946 -0.7652
  200MOL    C5240250   2.491   7.350   7.578 -0.4517 -0.5979  0.2632
  200MOL    O5340251   2.467   7.457   7.519  0.1482 -0.0846  0.1754
  200MOL    C5440252   2.639   7.310   7.606  0.0041 -0.2597  0.2741
  200MOL    C5540253   2.732   7.415   7.688  0.4708  0.6278 -0.0264
  200MOL    N5640254   2.874   7.378   7.698 -1.2438  0.0688  0.3924
  200MOL    H5740255   2.636   7.223   7.671  1.5541 -0.5439 -0.0199
  200MOL    H5840256   2.693   7.265   7.523 -3.5640 -1.2842 -1.5916
  200MOL    H5940257   2.683   7.409   0.005 -2.2423 -2.8994 -1.4890
  200MOL    H6040258   2.717   7.520   7.664  1.3364  0.1552 -2.7867
  200MOL    H6140259   2.929   7.418   7.623 -0.5877 -1.2271  0.1723
  200MOL    C6240260   2.927   7.288   0.000  0.2666 -0.4473 -0.2402
  200MOL    O6340261   2.867   7.243   0.095 -0.3401  0.0772  0.0281
  200MOL    C6440262   3.069   7.238   7.760  0.4677  0.4179  1.0094
  200MOL    C6540263   3.158   7.244   0.103  1.0671  0.2036 -0.7005
  200MOL    N6640264   3.302   7.233   0.079 -0.2907 -0.1467  0.0838
  200MOL    H6740265   3.060   7.135   7.728  1.0313  0.8313 -0.5372
  200MOL    H6840266   3.116   7.285   7.673 -2.1873 -1.3451 -1.4821
  200MOL    H6940267   3.135   7.339   0.151  3.0509 -0.0162  0.7591
  200MOL    H7040268   3.122   7.168   0.171  2.6216 -1.5002 -1.7379
  200MOL    H7140269   3.353   7.302   0.025  0.2250 -0.5292  0.0734
  200MOL    C7240270   3.379   7.134   0.123  0.3054  0.2093  0.3005
  200MOL    O7340271   3.338   7.041   0.190  0.3183 -0.0804  0.5499
  200MOL    C7440272   3.532   7.145   0.088 -0.2505 -0.0474  0.1052
  200MOL    C7540273   3.590   7.012   0.033  0.1877 -0.1918 -0.1386
  200MOL    N7640274   3.503   6.975   7.696 -0.3688  0.1224  0.0057
  200MOL    H7740275   3.551   7.238   0.034  1.0505  0.3212  1.1741
  200MOL    H7840276   3.590   7.161   0.178  1.5154  0.5706 -1.1017
  200MOL    H7940277   3.698   7.021   0.023  0.2660 -0.5117  0.3729
  200MOL    H8040278   3.574   6.938   0.112 -2.2215 -2.2867 -2.4509
  200MOL    H8140279   3.431   6.905   7.705 -1.9931  1.9636  2.1490
  200MOL    C8240280   3.515   7.033   7.582 -0.1532  0.0047 -1.0495
  200MOL    O8340281   3.582   7.133   7.559  0.1592 -0.1499  0.5949
  200MOL    C8440282   3.416   6.985   7.475  0.1931  0.3717  0.1738
  200MOL    C8540283   3.272   7.036   7.490 -0.2612  1.0806 -0.2928
  200MOL    N8640284   3.258   7.167   7.429 -0.2697 -0.1513  0.1779
  200MOL    H8740285   3.454   7.022   7.380  0.9699  1.2741  0.8281
  200MOL    H8840286   3.405   6.877   7.468 -1.8678  0.5226  0.6721
  200MOL    H8940287   3.202   6.962   7.451  1.0691  0.0902 -0.8267
  200MOL    H9040288   3.249   7.048   7.596  2.2887  1.6237  0.2327
  200MOL    H9140289   3.310   7.242   7.471 -0.8851  0.0888  0.5153
  200MOL    C9240290   3.200   7.191   7.312 -0.5617 -0.4747  0.3654
  200MOL    O9340291   3.137   7.108   7.248  0.3071  0.1140 -0.0946
  200MOL    C9440292   3.232   7.327   7.241  0.0182  0.0120  0.6218
  200MOL    C9540293   3.159   7.352   7.108 -0.5741  0.1840 -0.2806
  200MOL    N9640294   3.170   7.494   7.077 -0.0309  0.4093  0.1177
  200MOL    H9740295   3.198   7.399   7.316 -2.5873 -1.6408  1.1036
  200MOL    H9840296   3.340   7.328   7.226  0.0649 -0.2232  0.9229
  200MOL    H9940297   3.206   7.294   7.029  1.3276 -0.2833  1.1702
  200MOL   H10040298   3.054   7.326   7.120  0.0165 -2.5227 -0.7818
  200MOL   H10140299   3.196   7.560   7.150  2.6750 -0.2548 -0.2216
  200MOL   C10240300   3.154   7.546   6.954 -0.1005 -0.1286 -0.5094
  200MOL   O10340301   3.117   7.481   6.855 -0.1469 -0.1104 -0.6649
  200MOL   C10440302   3.184   7.692   6.941 -0.1128  0.6102  0.4586
  200MOL   C10540303   3.269   7.726   6.817 -0.2512  0.3867  0.3725
  200MOL   N10640304   3.282   0.090   6.788  0.6325  0.1353 -0.7559
  200MOL   H10740305   3.230   7.721   7.035 -0.2817 -0.5646  0.9138
  200MOL   H10840306   3.084   7.736   6.947 -0.6007 -0.4668  0.4065
  200MOL   H10940307   3.365   7.674   6.820 -0.7683 -0.6271 -0.2823
  200MOL   H11040308   3.221   7.687   6.727  0.2715  0.0392  0.2430
  200MOL   H11140309   3.239   0.147   6.858  0.2408 -0.3994 -0.5553
  200MOL   C11240310   3.358   0.136   6.692  0.3730  1.0023 -0.1016
  200MOL   O11340311   3.420   0.058   6.623 -0.1190 -0.5201 -0.5251
  200MOL   C11440312   3.372   0.292   6.677 -0.3219  0.4147  0.5824
  200MOL   C11540313   3.331   0.358   6.542  0.0112  0.5174  0.5324
  200MOL   N11640314   3.227   0.460   6.559  0.2955  0.0324 -0.4477
  200MOL   H11740315   3.479   0.294   6.695  0.2808 -0.0961 -2.6157
  200MOL   H11840316   3.316   0.333   6.762  1.0969  2.9592  0.3466
  200MOL   H11940317   3.419   0.415   6.512 -0.1361  1.0398  1.0793
  200MOL   H12040318   3.310   0.279   6.470  0.0924  0.6390  0.3732
  200MOL   H12140319   3.164   0.431   6.632  2.1995 -4.3387 -0.4077
  200MOL   C12240320   3.209   0.567   6.486  0.0379  0.4449 -0.3299
  200MOL   O12340321   3.273   0.586   6.385  0.1839  0.8224  0.5814
  200MOL   C12440322   3.098   0.670   6.521  0.3670  0.0195  0.0047
  200MOL   C12540323   3.150   0.794   6.589 -0.0963 -0.5387  0.0234
  200MOL   N12640324   3.179   0.766   6.729  0.1290 -0.7681 -0.0904
  200MOL   H12740325   3.013   0.632   6.579 -0.7723  0.2773 -1.4709
  200MOL   H12840326   3.048   0.698   6.429 -0.3112  1.1435  0.6986
  200MOL   H12940327   3.241   0.826   6.537 -1.3565 -1.8894 -3.1049
  200MOL   H13040328   3.074   0.872   6.598  0.2247 -0.1195 -0.7888
  200MOL   H13140329   3.270   0.797   6.761 -0.4572  0.2058  0.6830
  200MOL   C13240330   3.093   0.735   6.828 -0.7104 -0.8737 -0.2507
  200MOL   O13340331   2.970   0.724   6.811 -0.2647 -0.1446  0.1042
  200MOL   C13440332   3.159   0.718   6.966 -0.4031  0.7207 -0.0752
  200MOL   C13540333   3.271   0.601   6.961 -0.5844  0.4511 -0.3536
  200MOL   N13640334   3.269   0.513   7.078 -0.2265  0.0910 -0.2731
  200MOL   H13740335   3.080   0.717   7.041 -0.1056 -2.0218  0.2230
  200MOL   H13840336   3.192   0.820   6.988 -2.0741  0.9518  1.4707
  200MOL   H13940337   3.263   0.537   6.873 -0.7490  0.7143 -0.5315
  200MOL   H14040338   3.375   0.632   6.958 -0.1278 -1.1023 -0.9581
  200MOL   H14140339   3.200   0.535   7.149 -0.6221 -0.7188 -0.4022
  200MOL   C14240340   3.344   0.405   7.096 -0.1066 -0.0679 -0.3468
  200MOL   O14340341   3.435   0.374   7.023  0.3505 -0.5121 -0.0521
  200MOL   C14440342   3.336   0.330   7.230 -0.7977  0.0812 -0.4794
  200MOL   C14540343   3.277   0.192   7.216 -0.6956  0.2912  0.3765
  200MOL   N14640344   3.228   0.145   7.348 -0.4787  0.2003  0.5811
  200MOL   H14740345   3.282   0.389   7.305  2.9011  2.9353  0.1085
  200MOL   H14840346   3.436   0.330   7.272 -1.2462  0.1883  0.6187
  200MOL   H14940347   3.195   0.190   7.144 -1.1545  0.9438  0.8699
  200MOL   H15040348   3.346   0.117   7.177 -0.8324 -0.0474  0.7806
  200MOL   H15140349   3.253   0.196   7.432 -1.9362  1.5002  0.2396
  200MOL   C15240350   3.195   0.018   7.363 -0.2268  0.2244  0.4962
  200MOL   O15340351   3.196   7.712   7.273  1.1603 -0.5165 -0.3888
  200MOL   C15440352   3.157   7.755   7.506  0.6928 -0.0177  0.3158
  200MOL   C15540353   3.077   7.631   7.511  0.5814 -0.3635 -0.4210
  200MOL   N15640354   2.945   7.649   7.453  0.2850  0.0894 -0.3831
  200MOL   H15740355   3.114   0.059   7.559  0.5379  0.1779 -0.1148
  200MOL   H15840356   3.247   7.735   7.564  0.6230  0.8204  0.7188
  200MOL   H15940357   3.130   7.546   7.469 -0.6437 -0.9523 -0.8074
  200MOL   H16040358   3.060   7.610   7.617  0.8676  0.8559 -0.1267
  200MOL   H16140359   2.899   7.738   7.467  2.0169  1.2963 -2.1282
  200MOL   C16240360   2.890   7.557   7.372  0.2241  0.4306 -0.0837
  200MOL   O16340361   2.933   7.441   7.358  0.3293  0.0391  0.0890
  200MOL   C16440362   2.761   7.610   7.299 -0.5533  0.4306 -0.3170
  200MOL   C16540363   2.763   7.585   7.148 -0.7792  0.2653 -0.1447
  200MOL   N16640364   2.644   7.643   7.085 -1.0004 -0.3394  0.2575
  200MOL   H16740365   2.772   7.718   7.307 -1.6045  0.5688 -0.7105
  200MOL   H16840366   2.671   7.586   7.354 -0.4995  0.5813 -0.1624
  200MOL   H16940367   2.855   7.631   7.111 -1.2175  0.9371 -0.3925
  200MOL   H17040368   2.769   7.477   7.132  0.6636 -0.2077  3.1167
  200MOL   H17140369   2.559   7.592   7.066 -0.1670 -0.8370 -2.4433
  200MOL   C17240370   2.639   7.770   7.059 -0.1536 -0.1495 -0.2571
  200MOL   O17340371   2.736   0.063   7.070 -0.1753 -0.2774 -0.1692
  200MOL   C17440372   2.511   0.051   7.018 -1.5608  0.3439 -0.4287
  200MOL   C17540373   2.506   0.205   7.024  0.4763 -0.4218 -0.7298
  200MOL   N17640374   2.368   0.251   7.003 -0.0481  0.3605  0.5166
  200MOL   H17740375   2.433   0.013   7.084 -0.4581  0.4030  0.9402
  200MOL   H17840376   2.482   0.011   6.920 -1.2656  0.8201 -0.7128
  200MOL   H17940377   2.543   0.239   7.121 -1.4804 -0.5902  0.1111
  200MOL   H18040378   2.577   0.233   6.947 -0.0215  1.3056 -0.5864
  200MOL   H18140379   2.344   0.264   6.906  0.9052  0.9560  0.3641
  200MOL   C18240380   2.266   0.235   7.088  0.7491  0.3076  0.6234
  200MOL   O18340381   2.287   0.195   7.202  0.2450  0.6854 -0.6496
  200MOL   C18440382   2.126   0.258   7.034  0.5949  0.2917 -0.4910
  200MOL   C18540383   2.020   0.303   7.144 -0.8936  0.7946 -0.0765
  200MOL   N18640384   1.882   0.269   7.121 -0.0366  0.3523  0.2045
  200MOL   H18740385   2.088   0.163   6.997  1.8729  1.5717 -5.5279
  200MOL   H18840386   2.115   0.322   6.946  1.6259  1.6894  0.3867
  200MOL   H18940387   2.044   0.267   7.244 -0.4380 -2.1756 -1.2004
  200MOL   H19040388   2.031   0.410   7.162 -1.7312  0.7280  0.9056
  200MOL   H19140389   1.828   0.344   7.080 -0.0483  0.9662  1.2981
  200MOL   C19240390   1.832   0.146   7.139  0.1255  0.4733 -0.2633
  200MOL   O19340391   1.896   0.040   7.154  0.0178 -0.0044  0.1147
  200MOL   C19440392   1.677   0.134   7.133  0.0837 -0.0543  0.4571
  200MOL   C19540393   1.609   7.777   7.171 -0.0443  0.3835 -0.3364
  200MOL   N19640394   1.610   7.757   7.311 -0.1826 -0.4933 -0.4495
  200MOL   H19740395   1.633   0.215   7.191  1.2195 -0.4594  1.9137
  200MOL   H19840396   1.663   0.152   7.027  0.1080  2.0753  0.7817
  200MOL   H19940397   1.516   7.775   7.116  0.1730 -0.7010 -0.6773
  200MOL   H20040398   1.677   7.697   7.141  0.6946  0.6945  0.4771
  200MOL   H20140399   1.550   7.677   7.327 -1.9471  0.8678 -0.0947
  200MOL   H20240400   1.703   7.727   7.333  0.5650  1.0158 -1.4238
  201MOL     C140401   0.195   3.289   1.868  0.4409  0.4173  0.2992
  201MOL     O240402   0.224   3.209   1.957  0.0321 -0.5270  0.8752
  201MOL     C340403   0.293   3.393   1.819 -0.0410  0.3073  0.3418
  201MOL     C440404   0.423   3.334   1.758  1.1135  0.5266 -0.0031
  201MOL     N540405   0.503   3.271   1.865 -0.1927 -0.3202 -0.5483
  201MOL     H640406   0.319   3.454   1.906 -0.9525  0.0239  0.8246
  201MOL     H740407   0.237   3.454   1.749 -1.1713 -0.5784  0.4490
  201MOL     H840408   0.472   3.421   1.716  1.2532  0.0018 -0.9338
  201MOL     H940409   0.409   3.257   1.682 -0.1031 -0.5768  1.3140
  201MOL    H1040410   0.445   3.221   1.931  0.0908 -0.7981 -0.6567
  201MOL    H1140411   0.098   3.310   1.825  0.3854 -0.8419 -0.2274
  201MOL    C1240412   0.634   3.279   1.885 -1.0191  0.5456  0.6758
  201MOL    O1340413   0.716   3.347   1.814  0.2867  0.4096 -0.0709
  201MOL    C1440414   0.688   3.187   1.991  0.1067  0.4974 -0.4148
  201MOL    C1540415   0.838   3.188   2.015  0.0677 -0.3722 -0.3976
  201MOL    N1640416   0.887   3.088   2.109  0.1305  0.5367 -0.6272
  201MOL    H1740417   0.661   3.082   1.978  0.5944  0.2594  0.4180
  201MOL    H1840418   0.654   3.220   2.090  1.9526 -1.2200  0.8434
  201MOL    H1940419   0.894   3.190   1.922 -0.4832  1.7403 -0.7200
  201MOL    H2040420   0.879   3.278   2.061  1.7248  0.3611 -3.2392
  201MOL    H2140421   0.874   3.103   2.208 -0.3736 -0.1106 -0.5859
  201MOL    C2240422   0.921   2.962   2.076 -0.2146 -0.0014  0.4386
  201MOL    O2340423   0.940   2.925   1.958  0.7168 -0.9681  0.8973
  201MOL    C2440424   0.963   2.883   2.199  0.1974 -0.7677  0.1303
  201MOL    C2540425   1.004   2.740   2.159  0.4342 -0.1119 -0.7026
  201MOL    N2640426   1.037   2.655   2.278 -0.7877 -0.1285 -0.3202
  201MOL    H2740427   0.889   2.881   2.279 -0.0500 -0.8871 -0.0989
  201MOL    H2840428   1.058   2.929   2.225 -0.3900  1.1771 -1.0827
  201MOL    H2940429   0.930   2.692   2.095  0.1413 -0.1179 -0.3585
  201MOL    H3040430   1.090   2.740   2.093  0.3770  0.8792 -0.7895
  201MOL    H3140431   1.064   2.705   2.361  0.1742 -0.2286 -0.5695
  201MOL    C3240432   1.083   2.527   2.271  0.0913 -1.0069 -0.2203
  201MOL    O3340433   1.071   2.465   2.165  0.4573 -0.5312 -0.3810
  201MOL    C3440434   1.148   2.478   2.395 -0.3220  0.2699  0.2224
  201MOL    C3540435   1.116   2.327   2.415 -0.3815  0.2017  0.0887
  201MOL    N3640436   1.156   2.271   2.541 -0.0048 -0.1253 -0.2978
  201MOL    H3740437   1.118   2.544   2.477 -0.8535  0.4818 -0.1426
  201MOL    H3840438   1.255   2.489   2.383 -0.2042 -0.7518  0.2659
  201MOL    H3940439   1.010   2.303   2.401 -0.3647  0.8207 -1.1629
  201MOL    H4040440   1.176   2.265   2.349 -0.7483  0.9472 -0.9655
  201MOL    H4140441   1.077   2.237   2.594 -0.0495  1.4699  0.7195
  201MOL    C4240442   1.282   2.265   2.584 -0.0096  0.3932 -0.6963
  201MOL    O4340443   1.382   2.311   2.522 -0.3532 -0.1565 -0.4683
  201MOL    C4440444   1.304   2.191   2.711 -0.4384 -0.0710  0.5647
  201MOL    C4540445   1.370   2.055   2.672  0.2664  0.4105 -0.0110
  201MOL    N4640446   1.305   1.953   2.751 -0.0966 -0.1021  0.6028
  201MOL    H4740447   1.373   2.250   2.771 -1.3372  1.0243  0.5363
  201MOL    H4840448   1.211   2.182   2.767 -1.4071  1.2496 -0.7749
  201MOL    H4940449   1.355   2.033   2.566 -4.6195  0.3444  0.5414
  201MOL    H5040450   1.478   2.059   2.682  0.4513 -1.4220 -1.1435
  201MOL    H5140451   1.295   1.972   2.849  1.1419  1.6082  0.4042
  201MOL    C5240452   1.274   1.832   2.702 -0.0064 -0.0020  0.0167
  201MOL    O5340453   1.276   1.807   2.580  0.0678  0.2687  0.0890
  201MOL    C5440454   1.246   1.724   2.805  0.2577 -0.1194  0.2484
  201MOL    C5540455   1.301   1.592   2.758 -0.5862  0.6004  0.2111
  201MOL    N5640456   1.279   1.492   2.858 -0.2178  0.5769  0.0010
  201MOL    H5740457   1.279   1.760   2.903  0.6356  1.3744 -0.3995
  201MOL    H5840458   1.138   1.723   2.819 -0.1129  0.1834 -2.2392
  201MOL    H5940459   1.405   1.590   2.725 -0.6348 -0.3788  0.1069
  201MOL    H6040460   1.251   1.564   2.665 -1.0171 -2.8370  1.4181
  201MOL    H6140461   1.337   1.502   2.940 -1.0432  0.2407  0.6328
  201MOL    C6240462   1.163   1.421   2.864 -0.1770  0.6286 -0.8689
  201MOL    O6340463   1.071   1.421   2.780 -0.3944  0.4509 -0.7299
  201MOL    C6440464   1.143   1.332   2.984 -0.3602  0.6832 -0.4590
  201MOL    C6540465   1.062   1.401   3.098 -0.3902  0.1344  0.0651
  201MOL    N6640466   1.068   1.325   3.217 -0.2117  0.1460  0.4799
  201MOL    H6740467   1.091   1.241   2.955 -0.9865  0.1236  2.3087
  201MOL    H6840468   1.235   1.299   3.034 -1.2657 -0.0355  0.7532
  201MOL    H6940469   1.105   1.498   3.123 -0.9642  0.3745  0.1441
  201MOL    H7040470   0.962   1.397   3.054 -1.0729 -1.3901  1.7079
  201MOL    H7140471   1.139   1.342   3.287  0.6339  1.5909 -0.6971
  201MOL    C7240472   0.977   1.230   3.240  0.1125 -0.5929 -0.4065
  201MOL    O7340473   0.881   1.205   3.160  0.2985  0.1579  0.1592
  201MOL    C7440474   0.987   1.155   3.377 -0.1082 -0.4985  0.3042
  201MOL    C7540475   0.863   1.184   3.471  0.2845 -0.6371  0.0862
  201MOL    N7640476   0.824   1.061   3.538 -0.0012 -0.1764 -0.3641
  201MOL    H7740477   0.989   1.047   3.362 -0.2547 -0.3816 -0.5887
  201MOL    H7840478   1.079   1.188   3.425  0.3185 -0.3101 -0.6268
  201MOL    H7940479   0.898   1.261   3.539  2.6126 -0.4857 -1.2397
  201MOL    H8040480   0.774   1.215   3.416 -0.1745  0.3469  1.3720
  201MOL    H8140481   0.731   1.025   3.520 -1.3557  2.6247  0.7594
  201MOL    C8240482   0.904   0.993   3.621 -0.3910  0.3556  0.1844
  201MOL    O8340483   1.012   1.042   3.661 -0.1245 -0.2796 -0.4190
  201MOL    C8440484   0.857   0.852   3.647 -0.1056  0.2272 -0.5309
  201MOL    C8540485   0.795   0.850   3.787  0.0681  0.0106  0.3947
  201MOL    N8640486   0.734   0.721   3.817  0.4018  0.3012  0.0262
  201MOL    H8740487   0.800   0.823   3.559  1.3859  2.2086 -2.1888
  201MOL    H8840488   0.945   0.790   3.631 -0.8524 -0.9733 -0.0587
  201MOL    H8940489   0.866   0.873   3.866 -0.2767 -0.8642  0.9635
  201MOL    H9040490   0.715   0.924   3.788 -1.5938 -1.7241  0.0457
  201MOL    H9140491   0.778   0.666   3.889  0.1777 -0.1416 -0.1751
  201MOL    C9240492   0.603   0.700   3.797 -0.7344 -0.0358  0.8385
  201MOL    O9340493   0.532   0.765   3.721  0.1788  0.4407 -0.3594
  201MOL    C9440494   0.542   0.569   3.858 -0.5593  0.5400 -0.1219
  201MOL    C9540495   0.440   0.605   3.970 -0.6107  0.7304 -0.6471
  201MOL    N9640496   0.497   0.640   4.097 -0.1597 -0.1340 -0.2766
  201MOL    H9740497   0.499   0.512   3.775  0.6436 -0.9479  0.2433
  201MOL    H9840498   0.624   0.510   3.898  0.0218 -0.6101 -2.8927
  201MOL    H9940499   0.374   0.681   3.929  0.1987  0.6887 -2.0760
  201MOL   H10040500   0.383   0.515   3.991  0.5644 -0.4308 -2.2769
  201MOL   H10140501   0.483   0.577   4.175  1.5038  0.0571  0.2139
  201MOL   C10240502   0.553   0.761   4.122  0.4736  0.0554 -0.0468
  201MOL   O10340503   0.548   0.859   4.043  0.1947 -0.2315 -0.2318
  201MOL   C10440504   0.605   0.776   4.261  0.4763  0.3583 -0.1822
  201MOL   C10540505   0.752   0.831   4.271 -0.0897 -0.6919  0.0454
  201MOL   N10640506   0.844   0.726   4.300  0.9766  0.5123  0.4224
  201MOL   H10740507   0.592   0.690   4.326  0.9227 -0.5921 -1.3454
  201MOL   H10840508   0.538   0.844   4.315  0.0888 -0.7910  0.8106
  201MOL   H10940509   0.776   0.877   4.175 -1.5071 -3.2767 -1.6155
  201MOL   H11040510   0.764   0.915   4.339  1.9585  0.8893 -2.1717
  201MOL   H11140511   0.821   0.668   4.379 -3.5104  1.3948 -0.0898
  201MOL   C11240512   0.960   0.703   4.226  0.2038 -0.4174  0.3726
  201MOL   O11340513   0.983   0.763   4.125 -0.3474 -0.0333 -0.4087
  201MOL   C11440514   1.050   0.588   4.275 -0.3476  0.4293  0.1873
  201MOL   C11540515   1.092   0.487   4.164 -0.7610 -0.2219  0.2754
  201MOL   N11640516   0.995   0.392   4.120 -0.5068 -1.0683 -0.4180
  201MOL   H11740517   1.002   0.526   4.350 -1.9115  1.9417  0.4616
  201MOL   H11840518   1.142   0.635   4.311  0.9998 -1.2952 -0.8770
  201MOL   H11940519   1.122   0.550   4.080  0.4122  0.8016  1.4453
  201MOL   H12040520   1.187   0.439   4.190 -0.1349  0.8754  0.0542
  201MOL   H12140521   0.980   0.314   4.183  2.0330 -1.0593  0.2662
  201MOL   C12240522   0.900   0.422   4.036 -0.0225  0.5933 -0.3394
  201MOL   O12340523   0.894   0.528   3.967  0.0492  0.0577  0.3143
  201MOL   C12440524   0.783   0.321   4.038  0.7213 -0.4442  0.2136
  201MOL   C12540525   0.677   0.335   4.147  0.1101  0.3807 -0.3469
  201MOL   N12640526   0.718   0.268   4.271  0.0597  0.0302 -0.1871
  201MOL   H12740527   0.822   0.220   4.041 -0.4492 -0.9153 -0.2153
  201MOL   H12840528   0.726   0.325   3.946 -1.5337 -3.0540  1.4369
  201MOL   H12940529   0.648   0.435   4.175 -2.0330 -0.3653  0.1490
  201MOL   H13040530   0.592   0.285   4.100 -0.9360  1.8272 -0.0071
  201MOL   H13140531   0.737   0.321   4.355 -2.7383  0.3863  0.2596
  201MOL   C13240532   0.716   0.135   4.283  0.2685 -0.5107  0.9595
  201MOL   O13340533   0.668   0.065   4.190 -0.3936 -0.2700 -0.0604
  201MOL   C13440534   0.754   0.069   4.417 -0.3358 -0.1411 -0.2425
  201MOL   C13540535   0.792   7.701   4.395  0.2733  0.0299  0.3425
  201MOL   N13640536   0.854   7.639   4.514  0.1889  0.2478 -0.1606
  201MOL   H13740537   0.672   0.099   4.481  0.4769  0.6034  0.4604
  201MOL   H13840538   0.830   0.132   4.462 -1.2529  0.4932  0.4077
  201MOL   H13940539   0.714   7.643   4.345  1.2374  1.1957 -2.6816
  201MOL   H14040540   0.863   7.704   4.312 -1.7919 -0.7613 -1.4997
  201MOL   H14140541   0.928   7.691   4.560  1.8925 -1.3517 -1.0421
  201MOL   C14240542   0.825   7.514   4.558 -0.3492 -0.5242 -0.1860
  201MOL   O14340543   0.742   7.450   4.500 -0.3789 -0.0589 -0.4478
  201MOL   C14440544   0.906   7.450   4.677 -0.1460  0.0017 -0.7031
  201MOL   C14540545   0.938   7.302   4.676 -0.1320 -0.4673  0.2748
  201MOL   N14640546   0.820   7.222   4.637  0.1694 -1.0293 -0.8309
  201MOL   H14740547   0.842   7.463   4.765 -2.8219  0.6738 -2.6909
  201MOL   H14840548   0.995   7.511   4.695 -0.4374  0.0927  0.4881
  201MOL   H14940549   1.009   7.281   4.597 -0.1223 -1.6033  0.5674
  201MOL   H15040550   0.997   7.271   4.762  0.1071  1.4349  0.8003
  201MOL   H15140551   0.785   7.237   4.543  1.0692 -1.3404 -1.2213
  201MOL   C15240552   0.759   7.136   4.723 -0.2166 -0.5463 -0.5364
  201MOL   O15340553   0.795   7.125   4.840  0.1549 -0.5105  0.1714
  201MOL   C15440554   0.632   7.052   4.678 -0.8924  0.4108  0.0214
  201MOL   C15540555   0.637   6.907   4.735 -0.5724  0.2403  1.0982
  201MOL   N15640556   0.520   6.833   4.683  0.2798 -0.2864 -0.1367
  201MOL   H15740557   0.627   7.053   4.569  0.8356 -0.9661 -0.0844
  201MOL   H15840558   0.537   7.098   4.707 -1.1870 -0.1137 -0.1146
  201MOL   H15940559   0.730   6.867   4.693  0.4219  2.5434  1.0135
  201MOL   H16040560   0.642   6.909   4.844 -0.1052 -0.4691  1.0911
  201MOL   H16140561   0.433   6.883   4.690 -0.3758 -0.8776 -3.2457
  201MOL   C16240562   0.508   6.703   4.655 -0.0906  0.4493 -0.0345
  201MOL   O16340563   0.593   6.620   4.653 -0.1648 -0.0228  0.0882
  201MOL   C16440564   0.363   6.668   4.612  0.0429  0.7878  1.0144
  201MOL   C16540565   0.343   6.730   4.468 -0.4926 -0.0223  0.0438
  201MOL   N16640566   0.231   6.660   4.395  0.7895 -0.1927 -0.2162
  201MOL   H16740567   0.283   6.702   4.677 -0.5149 -0.5463  1.0271
  201MOL   H16840568   0.356   6.560   4.599  0.7156  1.0387 -1.7687
  201MOL   H16940569   0.317   6.835   4.474  0.2898  0.1132  1.2676
  201MOL   H17040570   0.428   6.724   4.400 -0.9138  1.1541 -0.5958
  201MOL   H17140571   0.247   6.579   4.336 -2.9740 -1.4569  0.3843
  201MOL   C17240572   0.102   6.689   4.400 -0.3906  0.6247 -0.8196
  201MOL   O17340573   0.055   6.766   4.481 -0.0480  0.4694  0.2865
  201MOL   C17440574   0.016   6.595   4.317  0.1477  0.0044 -0.1237
  201MOL   C17540575   7.646   6.635   4.297 -0.1714 -0.5418 -0.3369
  201MOL   N17640576   7.568   6.598   4.410 -0.1901 -0.1035 -0.2270
  201MOL   H17740577   0.033   6.491   4.344 -0.8705 -0.3338 -0.7758
  201MOL   H17840578   0.042   6.604   4.212 -1.2953 -0.7521 -0.5575
  201MOL   H17940579   7.631   6.743   4.292  0.2060 -0.5175 -0.9454
  201MOL   H18040580   7.604   6.579   4.213  2.2339 -1.3458 -1.0450
  201MOL   H18140581   7.567   6.662   4.487 -1.3585  0.5220 -0.7377
  201MOL   C18240582   7.493   6.490   4.421  0.5579 -0.3154 -0.8381
  201MOL   O18340583   7.509   6.394   4.347  0.3583  0.4031 -0.1895
  201MOL   C18440584   7.401   6.465   4.543 -0.1648 -0.3475 -0.1242
  201MOL   C18540585   7.434   6.545   4.682  0.0476  0.0848 -0.1880
  201MOL   N18640586   7.570   6.497   4.721 -0.5113  0.2672 -0.0460
  201MOL   H18740587   7.385   6.358   4.560  1.7907 -0.7085 -0.4344
  201MOL   H18840588   7.300   6.494   4.512 -1.3223 -0.3945  3.4221
  201MOL   H18940589   7.424   6.653   4.679 -0.5137  0.1158  1.7695
  201MOL   H19040590   7.355   6.515   4.751 -0.4725  2.0826  0.1078
  201MOL   H19140591   7.598   6.400   4.712 -1.6019 -0.2980  2.2098
  201MOL   C19240592   7.662   6.570   4.775 -0.4555 -0.5292 -0.3400
  201MOL   O19340593   7.631   6.684   4.811 -0.3286 -0.8956 -0.2664
  201MOL   C19440594   0.022   6.515   4.793 -0.5793  0.2952  0.8165
  201MOL   C19540595   0.072   6.419   4.689 -0.1597 -0.1459 -0.0423
  201MOL   N19640596   7.780   6.298   4.688 -0.0223  0.2053  0.8348
  201MOL   H19740597   0.082   6.606   4.780  0.1451 -0.3769 -0.6519
  201MOL   H19840598   0.027   6.476   4.894 -1.1798  1.6965  1.4102
  201MOL   H19940599   0.061   6.461   4.588 -0.3686 -0.0497  0.0192
  201MOL   H20040600   0.179   6.403   4.697 -0.2073 -0.2493  0.3582
  201MOL   H20140601   7.778   6.266   4.784  1.1424 -0.4078  0.6611
  201MOL   H20240602   0.058   6.237   4.632 -0.9947  1.3832 -1.5362
  202MOL     C140603   7.156   0.434   3.423  0.3596  0.3106  0.2434
  202MOL     O240604   7.264   0.493   3.452 -0.7196  0.5784 -0.3968
  202MOL     C340605   7.027   0.502   3.455  0.3960 -0.4187  0.6489
  202MOL     C440606   7.038   0.655   3.498  1.1409 -0.4913 -0.1852
  202MOL     N540607   7.074   0.682   3.639  0.1723 -0.2865 -0.7713
  202MOL     H640608   6.971   0.444   3.529  0.8811 -0.1921  1.1942
  202MOL     H740609   6.959   0.508   3.369  0.3741  1.6746  0.7841
  202MOL     H840610   6.943   0.703   3.474  1.9417  0.7195 -0.9757
  202MOL     H940611   7.119   0.696   3.437  1.0258 -4.5068 -3.2654
  202MOL    H1040612   7.162   0.727   3.661 -0.4382  1.1883 -1.3305
  202MOL    H1140613   7.161   0.336   3.376 -2.4272  0.4096 -0.3713
  202MOL    C1240614   7.001   0.654   3.742  0.1999  0.1207  0.1813
  202MOL    O1340615   6.881   0.614   3.733  0.0248 -0.9994 -0.1498
  202MOL    C1440616   7.064   0.672   3.878  0.4793  0.4828  0.5140
  202MOL    C1540617   6.981   0.770   3.959 -0.6729 -0.3299 -0.0199
  202MOL    N1640618   7.059   0.825   4.072  0.0147 -0.1650  0.2548
  202MOL    H1740619   7.171   0.691   3.876  0.7084 -0.6519  1.3143
  202MOL    H1840620   7.049   0.574   3.923 -0.6085 -0.3719 -1.6228
  202MOL    H1940621   6.962   0.859   3.900  0.7536 -0.8306 -1.2693
  202MOL    H2040622   6.885   0.727   3.988 -1.0626  1.4338  1.3995
  202MOL    H2140623   7.152   0.859   4.054 -0.5728 -0.1408 -2.9803
  202MOL    C2240624   7.019   0.867   4.190 -0.7987  0.1494  0.6102
  202MOL    O2340625   6.907   0.842   4.231 -0.1438 -0.0231 -0.4136
  202MOL    C2440626   7.106   0.965   4.268 -0.1310 -1.3026  0.3411
  202MOL    C2540627   7.043   1.007   4.407  0.0398  0.2049  0.0847
  202MOL    N2640628   7.077   0.908   4.506  0.3715  0.0813 -0.7131
  202MOL    H2740629   7.117   1.055   4.207  1.2904 -1.3665  0.4764
  202MOL    H2840630   7.200   0.915   4.291 -1.0195 -1.6599  3.3951
  202MOL    H2940631   7.100   1.097   4.430  0.6372 -0.0983 -0.2070
  202MOL    H3040632   6.938   1.034   4.396 -0.7267 -2.7048 -0.2970
  202MOL    H3140633   7.172   0.874   4.516 -0.3241 -0.9185  3.6140
  202MOL    C3240634   6.991   0.866   4.600 -0.2062  0.3588 -0.5798
  202MOL    O3340635   6.881   0.918   4.616 -0.0362 -0.1892  0.2677
  202MOL    C3440636   7.036   0.756   4.695 -0.4342  0.2110 -0.4564
  202MOL    C3540637   6.925   0.651   4.731  0.7370 -1.0310 -0.2135
  202MOL    N3640638   6.967   0.564   4.839  0.2950  0.5399  1.0056
  202MOL    H3740639   7.064   0.811   4.784  2.5269 -0.4509 -0.9055
  202MOL    H3840640   7.121   0.701   4.653 -1.4657 -0.4297 -1.7680
  202MOL    H3940641   6.843   0.715   4.766  1.1296  1.2030 -3.1209
  202MOL    H4040642   6.909   0.585   4.646  0.5319 -2.7001  1.0990
  202MOL    H4140643   7.019   0.484   4.806  1.6680  0.7217  2.6721
  202MOL    C4240644   6.963   0.603   4.964  0.4916  0.7476  0.1512
  202MOL    O4340645   6.933   0.714   5.001  0.1617 -0.0071 -0.0139
  202MOL    C4440646   7.001   0.487   5.065  0.1241 -0.6567 -0.0634
  202MOL    C4540647   6.884   0.461   5.166 -0.4105  0.5132 -1.2468
  202MOL    N4640648   6.771   0.396   5.103  0.5196 -0.1017  0.6392
  202MOL    H4740649   7.013   0.393   5.012  0.0277 -1.0099  0.5392
  202MOL    H4840650   7.082   0.522   5.129 -1.7244 -0.3482  2.1997
  202MOL    H4940651   6.916   0.398   5.249 -1.6811 -0.3707 -1.4216
  202MOL    H5040652   6.863   0.565   5.190  0.0509  0.4999 -0.7707
  202MOL    H5140653   6.685   0.448   5.111  0.8774  1.1130 -2.5179
  202MOL    C5240654   6.770   0.272   5.053 -0.1206  0.2191  0.2704
  202MOL    O5340655   6.854   0.185   5.066 -0.2376 -0.1320  0.0623
  202MOL    C5440656   6.641   0.239   4.979 -0.6304 -0.6731  0.1025
  202MOL    C5540657   6.602   0.090   4.979 -0.0435  0.6739  0.0253
  202MOL    N5640658   6.669   0.015   4.877  0.7193  0.1528 -0.7229
  202MOL    H5740659   6.563   0.288   5.038  0.0893  0.8822 -0.2195
  202MOL    H5840660   6.647   0.289   4.883  0.5680 -1.5186 -0.2635
  202MOL    H5940661   6.496   0.100   4.954 -0.7705 -0.3105  2.5183
  202MOL    H6040662   6.613   0.056   5.082 -0.7236 -1.1856 -0.4970
  202MOL    H6140663   6.760   7.754   4.893  1.5504  1.9742 -0.5922
  202MOL    C6240664   6.620   7.778   4.757  0.5304  0.0612 -0.1666
  202MOL    O6340665   6.515   0.051   4.725  0.4831 -0.8318  0.3472
  202MOL    C6440666   6.675   7.678   4.660 -0.0454 -0.6219  0.2077
  202MOL    C6540667   6.746   7.732   4.538 -0.0698  0.1530  0.5866
  202MOL    N6640668   6.875   7.767   4.575 -0.1974  0.1626  0.2378
  202MOL    H6740669   6.734   7.599   4.706 -1.8607 -0.0371  3.7462
  202MOL    H6840670   6.594   7.615   4.623 -1.2550  0.4693  0.9553
  202MOL    H6940671   6.754   7.654   4.462 -0.4291 -0.5160  1.2280
  202MOL    H7040672   6.692   0.031   4.486  1.9932  0.0697 -1.7757
  202MOL    H7140673   6.939   7.699   4.612  0.1115  0.2182 -0.1979
  202MOL    C7240674   6.918   0.115   4.568  0.6346  0.2736 -0.0254
  202MOL    O7340675   6.859   0.207   4.516 -0.3349  0.3082  0.0754
  202MOL    C7440676   7.057   0.142   4.625  0.7261  0.3301  0.1860
  202MOL    C7540677   7.034   0.209   4.766  0.2621 -0.6947 -0.2252
  202MOL    N7640678   7.159   0.249   4.820  0.0464 -0.0964 -0.5198
  202MOL    H7740679   7.112   0.051   4.648 -0.7531 -0.4297  0.7816
  202MOL    H7840680   7.106   0.201   4.548 -0.1051 -1.1446 -1.4973
  202MOL    H7940681   6.968   0.296   4.756  1.7022  0.3961 -0.3928
  202MOL    H8040682   6.977   0.145   4.833 -0.1240  0.1219  0.2368
  202MOL    H8140683   7.207   0.191   4.887 -0.3480 -0.3374 -0.4457
  202MOL    C8240684   7.228   0.350   4.778 -0.0108  0.1984 -0.1832
  202MOL    O8340685   7.188   0.420   4.685 -0.3754  0.6010 -0.0733
  202MOL    C8440686   7.361   0.393   4.854  0.1427 -0.6909 -0.4035
  202MOL    C8540687   7.414   0.534   4.809  0.1147 -0.9313  0.8244
  202MOL    N8640688   7.352   0.649   4.865  0.0243 -0.3298  0.1416
  202MOL    H8740689   7.344   0.405   4.961  2.4740 -0.6322 -0.0258
  202MOL    H8840690   7.426   0.306   4.843 -1.1882 -1.5430 -1.8604
  202MOL    H8940691   7.519   0.537   4.838 -0.2953  2.1320  2.1845
  202MOL    H9040692   7.408   0.541   4.701  0.7877 -1.3267  0.7606
  202MOL    H9140693   7.281   0.678   4.799  1.5100 -0.9699 -1.8227
  202MOL    C9240694   7.387   0.709   4.971 -0.3685  0.3587  0.0523
  202MOL    O9340695   7.490   0.693   5.032 -0.5142  0.1302 -0.4333
  202MOL    C9440696   7.299   0.822   5.016  0.2201  0.0836 -0.3455
  202MOL    C9540697   7.376   0.950   5.027  0.1128  0.1559 -0.0743
  202MOL    N9640698   7.287   1.062   5.045  0.4280 -0.1471  0.3083
  202MOL    H9740699   7.228   0.837   4.935 -0.4089  1.0757  0.3830
  202MOL    H9840700   7.251   0.794   5.110 -0.0377 -0.1288 -0.5363
  202MOL    H9940701   7.441   0.927   5.111 -1.5667 -0.4460  1.0922
  202MOL   H10040702   7.434   0.964   4.935  0.8807 -0.8032  0.2522
  202MOL   H10140703   7.268   1.094   5.139 -1.5200  1.9428 -0.7414
  202MOL   C10240704   7.219   1.123   4.944 -0.8519  0.3046 -0.2333
  202MOL   O10340705   7.238   1.083   4.825 -0.0548 -0.1445 -0.2810
  202MOL   C10440706   7.121   1.234   4.987  0.2292 -0.0575 -0.5563
  202MOL   C10540707   6.982   1.180   5.028 -0.1788 -0.5621 -0.3104
  202MOL   N10640708   6.893   1.149   4.914 -0.3859 -0.2675 -0.1073
  202MOL   H10740709   7.108   1.308   4.907  1.8636 -1.3926 -2.1017
  202MOL   H10840710   7.166   1.287   5.071 -0.4273  0.4107 -0.4913
  202MOL   H10940711   6.984   1.092   5.093  0.6276 -0.1098  0.2964
  202MOL   H11040712   6.936   1.257   5.089  1.8777  0.6635 -0.2415
  202MOL   H11140713   6.870   1.056   4.883  0.7854 -0.0787 -1.5783
  202MOL   C11240714   6.842   1.242   4.837 -0.8032 -0.2113  0.1257
  202MOL   O11340715   6.872   1.362   4.833  0.2756  0.2767 -0.6213
  202MOL   C11440716   6.747   1.193   4.730 -0.4159 -0.0994 -0.2908
  202MOL   C11540717   6.661   1.307   4.676  0.3818 -0.2693 -0.1462
  202MOL   N11640718   6.568   1.251   4.578 -0.0559 -0.1646  0.0633
  202MOL   H11740719   6.674   1.124   4.773 -0.1225  0.6840  1.4902
  202MOL   H11840720   6.807   1.154   4.647 -1.0269  0.8544 -1.1892
  202MOL   H11940721   6.589   1.344   4.749  1.1770  2.2890 -0.5895
  202MOL   H12040722   6.711   1.390   4.627  1.7623  0.0512  1.7206
  202MOL   H12140723   6.578   1.152   4.563  0.1874  0.1443 -1.9450
  202MOL   C12240724   6.483   1.315   4.494  0.4070 -0.1812  1.0392
  202MOL   O12340725   6.477   1.437   4.499 -0.1677 -0.0368 -0.0189
  202MOL   C12440726   6.426   1.239   4.374  0.5296 -0.5700  0.2740
  202MOL   C12540727   6.315   1.315   4.293  0.1134 -0.3689  0.3709
  202MOL   N12640728   6.171   1.283   4.308 -0.0504  0.0352  0.2055
  202MOL   H12740729   6.394   1.139   4.403 -1.3797  0.5801  2.3130
  202MOL   H12840730   6.520   1.233   4.319  0.7184 -0.5434  0.5899
  202MOL   H12940731   6.330   1.422   4.294 -1.2600 -0.0944 -2.4915
  202MOL   H13040732   6.330   1.294   4.187 -1.6055  0.9130 -0.1499
  202MOL   H13140733   6.136   1.199   4.265 -0.6042 -0.3708  1.4237
  202MOL   C13240734   6.083   1.378   4.350 -0.5315  0.0724  0.6273
  202MOL   O13340735   6.122   1.480   4.408  0.2315  0.1743  0.2569
  202MOL   C13440736   5.938   1.343   4.325 -0.1282 -0.2400 -0.1815
  202MOL   C13540737   5.844   1.460   4.363  0.1253 -0.3591  0.5746
  202MOL   N13640738   5.825   1.477   4.503  0.3040  0.0225  0.2166
  202MOL   H13740739   5.913   1.247   4.372 -0.7083 -0.3592 -0.7311
  202MOL   H13840740   5.932   1.324   4.218  1.4770 -0.7435 -0.2058
  202MOL   H13940741   5.867   1.555   4.315  1.5469 -0.7263  0.5011
  202MOL   H14040742   5.755   1.430   4.307  0.5732  1.1310 -0.9729
  202MOL   H14140743   5.795   1.400   4.561 -0.6758 -0.5569 -1.0250
  202MOL   C14240744   5.842   1.586   4.573 -0.2541 -0.2532 -0.3555
  202MOL   O14340745   5.877   1.691   4.521 -0.0040  0.3611  0.2908
  202MOL   C14440746   5.830   1.581   4.720  0.7678  0.2808 -0.7096
  202MOL   C14540747   5.933   1.652   4.800  0.6112 -0.4991  0.2194
  202MOL   N14640748   6.070   1.615   4.765  0.1521  0.4976  0.1732
  202MOL   H14740749   5.832   1.475   4.747 -1.9285  0.8598  2.0120
  202MOL   H14840750   5.736   1.625   4.752 -0.2290 -0.0971 -3.0375
  202MOL   H14940751   5.919   1.759   4.780  0.5492  0.2493  3.9115
  202MOL   H15040752   5.907   1.634   4.904 -2.8171  2.6293  0.0090
  202MOL   H15140753   6.085   1.589   4.669  0.6726  0.6192  0.2220
  202MOL   C15240754   6.171   1.589   4.848  0.5268 -0.3660 -0.2217
  202MOL   O15340755   6.157   1.594   4.972 -0.4249  0.4982  0.1873
  202MOL   C15440756   6.304   1.578   4.788 -0.0033  0.6004 -0.4583
  202MOL   C15540757   6.394   1.703   4.805 -0.4623  0.0635 -0.0755
  202MOL   N15640758   6.536   1.677   4.796  0.8905 -0.2040  0.1874
  202MOL   H15740759   6.309   1.530   4.690 -0.9355 -0.1150 -0.1580
  202MOL   H15840760   6.349   1.508   4.859 -1.0679 -0.1504 -0.5151
  202MOL   H15940761   6.368   1.777   4.729  1.5240  1.9351  0.9927
  202MOL   H16040762   6.369   1.758   4.896  1.3982  0.5922  0.1466
  202MOL   H16140763   6.574   1.694   4.704 -0.1635  0.7535 -0.0816
  202MOL   C16240764   6.617   1.656   4.901 -0.2357  0.6150  0.3279
  202MOL   O16340765   6.577   1.612   5.012 -0.1182  0.2712  0.1246
  202MOL   C16440766   6.765   1.652   4.874  0.0643 -1.0115 -0.4388
  202MOL   C16540767   6.824   1.796   4.877  0.4449  0.4002 -0.4345
  202MOL   N16640768   6.789   1.885   4.766  0.8967 -0.0642 -0.3588
  202MOL   H16740769   6.775   1.607   4.775 -0.6288 -0.7525 -0.6260
  202MOL   H16840770   6.812   1.569   4.928  1.3252  0.8636  1.4233
  202MOL   H16940771   6.799   1.847   4.970 -1.2232 -1.0193 -0.0804
  202MOL   H17040772   6.932   1.783   4.878  0.2298 -1.4536  0.2004
  202MOL   H17140773   6.695   1.921   4.775  0.5803 -1.2676  1.4044
  202MOL   C17240774   6.877   1.941   4.682  1.0281 -0.2930  0.0856
  202MOL   O17340775   6.990   1.893   4.669 -0.5465 -0.0202  0.5456
  202MOL   C17440776   6.827   2.061   4.588 -0.1654 -0.5939  0.7770
  202MOL   C17540777   6.871   2.058   4.441 -1.0939  0.0487  0.1464
  202MOL   N17640778   6.762   2.020   4.349  0.2625  0.3553  0.8269
  202MOL   H17740779   6.875   2.148   4.634  1.4044 -1.3700  0.6517
  202MOL   H17840780   6.719   2.072   4.588 -0.0874  0.2302  0.7274
  202MOL   H17940781   6.921   2.152   4.421 -1.9165  0.3593 -0.4965
  202MOL   H18040782   6.947   1.981   4.428 -0.2841  0.9749 -0.6651
  202MOL   H18140783   6.675   1.981   4.381  0.0015  0.2404 -0.0190
  202MOL   C18240784   6.773   1.999   4.219 -0.4747  0.0658 -0.2540
  202MOL   O18340785   6.872   2.039   4.158  0.6760 -0.0037 -0.2406
  202MOL   C18440786   6.660   1.920   4.149 -0.1330  0.7425 -0.1538
  202MOL   C18540787   6.687   1.822   4.033  0.0955 -0.0497 -0.1711
  202MOL   N18640788   6.577   1.729   4.028  0.2369 -0.3974 -0.0341
  202MOL   H18740789   6.603   2.006   4.114 -1.1522  0.7693  1.5178
  202MOL   H18840790   6.606   1.880   4.234  0.0090 -1.6521 -1.1592
  202MOL   H18940791   6.705   1.879   3.942 -0.9316 -3.4975 -2.5937
  202MOL   H19040792   6.780   1.768   4.049  0.6815  0.8525 -0.5125
  202MOL   H19140793   6.486   1.773   4.015 -0.9683 -2.3606  1.4827
  202MOL   C19240794   6.569   1.595   4.035  0.5446  0.0946 -0.1035
  202MOL   O19340795   6.668   1.522   4.051 -0.3746 -0.4092  0.1719
  202MOL   C19440796   6.429   1.535   4.041  1.1104 -0.2779 -0.1621
  202MOL   C19540797   6.376   1.523   3.898  0.3289  0.0404  0.1248
  202MOL   N19640798   6.244   1.465   3.907 -0.5716  0.0167 -0.4100
  202MOL   H19740799   6.435   1.441   4.096 -0.3348 -1.0505 -1.3008
  202MOL   H19840800   6.366   1.605   4.096  2.5376  2.0443 -1.4196
  202MOL   H19940801   6.377   1.621   3.852 -4.2961 -0.9428 -2.4214
  202MOL   H20040802   6.437   1.455   3.839 -0.0424  0.3925 -0.6686
  202MOL   H20140803   6.235   1.396   3.834  3.1840 -0.3909 -0.5790
  202MOL   H20240804   6.167   1.530   3.899 -1.1982 -0.8593 -1.7819
  203MOL     C140805   7.090   0.928   0.100  0.2579 -0.5872 -0.0314
  203MOL     O240806   7.096   0.891   0.218  0.0592 -0.7499 -0.1155
  203MOL     C340807   7.216   0.927   0.012 -0.7489 -0.1648 -0.3589
  203MOL     C440808   7.351   0.969   0.088 -0.3868  0.0468 -0.4588
  203MOL     N540809   7.369   1.107   0.121 -0.1282 -0.1070 -0.2279
  203MOL     H640810   7.191   0.981   7.700 -1.5170 -0.6237 -0.4268
  203MOL     H740811   7.245   0.825   7.766  2.4476  0.9044 -1.1895
  203MOL     H840812   7.437   0.939   0.028  0.1827 -1.2762  0.9975
  203MOL     H940813   7.371   0.917   0.181  2.2004 -1.0035 -1.5404
  203MOL    H1040814   7.410   1.119   0.212 -0.3109  0.1012 -0.1731
  203MOL    H1140815   6.995   0.962   0.059  1.3211 -0.5226 -2.5307
  203MOL    C1240816   7.349   1.219   0.038  0.8749 -1.0957 -0.0993
  203MOL    O1340817   7.314   1.207   7.704 -0.5824 -0.4747 -0.1884
  203MOL    C1440818   7.385   1.358   0.089 -0.7281 -0.8708  0.0087
  203MOL    C1540819   7.479   1.441   7.772  0.7077  0.4467 -0.7592
  203MOL    N1640820   7.616   1.384   7.756 -0.1892  0.6275 -0.1458
  203MOL    H1740821   7.437   1.352   0.184  0.4080  1.5629 -0.4144
  203MOL    H1840822   7.300   1.424   0.103 -0.1908 -0.5556  1.8740
  203MOL    H1940823   7.427   1.444   7.676  1.6800 -0.8593 -1.3341
  203MOL    H2040824   7.488   1.545   0.022  0.5539  1.1060 -2.9048
  203MOL    H2140825   7.662   1.349   0.058  0.5699  0.7791 -0.5035
  203MOL    C2240826   7.677   1.360   7.641 -0.0518  0.5807  0.6041
  203MOL    O2340827   7.620   1.375   7.532 -0.0600  0.2672 -0.0526
  203MOL    C2440828   0.041   1.300   7.653 -0.2410 -0.3697 -0.0784
  203MOL    C2540829   0.129   1.288   7.522 -0.8847 -0.0945  0.1217
  203MOL    N2640830   0.260   1.225   7.550 -0.1478 -0.2779 -0.2428
  203MOL    H2740831   0.032   1.201   7.699  0.0161  0.1296  1.0521
  203MOL    H2840832   0.092   1.359   7.728  0.1349  1.2289 -1.5542
  203MOL    H2940833   0.070   1.233   7.450 -0.0718  2.3430 -2.4729
  203MOL    H3040834   0.150   1.383   7.473 -1.2122  0.2879  0.7060
  203MOL    H3140835   0.337   1.288   7.535 -0.4362  0.8804  2.7472
  203MOL    C3240836   0.288   1.094   7.530 -0.1001  0.5217 -0.0595
  203MOL    O3340837   0.199   1.008   7.516  0.1274 -0.3103 -0.4177
  203MOL    C3440838   0.432   1.057   7.512 -0.4499 -0.4290  0.2145
  203MOL    C3540839   0.484   0.974   7.629  0.0592  0.4164 -0.1435
  203MOL    N3640840   0.426   0.844   7.642 -0.3066  0.1104  0.8046
  203MOL    H3740841   0.490   1.149   7.513 -0.8761 -0.1682  1.3766
  203MOL    H3840842   0.445   1.004   7.418  1.3903 -1.2453  0.8998
  203MOL    H3940843   0.592   0.957   7.632 -0.3850 -2.6165  0.1556
  203MOL    H4040844   0.454   1.028   7.718  1.4365 -1.3081  1.3950
  203MOL    H4140845   0.333   0.824   7.606 -0.2029  1.4768 -0.2593
  203MOL    C4240846   0.480   0.734   7.702 -0.5398  0.8256  0.3355
  203MOL    O4340847   0.592   0.736   7.756 -0.6430 -0.1980 -0.3780
  203MOL    C4440848   0.390   0.609   7.695  0.5667 -0.4310  0.5426
  203MOL    C4540849   0.406   0.511   0.031 -0.4986  0.5547 -0.1283
  203MOL    N4640850   0.300   0.409   0.035 -0.6729 -0.7657  0.1348
  203MOL    H4740851   0.282   0.623   7.694  0.5874 -0.3772 -0.8165
  203MOL    H4840852   0.414   0.559   7.601 -0.2803 -2.7720  1.5287
  203MOL    H4940853   0.500   0.461   0.007 -0.4624  0.5098  0.1092
  203MOL    H5040854   0.418   0.561   0.127  0.6841 -2.3130  1.2836
  203MOL    H5140855   0.318   0.318   7.776 -0.7771 -0.6079 -0.2885
  203MOL    C5240856   0.178   0.438   0.072  0.8632  0.4219 -0.1356
  203MOL    O5340857   0.146   0.552   0.115 -0.0581  0.0418  0.1247
  203MOL    C5440858   0.074   0.327   0.063  0.1894  0.2849 -0.1786
  203MOL    C5540859   7.758   0.318   0.182  0.3751 -1.3576  0.4415
  203MOL    N5640860   7.650   0.224   0.150  0.3361  0.0682 -0.4590
  203MOL    H5740861   0.030   0.347   7.745  0.7924 -1.7483 -0.8830
  203MOL    H5840862   0.130   0.234   0.063  0.2984  0.3491 -0.0466
  203MOL    H5940863   7.705   0.413   0.188  1.3478 -0.7077 -1.0250
  203MOL    H6040864   0.038   0.306   0.272  0.2629 -0.1878  0.6847
  203MOL    H6140865   7.578   0.253   0.087 -2.3651 -1.6197  1.7408
  203MOL    C6240866   7.650   0.093   0.172  0.1080 -0.2126 -0.3003
  203MOL    O6340867   7.751   0.030   0.206 -0.0086 -0.2698  0.2029
  203MOL    C6440868   7.518   0.028   0.166  0.6448  0.0669 -0.0515
  203MOL    C6540869   7.520   7.650   0.138 -0.0221 -0.6769 -0.3926
  203MOL    N6640870   7.388   7.603   0.096 -0.1094  0.0471 -0.3326
  203MOL    H6740871   7.475   0.046   0.265  1.5728  3.4035 -0.2082
  203MOL    H6840872   7.452   0.093   0.108 -1.4445 -0.1377  2.0015
  203MOL    H6940873   7.587   7.644   0.052  0.7986  2.3688 -0.0172
  203MOL    H7040874   7.559   7.586   0.218  1.1954  0.6625  0.1116
  203MOL    H7140875   7.324   7.559   0.160 -0.1888 -0.3996 -0.7229
  203MOL    C7240876   7.335   7.599   7.754  0.3259 -0.1385 -0.2909
  203MOL    O7340877   7.396   7.629   7.653 -0.4798  0.1935 -0.2000
  203MOL    C7440878   7.194   7.539   7.748 -0.5321  0.8305  0.1128
  203MOL    C7540879   7.179   7.426   7.634 -0.1610  0.7602 -0.6461
  203MOL    N7640880   7.151   7.493   7.509  0.1276 -0.0465  0.1653
  203MOL    H7740881   7.177   7.498   0.067  1.1207 -0.6837 -0.2117
  203MOL    H7840882   7.123   7.617   7.722 -1.0204  0.3404 -0.0353
  203MOL    H7940883   7.265   7.361   7.626 -0.5963 -0.0255  0.8956
  203MOL    H8040884   7.088   7.374   7.664 -0.1471 -0.6638 -2.9626
  203MOL    H8140885   7.180   7.590   7.513 -0.8425  0.3064 -1.2803
  203MOL    C8240886   7.092   7.440   7.402  0.9049  0.7194 -0.1708
  203MOL    O8340887   7.076   7.320   7.391  0.4506 -0.0867 -0.2644
  203MOL    C8440888   7.031   7.531   7.297 -0.2935 -0.2672 -0.5756
  203MOL    C8540889   6.904   7.484   7.225  0.1559 -0.5618 -0.6883
  203MOL    N8640890   6.936   7.417   7.100 -0.5777 -0.1267 -0.8734
  203MOL    H8740891   6.998   7.624   7.342 -2.4078 -0.7675 -1.0198
  203MOL    H8840892   7.105   7.546   7.219 -1.4228  0.6029 -1.4975
  203MOL    H8940893   6.850   7.412   7.288  0.4481 -0.9130 -0.8373
  203MOL    H9040894   6.842   7.571   7.206 -0.1617 -0.8925 -1.1995
  203MOL    H9140895   7.021   7.361   7.103 -0.4611  0.1104  0.6526
  203MOL    C9240896   6.868   7.427   6.984 -0.0235 -0.4775 -0.0945
  203MOL    O9340897   6.774   7.501   6.973  0.3395 -0.2157 -0.0726
  203MOL    C9440898   6.904   7.336   6.870  0.4395  0.1414  0.6093
  203MOL    C9540899   6.858   7.391   6.736 -0.1694 -0.1070 -0.6975
  203MOL    N9640900   6.912   7.330   6.617  0.2884 -0.0229  0.1389
  203MOL    H9740901   7.011   7.321   6.858  0.3540  0.0514 -0.0762
  203MOL    H9840902   6.848   7.246   6.894  1.4522 -1.1943 -1.8174
  203MOL    H9940903   6.752   7.371   6.750  0.2835 -2.0585  0.1740
  203MOL   H10040904   6.886   7.496   6.727 -2.1151  0.5881  0.9595
  203MOL   H10140905   6.985   7.377   6.565  1.0517 -1.8212 -0.4596
  203MOL   C10240906   6.872   7.213   6.561  0.4802  0.0220 -0.0474
  203MOL   O10340907   6.910   7.171   6.451 -0.2928 -0.8423  0.5579
  203MOL   C10440908   6.762   7.132   6.630 -0.6627  0.2196  0.6741
  203MOL   C10540909   6.639   7.125   6.530  0.7226 -0.1839  1.0536
  203MOL   N10640910   6.579   7.262   6.506  0.2581 -0.4677  0.0119
  203MOL   H10740911   6.732   7.161   6.731 -0.1066  0.5013  0.7553
  203MOL   H10840912   6.805   7.032   6.643 -1.1473 -0.0641  0.1443
  203MOL   H10940913   6.667   7.071   6.440 -1.3574  1.2974 -0.5314
  203MOL   H11040914   6.569   7.057   6.577 -0.4227  0.5386  0.4258
  203MOL   H11140915   6.630   7.311   6.434  0.3588  1.6496  1.4830
  203MOL   C11240916   6.517   7.338   6.594 -0.4203  0.4327  0.5151
  203MOL   O11340917   6.476   7.294   6.700  0.2470 -0.1459 -0.0441
  203MOL   C11440918   6.494   7.483   6.555 -0.0282 -0.5994  0.2762
  203MOL   C11540919   6.382   7.557   6.626  0.0514  0.3884 -0.1448
  203MOL   N11640920   6.393   7.703   6.621 -0.4880 -0.8162  0.1411
  203MOL   H11740921   6.486   7.492   6.447 -2.2784  0.3266  0.4944
  203MOL   H11840922   6.581   7.533   6.597 -0.6611  1.2654 -0.6220
  203MOL   H11940923   6.287   7.515   6.595  1.7677 -1.5958 -2.8606
  203MOL   H12040924   6.385   7.536   6.733  0.8577 -1.0012 -0.4311
  203MOL   H12140925   6.351   7.756   6.696 -1.1644 -1.0223 -0.0825
  203MOL   C12240926   6.423   0.000   6.518  0.7533 -0.3225  0.4279
  203MOL   O12340927   6.465   7.741   6.410  0.3413  0.5485 -0.5374
  203MOL   C12440928   6.413   0.147   6.541 -0.5544  0.9226  0.5861
  203MOL   C12540929   6.314   0.216   6.443  0.0300 -0.2742  0.6882
  203MOL   N12640930   6.297   0.351   6.486  0.3997  0.3630  0.5919
  203MOL   H12740931   6.512   0.188   6.523  1.1395 -2.7120  1.0356
  203MOL   H12840932   6.391   0.170   6.645  2.0574  2.3319  0.8456
  203MOL   H12940933   6.366   0.231   6.348  0.3717  1.9697  1.1940
  203MOL   H13040934   6.225   0.158   6.421 -0.6064  0.8639  0.2164
  203MOL   H13140935   6.327   0.371   6.580  1.2012  2.9262 -0.1846
  203MOL   C13240936   6.219   0.439   6.420  0.0111 -0.1939 -0.0013
  203MOL   O13340937   6.187   0.436   6.302 -0.5746  0.6025  0.6334
  203MOL   C13440938   6.180   0.561   6.505  0.3542  0.2045 -0.8245
  203MOL   C13540939   6.158   0.691   6.437  0.2845  0.1618 -0.2616
  203MOL   N13640940   6.263   0.736   6.340 -0.3750 -0.3671  0.9568
  203MOL   H13740941   6.264   0.580   6.572  0.7727  1.1535 -1.6118
  203MOL   H13840942   6.090   0.537   6.562  0.8901 -1.4522 -0.6574
  203MOL   H13940943   6.065   0.690   6.379  0.0119 -1.4245  0.1868
  203MOL   H14040944   6.153   0.772   6.511 -1.5011 -0.2364  0.0815
  203MOL   H14140945   6.266   0.679   6.256  2.3400 -0.4693  1.0890
  203MOL   C14240946   6.344   0.834   6.341  0.0983  0.3127  0.7066
  203MOL   O14340947   6.338   0.916   6.436  0.3539 -0.3505 -0.1389
  203MOL   C14440948   6.438   0.856   6.223  0.8441 -0.9322  0.1874
  203MOL   C14540949   6.422   0.999   6.168 -0.4108  0.4966  0.1431
  203MOL   N14640950   6.491   1.016   6.041 -0.3763 -0.1665 -0.7778
  203MOL   H14740951   6.424   0.783   6.143  0.9898  0.4525 -1.1154
  203MOL   H14840952   6.527   0.837   6.282  0.2902  1.3866  1.8243
  203MOL   H14940953   6.319   1.033   6.161 -0.5094  0.6000  1.8162
  203MOL   H15040954   6.448   1.068   6.248  1.5143 -1.3387  1.1473
  203MOL   H15140955   6.429   1.015   5.961 -1.1406  1.3499 -0.2130
  203MOL   C15240956   6.622   1.032   6.029 -0.7151 -0.3827 -0.2915
  203MOL   O15340957   6.695   1.030   6.128 -0.2300  0.3331 -0.7741
  203MOL   C15440958   6.684   1.037   5.892 -0.2600 -0.2177  0.2833
  203MOL   C15540959   6.828   1.092   5.879  0.5413 -0.1433  0.0909
  203MOL   N15640960   6.837   1.235   5.901  0.6118  0.2183 -0.1009
  203MOL   H15740961   6.621   1.089   5.820  0.5154 -0.6613 -0.7363
  203MOL   H15840962   6.689   0.935   5.854  1.6244  0.7487 -2.2683
  203MOL   H15940963   6.902   1.041   5.941  0.7417 -1.2486 -1.0467
  203MOL   H16040964   6.871   1.062   5.784 -0.1849 -2.8328  0.5626
  203MOL   H16140965   6.866   1.269   5.991 -0.3743 -0.8949  0.6531
  203MOL   C16240966   6.823   1.323   5.799 -0.1035 -0.0889  0.5890
  203MOL   O16340967   6.832   1.282   5.682  0.5520  0.2068  0.0579
  203MOL   C16440968   6.786   1.463   5.830  0.2858  0.4541  0.0395
  203MOL   C16540969   6.641   1.482   5.897 -0.2364 -0.0814  0.3756
  203MOL   N16640970   6.538   1.532   5.800  0.3558  0.2471 -0.5738
  203MOL   H16740971   6.783   1.529   5.743 -0.3659 -0.7302 -0.8442
  203MOL   H16840972   6.858   1.522   5.888  1.0222  0.9270 -1.3269
  203MOL   H16940973   6.618   1.386   5.943  0.3674 -1.3427 -1.8714
  203MOL   H17040974   6.630   1.542   5.987 -2.5572  0.3996 -0.1978
  203MOL   H17140975   6.496   1.461   5.742 -1.3318  1.9725 -1.4907
  203MOL   C17240976   6.470   1.642   5.800 -0.7943  0.1282  0.2556
  203MOL   O17340977   6.505   1.732   5.873 -0.3169  0.3053 -0.5472
  203MOL   C17440978   6.338   1.653   5.726 -0.0302 -0.4330 -0.0050
  203MOL   C17540979   6.234   1.713   5.825 -0.4937  0.0134 -0.0172
  203MOL   N17640980   6.099   1.716   5.772 -0.0070  0.0013  0.2429
  203MOL   H17740981   6.312   1.560   5.675 -2.3812 -0.1618  0.6473
  203MOL   H17840982   6.354   1.717   5.640 -1.7645 -1.3674 -1.0552
  203MOL   H17940983   6.238   1.665   5.922  1.5104 -0.1922 -0.1885
  203MOL   H18040984   6.262   1.817   5.842  2.0412 -0.6530  0.0849
  203MOL   H18140985   6.055   1.806   5.781  0.1597  0.0619  0.4378
  203MOL   C18240986   6.010   1.613   5.756 -0.1761  0.1596  0.2940
  203MOL   O18340987   6.038   1.497   5.783  0.7565 -0.1845 -0.4077
  203MOL   C18440988   5.869   1.653   5.714 -0.2927 -0.0849 -0.4305
  203MOL   C18540989   5.787   1.540   5.653  0.3594  0.8771  0.9661
  203MOL   N18640990   5.759   1.561   5.508 -0.5276  0.0071  0.0932
  203MOL   H18740991   5.880   1.731   5.639 -0.2146  0.6189  0.2976
  203MOL   H18840992   5.812   1.696   5.797  1.7750  2.2170 -0.1630
  203MOL   H18940993   5.855   1.455   5.654  0.4094  0.9281  2.2664
  203MOL   H19040994   5.700   1.505   5.709  1.2492 -1.2604  1.0503
  203MOL   H19140995   5.839   1.553   5.446  0.4637 -0.6786  1.4228
  203MOL   C19240996   5.639   1.599   5.463  0.1864 -0.6624  0.1866
  203MOL   O19340997   5.546   1.626   5.541 -0.6181 -0.2329 -0.6861
  203MOL   C19440998   5.608   1.590   5.315 -0.4903 -0.0600 -0.0419
  203MOL   C19540999   5.479   1.513   5.291  0.1706  0.1304  0.0756
  203MOL   N19641000   5.496   1.370   5.290  0.0084 -0.0490  0.2039
  203MOL   H19741001   5.583   1.690   5.281  0.9277  0.3023 -0.0758
  203MOL   H19841002   5.688   1.545   5.256 -0.4747  1.7193 -1.4161
  203MOL   H19941003   5.405   1.548   5.362  2.1622  2.5833  0.9916
  203MOL   H20041004   5.449   1.540   5.190 -0.8461 -2.0721 -0.2338
  203MOL   H20141005   5.405   1.331   5.309 -0.8336  1.0135 -1.5660
  203MOL   H20241006   5.522   1.340   5.197 -0.4859  1.0970 -0.3102
  204MOL     C141007   6.209   5.639   5.082 -0.0561 -0.7204  0.0320
  204MOL     O241008   6.317   5.615   5.024  1.1866 -0.2855 -0.0710
  204MOL     C341009   6.083   5.552   5.074  0.1488 -0.3739 -0.1878
  204MOL     C441010   6.111   5.419   4.999 -0.0035  0.2823  0.5302
  204MOL     N541011   5.995   5.335   4.998  0.6714  0.1705 -0.6473
  204MOL     H641012   6.015   5.603   5.006  1.8873 -0.4863 -2.0621
  204MOL     H741013   6.033   5.535   5.169 -1.6973 -1.5412 -1.3329
  204MOL     H841014   6.196   5.366   5.041  0.9983  1.6448  0.2726
  204MOL     H941015   6.134   5.444   4.895  2.5915  0.9281  1.2340
  204MOL    H1041016   5.943   5.340   4.912  0.8198  0.6693 -0.7099
  204MOL    H1141017   6.210   5.714   5.161 -1.1855 -1.7488  1.0447
  204MOL    C1241018   5.944   5.275   5.105 -0.7338  0.3234  0.0888
  204MOL    O1341019   5.996   5.290   5.215  0.1398  0.3265  0.4033
  204MOL    C1441020   5.824   5.180   5.089  0.2317 -0.3768 -0.6219
  204MOL    C1541021   5.832   5.061   5.185 -0.3084  0.3334  0.6231
  204MOL    N1641022   5.814   5.095   5.320  0.4582 -0.3504 -0.2062
  204MOL    H1741023   5.812   5.142   4.987 -0.8033 -0.3199 -0.5294
  204MOL    H1841024   5.733   5.232   5.118  0.7419  1.1376 -1.6409
  204MOL    H1941025   5.745   5.011   5.142  0.6329  0.0029 -0.9395
  204MOL    H2041026   5.923   5.006   5.162  1.0952  2.2784  1.3468
  204MOL    H2141027   5.898   5.095   5.376  1.6567  2.2064 -1.8815
  204MOL    C2241028   5.698   5.117   5.385  0.3622  0.4037 -0.8430
  204MOL    O2341029   5.587   5.091   5.342  0.4331  0.1130  0.2459
  204MOL    C2441030   5.711   5.158   5.531 -0.1270  0.3549 -1.0566
  204MOL    C2541031   5.611   5.091   5.622  0.5664 -0.4242 -0.0197
  204MOL    N2641032   5.666   5.060   5.759  0.4986  0.1039 -0.5967
  204MOL    H2741033   5.680   5.263   5.536 -0.4379  0.2047  0.8314
  204MOL    H2841034   5.813   5.148   5.569 -0.8161 -0.2499  0.6828
  204MOL    H2941035   5.519   5.150   5.627 -0.4382 -1.9910  0.4224
  204MOL    H3041036   5.574   4.995   5.584 -0.6157  0.2418 -0.5769
  204MOL    H3141037   5.672   4.961   5.779 -0.3876 -0.1349 -1.5005
  204MOL    C3241038   5.675   5.152   5.855 -0.5799 -1.1336 -0.2158
  204MOL    O3341039   5.663   5.274   5.837  0.0958  0.1112  0.3352
  204MOL    C3441040   5.719   5.111   5.993  0.3905  0.4210 -0.3289
  204MOL    C3541041   5.602   5.101   6.097 -0.0397  0.3248  1.0219
  204MOL    N3641042   5.586   5.221   6.175  0.2705 -0.1120 -0.7106
  204MOL    H3741043   5.805   5.169   6.028  0.2106  0.7073 -0.3623
  204MOL    H3841044   5.775   5.018   5.985  0.8172  0.6886 -0.4990
  204MOL    H3941045   5.510   5.086   6.040 -0.9236 -0.4285  2.6116
  204MOL    H4041046   5.616   5.008   6.152  1.2292  1.0886  2.0110
  204MOL    H4141047   5.626   5.308   6.142 -2.2838  0.5316 -2.2529
  204MOL    C4241048   5.554   5.224   6.306  0.0284 -0.0718  0.1217
  204MOL    O4341049   5.519   5.116   6.364 -0.1016 -0.5983  0.5664
  204MOL    C4441050   5.559   5.352   6.386  0.3956 -0.2312 -0.1259
  204MOL    C4541051   5.502   5.332   6.532 -0.1195  0.3155 -1.3982
  204MOL    N4641052   5.599   5.273   6.625  0.4909  0.5461  0.0670
  204MOL    H4741053   5.665   5.377   6.396  0.0443  2.3029 -2.1734
  204MOL    H4841054   5.515   5.434   6.329  1.8553 -0.5332 -1.7511
  204MOL    H4941055   5.475   5.425   6.580  2.3596  0.6170 -0.4824
  204MOL    H5041056   5.417   5.264   6.529  0.2202 -0.0843 -2.1357
  204MOL    H5141057   5.686   5.255   6.576 -0.9060  0.4453 -2.4616
  204MOL    C5241058   5.586   5.230   6.752  0.3048 -0.0394  0.1430
  204MOL    O5341059   5.483   5.255   6.814 -0.6632 -0.0346 -0.2824
  204MOL    C5441060   5.704   5.159   6.822 -0.7751 -0.5817  0.3091
  204MOL    C5541061   5.694   5.126   6.973  0.7763  0.2075  0.5708
  204MOL    N5641062   5.682   5.247   7.058  0.4230 -0.0237  1.2329
  204MOL    H5741063   5.728   5.070   6.763  0.5547  0.4115 -0.6869
  204MOL    H5841064   5.805   5.199   6.808 -1.7026  1.7286  0.0960
  204MOL    H5941065   5.775   5.061   7.004  0.8950 -0.9024 -1.9704
  204MOL    H6041066   5.604   5.064   6.974  0.3990  0.5778 -3.2174
  204MOL    H6141067   5.618   5.320   7.029  0.0245  0.0102  2.1823
  204MOL    C6241068   5.714   5.242   7.185 -0.1768  0.2366  0.3635
  204MOL    O6341069   5.761   5.145   7.239 -0.6979  0.3264 -0.1448
  204MOL    C6441070   5.692   5.372   7.259 -0.7667  0.9020  0.1824
  204MOL    C6541071   5.659   5.354   7.411  0.7407 -0.0036 -0.0126
  204MOL    N6641072   5.551   5.446   7.445  0.0583 -0.0401  0.3882
  204MOL    H6741073   5.790   5.419   7.266 -0.0741 -0.6274  1.2033
  204MOL    H6841074   5.630   5.434   7.194 -0.6621 -0.8910 -1.7027
  204MOL    H6941075   5.620   5.254   7.429  2.7785 -0.4199  2.3561
  204MOL    H7041076   5.748   5.371   7.471 -0.0948  0.0395  1.2299
  204MOL    H7141077   5.517   5.495   7.363 -2.4872 -1.8184  0.3511
  204MOL    C7241078   5.491   5.466   7.562 -0.4273 -0.5753 -0.4722
  204MOL    O7341079   5.541   5.415   7.663 -0.5285  0.2627 -0.5001
  204MOL    C7441080   5.362   5.554   7.563  0.2731 -0.2607  0.7570
  204MOL    C7541081   5.334   5.618   7.707 -0.1464  0.2451  0.1757
  204MOL    N7641082   5.410   5.735   7.732 -0.4349 -0.3090 -0.3422
  204MOL    H7741083   5.353   5.627   7.482  1.2077  0.2072  1.0587
  204MOL    H7841084   5.281   5.485   7.544 -1.2869  2.1912 -1.9237
  204MOL    H7941085   5.234   5.658   7.722 -0.7898 -0.6711 -1.5204
  204MOL    H8041086   5.340   5.545   0.007 -1.7519 -0.1264 -0.0172
  204MOL    H8141087   5.441   5.784   7.650 -1.0301 -0.6126 -0.7528
  204MOL    C8241088   5.455   5.775   0.069 -0.2248  0.4615  0.3797
  204MOL    O8341089   5.444   5.714   0.176  0.0053  0.4470  0.2152
  204MOL    C8441090   5.548   5.897   0.062 -0.1596  0.2764  0.4645
  204MOL    C8541091   5.652   5.903   0.180 -0.2583  0.1470 -0.1941
  204MOL    N8641092   5.733   6.030   0.179 -0.3008 -0.0346  0.4174
  204MOL    H8741093   5.604   5.884   7.750 -0.7313  0.6880  0.0544
  204MOL    H8841094   5.484   5.983   0.042  0.7582  0.6971 -0.7277
  204MOL    H8941095   5.612   5.903   0.282 -0.1679 -2.0267 -0.1211
  204MOL    H9041096   5.718   5.820   0.155 -0.0819  0.4466 -0.7257
  204MOL    H9141097   5.830   6.015   0.204  0.7743  1.9622 -2.4043
  204MOL    C9241098   5.693   6.158   0.168  0.3084  0.1896 -0.0569
  204MOL    O9341099   5.580   6.187   0.133  0.2100 -0.6543  0.4467
  204MOL    C9441100   5.796   6.269   0.195  0.1068 -0.1153 -0.5594
  204MOL    C9541101   5.744   6.371   0.301  0.2978 -0.6185 -0.0853
  204MOL    N9641102   5.840   6.484   0.314 -0.0208  0.1300  0.6067
  204MOL    H9741103   5.890   6.223   0.225 -0.2444  0.6711  1.8902
  204MOL    H9841104   5.809   6.326   0.104  0.1091  0.3173 -0.2910
  204MOL    H9941105   5.642   6.407   0.289 -0.1207 -1.6375  0.3767
  204MOL   H10041106   5.744   6.329   0.402 -0.4375 -1.2259 -0.3351
  204MOL   H10141107   5.915   6.478   0.381 -0.8185  0.3442  1.5329
  204MOL   C10241108   5.840   6.594   0.235 -0.1128 -0.6402  0.7398
  204MOL   O10341109   5.755   6.624   0.156  0.2278 -0.4289  0.1588
  204MOL   C10441110   5.965   6.678   0.253  0.4128 -0.7716  1.0645
  204MOL   C10541111   6.029   6.726   0.119  0.6572 -0.5337 -0.0895
  204MOL   N10641112   6.167   6.774   0.134  0.2425  0.0016  0.3146
  204MOL   H10741113   6.036   6.614   0.305  0.2227 -1.7229  0.1723
  204MOL   H10841114   5.951   6.769   0.312  1.7338  2.4055 -3.2206
  204MOL   H10941115   6.025   6.649   0.041  1.6201 -1.3460  0.6502
  204MOL   H11041116   5.970   6.805   0.072  0.1199  0.4513  2.2127
  204MOL   H11141117   6.180   6.868   0.169  0.2747 -0.2785  1.0494
  204MOL   C11241118   6.274   6.693   0.125 -0.2458  0.1254  0.6831
  204MOL   O11341119   6.255   6.573   0.095 -0.4390 -0.4004 -0.3356
  204MOL   C11441120   6.413   6.746   0.169  0.2687  1.1423  0.3397
  204MOL   C11541121   6.499   6.630   0.225  0.0037 -0.3155  0.5458
  204MOL   N11641122   6.435   6.551   0.323  0.8013 -0.0375  0.1209
  204MOL   H11741123   6.409   6.829   0.239 -3.1240 -0.6853  2.4343
  204MOL   H11841124   6.462   6.784   0.079 -1.1367 -1.7337 -1.7293
  204MOL   H11941125   6.527   6.561   0.145 -2.5759 -0.0665 -0.6176
  204MOL   H12041126   6.590   6.664   0.274  0.0739 -2.4752  2.0154
  204MOL   H12141127   6.389   6.471   0.281  0.2105  0.1154  0.4669
  204MOL   C12241128   6.402   6.580   0.447  1.0104 -0.6675  0.6874
  204MOL   O12341129   6.440   6.684   0.500 -0.5131  0.6469 -0.5937
  204MOL   C12441130   6.309   6.488   0.520  0.6011 -0.2547  0.5962
  204MOL   C12541131   6.248   6.562   0.640  0.5853 -0.2013  0.3033
  204MOL   N12641132   6.136   6.499   0.709 -0.2581  0.1173  0.0108
  204MOL   H12741133   6.355   6.398   0.559  1.4193  0.5424  1.5081
  204MOL   H12841134   6.231   6.464   0.448  0.7737 -0.6229  0.5310
  204MOL   H12941135   6.331   6.574   0.711 -0.1249  0.8187  0.9851
  204MOL   H13041136   6.223   6.666   0.620  1.3385 -0.5373 -2.5092
  204MOL   H13141137   6.141   6.485   0.809 -0.1471 -0.3881 -0.0619
  204MOL   C13241138   6.016   6.488   0.651  0.5547  0.0248 -0.2651
  204MOL   O13341139   5.991   6.530   0.536 -0.0922 -0.5011 -0.4312
  204MOL   C13441140   5.907   6.417   0.733  0.1965 -0.6414 -0.6046
  204MOL   C13541141   5.774   6.391   0.667  0.1539 -0.0130  0.4645
  204MOL   N13641142   5.705   6.515   0.631  0.0427 -0.1183 -0.0107
  204MOL   H13741143   5.887   6.475   0.823 -1.8813 -0.6681 -1.0223
  204MOL   H13841144   5.967   6.335   0.771  2.8544 -0.0568 -3.3832
  204MOL   H13941145   5.789   6.316   0.590  2.1274  0.4443  0.3919
  204MOL   H14041146   5.709   6.348   0.744  0.2124  0.0774  0.5657
  204MOL   H14141147   5.739   6.601   0.672  1.9146 -1.0347  0.3779
  204MOL   C14241148   5.591   6.529   0.558  0.6224  0.0074 -0.5166
  204MOL   O14341149   5.532   6.431   0.524  0.1658 -0.2976 -0.7974
  204MOL   C14441150   5.533   6.665   0.534 -0.1807  0.0310  0.3605
  204MOL   C14541151   5.528   6.713   0.386  0.8613 -0.4950  0.2281
  204MOL   N14641152   5.601   6.834   0.355  0.2029 -0.3444  0.5599
  204MOL   H14741153   5.576   6.735   0.606 -1.4833  0.0754  1.1039
  204MOL   H14841154   5.428   6.675   0.562  0.2898  0.4348  2.0692
  204MOL   H14941155   5.566   6.630   0.325  0.1083  0.2602 -1.2828
  204MOL   H15041156   5.424   6.724   0.358  0.3000 -0.6032  2.1904
  204MOL   H15141157   5.665   6.841   0.277 -1.3838 -1.1774 -0.8605
  204MOL   C15241158   5.576   6.949   0.412  0.1807 -0.1261 -0.8058
  204MOL   O15341159   5.497   6.968   0.508  0.1692  0.0980 -0.3852
  204MOL   C15441160   5.661   7.067   0.369  0.2150 -0.2227 -0.4028
  204MOL   C15541161   5.631   7.193   0.446  0.5484 -0.4348 -0.1626
  204MOL   N15641162   5.700   7.314   0.391  0.4144 -0.1602 -0.1436
  204MOL   H15741163   5.634   7.081   0.265 -3.4520  0.6768  0.6129
  204MOL   H15841164   5.763   7.033   0.391 -0.9736 -3.0779  0.9847
  204MOL   H15941165   5.524   7.206   0.465  0.4079 -1.5138 -0.1832
  204MOL   H16041166   5.686   7.177   0.539  1.4227 -1.1231 -0.7860
  204MOL   H16141167   5.796   7.298   0.364  0.1406  1.5600 -2.3293
  204MOL   C16241168   5.644   7.433   0.361 -0.4317  0.2924  0.2700
  204MOL   O16341169   5.527   7.452   0.381  0.8861 -0.2162  0.3267
  204MOL   C16441170   5.740   7.537   0.308 -0.0218  0.0137 -0.8930
  204MOL   C16541171   5.701   7.678   0.355  0.4305 -0.0752 -0.4326
  204MOL   N16641172   5.830   7.756   0.355 -0.4425  0.8517  0.2160
  204MOL   H16741173   5.742   7.542   0.199  2.7203 -2.2883 -1.0152
  204MOL   H16841174   5.843   7.515   0.338 -0.0514  0.1611 -0.6808
  204MOL   H16941175   5.635   7.726   0.283  0.8178 -1.2706 -1.6038
  204MOL   H17041176   5.654   7.695   0.451  1.1138  1.0861 -0.2894
  204MOL   H17141177   5.891   7.735   0.433 -0.1874 -0.9072 -0.4250
  204MOL   C17241178   5.877   0.051   0.251  0.1367 -0.1671 -0.0174
  204MOL   O17341179   5.817   0.076   0.140  0.0571  0.1428  0.0901
  204MOL   C17441180   6.016   0.122   0.266  0.4144  0.5238  0.0848
  204MOL   C17541181   6.123   0.071   0.169 -0.3864  0.3992 -0.0663
  204MOL   N17641182   6.165   7.719   0.219  0.4322 -0.4864 -0.2942
  204MOL   H17741183   6.041   0.128   0.372 -0.4479 -2.1699  0.4549
  204MOL   H17841184   5.998   0.225   0.235 -0.5191  0.7202  1.2591
  204MOL   H17941185   6.085   0.071   0.066 -2.8511  2.0826  0.7944
  204MOL   H18041186   6.208   0.139   0.175 -0.7108  0.6844  1.4111
  204MOL   H18141187   6.144   7.696   0.315 -0.9805  1.6459 -0.0480
  204MOL   C18241188   6.230   7.621   0.158 -0.1444 -0.1468 -0.3293
  204MOL   O18341189   6.263   7.527   0.227  0.1726  0.3380  0.5774
  204MOL   C18441190   6.267   7.641   0.015  0.3519 -0.0034 -0.5400
  204MOL   C18541191   6.172   7.563   7.701  0.4064  0.2586  0.4619
  204MOL   N18641192   6.048   7.630   7.688 -0.2743  0.8553 -0.6806
  204MOL   H18741193   6.368   7.604   7.776  0.7949  1.4583 -1.0601
  204MOL   H18841194   6.273   7.747   7.772 -1.8133  0.7027  1.8878
  204MOL   H18941195   6.211   7.545   7.601 -1.8168 -1.8577 -0.0483
  204MOL   H19041196   6.149   7.461   7.731  0.4601 -0.6902 -2.5903
  204MOL   H19141197   6.060   7.728   7.665 -0.3460  1.4804  1.8739
  204MOL   C19241198   5.928   7.574   7.692  0.0872  0.1893 -1.1262
  204MOL   O19341199   5.906   7.460   7.737  0.8572 -0.0819  0.4723
  204MOL   C19441200   5.813   7.669   7.662 -0.4368 -0.6522 -0.6589
  204MOL   C19541201   5.711   7.620   7.551 -0.2652 -0.9259  0.4681
  204MOL   N19641202   5.777   7.600   7.424  0.6701  0.1234 -0.9764
  204MOL   H19741203   5.756   7.679   7.754  1.3315 -1.6015  0.5777
  204MOL   H19841204   5.854   7.769   7.645  0.9294 -0.8387  1.3872
  204MOL   H19941205   5.678   7.523   7.589  1.2758 -1.8364 -0.4802
  204MOL   H20041206   5.626   7.687   7.542  1.3877  1.2390  0.4262
  204MOL   H20141207   5.695   7.611   7.365  0.3371  2.4164 -0.1294
  204MOL   H20241208   5.783   7.499   7.432 -0.5006  0.2789  2.9468
  205MOL     C141209   7.387   7.619   5.619  0.7382  0.8699 -0.0812
  205MOL     O241210   7.282   7.677   5.624  0.4607  0.5929  0.0505
  205MOL     C341211   7.455   7.556   5.495 -0.5042  0.1645 -0.7410
  205MOL     C441212   7.529   7.429   5.540 -0.2838  0.3661 -0.3785
  205MOL     N541213   7.655   7.441   5.612  0.2338 -0.3208  0.1920
  205MOL     H641214   7.530   7.626   5.459 -0.2222 -0.8242 -2.1305
  205MOL     H741215   7.389   7.540   5.411 -1.2823  1.0215 -0.2970
  205MOL     H841216   7.554   7.387   5.442 -0.7969 -1.7028  0.3401
  205MOL     H941217   7.461   7.355   5.583 -0.2476 -0.4733 -1.7358
  205MOL    H1041218   7.647   7.427   5.712 -0.2752  0.2463  0.2323
  205MOL    H1141219   7.443   7.615   5.712  0.4900 -1.0273  0.0045
  205MOL    C1241220   7.768   7.498   5.569 -0.6127  0.0562  0.8606
  205MOL    O1341221   0.005   7.529   5.449  0.1647  0.5016  0.2997
  205MOL    C1441222   0.106   7.516   5.665 -0.8717 -0.2594  0.4890
  205MOL    C1541223   0.122   7.661   5.716 -0.5629  0.1282 -0.4453
  205MOL    N1641224   0.034   7.701   5.827 -0.0388  0.4911 -0.0697
  205MOL    H1741225   0.200   7.486   5.619 -1.7996 -0.5003 -1.3071
  205MOL    H1841226   0.098   7.449   5.751  2.9074  0.5865  1.5874
  205MOL    H1941227   0.228   7.677   5.738 -0.3873  0.1636 -1.2769
  205MOL    H2041228   0.116   7.731   5.632  1.6631 -0.5289 -1.2080
  205MOL    H2141229   7.758   7.628   5.868  0.2256  0.2053 -0.2034
  205MOL    C2241230   0.017   0.050   5.868 -0.0741  0.2087  0.6388
  205MOL    O2341231   0.079   0.148   5.818  0.6828  0.3340  0.2134
  205MOL    C2441232   7.691   0.070   5.976 -0.7139  0.3515 -0.1470
  205MOL    C2541233   7.730   0.189   6.067 -0.5120  0.6655  0.4336
  205MOL    N2641234   7.636   0.212   6.168 -0.1986 -0.1711  0.6384
  205MOL    H2741235   7.689   7.764   6.043  2.2381  0.0167 -0.4130
  205MOL    H2841236   7.603   0.087   5.915 -1.7913 -2.5943  0.5006
  205MOL    H2941237   0.053   0.179   6.100  0.1832  0.5100 -1.7705
  205MOL    H3041238   7.750   0.278   6.006  3.9434  1.4637  2.8134
  205MOL    H3141239   7.597   0.132   6.216 -0.9837 -1.1029 -1.5005
  205MOL    C3241240   7.599   0.334   6.203  0.0946 -0.5252  0.6720
  205MOL    O3341241   7.646   0.440   6.149  0.4123 -0.3492 -0.0381
  205MOL    C3441242   7.507   0.329   6.323  0.2046  0.2781 -0.3087
  205MOL    C3541243   7.574   0.303   6.458 -0.3077  0.2811  0.1948
  205MOL    N3641244   7.479   0.278   6.563  0.3987  0.5063  1.1044
  205MOL    H3741245   7.443   0.242   6.311 -0.2836  0.4419  1.0037
  205MOL    H3841246   7.449   0.421   6.323  0.2807  0.3321  0.9265
  205MOL    H3941247   7.652   0.226   6.455  1.0482  1.6229  0.6130
  205MOL    H4041248   7.623   0.396   6.486 -1.4046  0.3502  1.9150
  205MOL    H4141249   7.383   0.306   6.551  0.1648 -0.4426  0.6860
  205MOL    C4241250   7.515   0.246   6.684 -0.0294  0.6791  0.9041
  205MOL    O4341251   7.632   0.211   6.719  0.1881 -0.3177  0.1084
  205MOL    C4441252   7.414   0.264   6.797 -0.5521 -0.2909  0.7191
  205MOL    C4541253   7.466   0.334   6.920 -0.5426  0.6810  0.2902
  205MOL    N4641254   7.540   0.249   7.013  0.1530  0.3443 -0.3839
  205MOL    H4741255   7.338   0.331   6.757  0.7261  0.6432 -0.1906
  205MOL    H4841256   7.363   0.171   6.825  0.7231 -0.6533  1.9307
  205MOL    H4941257   7.538   0.414   6.905 -0.1928  0.0934 -1.1683
  205MOL    H5041258   7.384   0.381   6.975 -0.5555  2.1826 -0.9827
  205MOL    H5141259   7.630   0.219   6.979  0.1552  0.4036 -0.4310
  205MOL    C5241260   7.506   0.230   7.137 -0.0790  0.4936 -0.8674
  205MOL    O5341261   7.408   0.286   7.188 -0.1933 -0.1746 -0.4325
  205MOL    C5441262   7.589   0.131   7.214 -0.8596  0.7375  0.0551
  205MOL    C5541263   7.743   0.173   7.211  0.8701 -0.1647  0.0918
  205MOL    N5641264   0.039   0.136   7.090  0.0381 -0.2473 -0.2541
  205MOL    H5741265   7.563   0.127   7.319  1.0448 -1.8394  0.4751
  205MOL    H5841266   7.573   0.031   7.174 -0.8581  0.8517 -0.2374
  205MOL    H5941267   0.020   0.119   7.286 -0.6647 -0.5992  0.9673
  205MOL    H6041268   7.755   0.278   7.238 -1.7752  0.6647 -1.6624
  205MOL    H6141269   0.068   0.039   7.092 -2.2938 -0.9620  0.7739
  205MOL    C6241270   0.096   0.225   7.008  0.2600 -0.3118  0.8179
  205MOL    O6341271   0.086   0.346   7.011 -0.0692 -0.3139 -0.1839
  205MOL    C6441272   0.183   0.160   6.904  0.1683  0.4311  0.1799
  205MOL    C6541273   0.319   0.102   6.955 -0.1529  0.5723 -0.1764
  205MOL    N6641274   0.304   7.757   7.026 -0.0074 -0.4585 -0.9467
  205MOL    H6741275   0.143   0.071   6.854 -0.1923  1.4831 -1.4539
  205MOL    H6841276   0.201   0.241   6.833 -2.6280  1.4926  0.6283
  205MOL    H6941277   0.370   0.071   6.865  0.3305  0.2333  0.2153
  205MOL    H7041278   0.379   0.177   7.008  1.8009 -0.4356 -0.9324
  205MOL    H7141279   0.219   7.710   6.999 -0.4928 -0.6291  0.8288
  205MOL    C7241280   0.374   7.706   7.129 -0.1556 -0.8931  0.1781
  205MOL    O7341281   0.467   7.773   7.181  0.2919 -0.3639 -0.3651
  205MOL    C7441282   0.325   7.580   7.192  0.1841 -0.0525  0.2960
  205MOL    C7541283   0.433   7.486   7.232 -0.8507  0.4444  0.4129
  205MOL    N7641284   0.368   7.357   7.248  0.5691  0.1446  0.1948
  205MOL    H7741285   0.253   7.600   7.272  0.8002  0.5536  0.7014
  205MOL    H7841286   0.258   7.540   7.116  0.5935  0.3316 -0.2701
  205MOL    H7941287   0.503   7.475   7.149  0.5839  1.1013  1.5114
  205MOL    H8041288   0.476   7.523   7.325 -1.5774 -0.2355  1.0333
  205MOL    H8141289   0.358   7.308   7.160 -0.8912  2.1803 -0.7933
  205MOL    C8241290   0.361   7.295   7.363  0.3184  1.1080  0.3735
  205MOL    O8341291   0.406   7.339   7.464 -0.9879  0.0357 -0.0807
  205MOL    C8441292   0.298   7.163   7.351 -0.1734  0.6757 -1.3413
  205MOL    C8541293   0.154   7.156   7.399  0.5705  0.2935  0.4034
  205MOL    N8641294   0.098   7.023   7.388 -0.0259 -0.8049  0.2782
  205MOL    H8741295   0.313   7.112   7.256 -5.2114  0.4914 -2.1313
  205MOL    H8841296   0.366   7.116   7.423 -0.9512  0.0209 -1.0165
  205MOL    H8941297   0.132   7.185   7.502 -0.8095  1.0001 -0.0719
  205MOL    H9041298   0.093   7.225   7.341  0.3570  0.8603  1.2838
  205MOL    H9141299   0.137   6.958   7.455 -2.7336 -2.4576  0.2984
  205MOL    C9241300   0.021   6.978   7.295 -0.6834 -0.5914 -0.2327
  205MOL    O9341301   7.769   7.040   7.199 -0.7109 -0.3370 -0.3666
  205MOL    C9441302   7.744   6.838   7.314  0.3334  0.3964  0.5052
  205MOL    C9541303   7.614   6.846   7.387 -0.0122  0.4469  0.5846
  205MOL    N9641304   7.528   6.727   7.360 -0.2876  0.0710 -0.2366
  205MOL    H9741305   7.719   6.790   7.219  2.3045 -1.3498  0.8525
  205MOL    H9841306   0.032   6.770   7.364  0.8198  0.1803 -0.4441
  205MOL    H9941307   7.629   6.856   7.494 -2.5656 -2.3731  1.2767
  205MOL   H10041308   7.566   6.938   7.353  2.1743  0.6535 -2.1725
  205MOL   H10141309   7.534   6.643   7.415  2.2988  1.5500  1.8618
  205MOL   C10241310   7.446   6.735   7.253 -0.1317  0.1855 -0.3031
  205MOL   O10341311   7.431   6.834   7.184  0.1813  0.1842  0.1790
  205MOL   C10441312   7.363   6.611   7.222 -0.0241 -0.0261  0.1579
  205MOL   C10541313   7.405   6.535   7.086 -0.2941  0.2017 -0.5072
  205MOL   N10641314   7.304   6.434   7.050 -0.4417 -0.4466  0.8063
  205MOL   H10741315   7.258   6.641   7.216 -0.8743 -2.6722  0.8186
  205MOL   H10841316   7.367   6.545   7.309 -1.7960 -0.9101 -0.4045
  205MOL   H10941317   7.410   6.611   7.008 -1.0652  0.2407 -0.5243
  205MOL   H11041318   7.505   6.492   7.077  0.0731  1.1214 -0.8897
  205MOL   H11141319   7.309   6.343   7.095 -0.5345 -1.3076 -0.8903
  205MOL   C11241320   7.217   6.453   6.953  0.9247 -0.4910  0.0235
  205MOL   O11341321   7.208   6.561   6.885 -0.5918 -0.0779  0.0685
  205MOL   C11441322   7.135   6.335   6.902  0.7396  0.9282  0.3540
  205MOL   C11541323   7.057   6.358   6.778 -0.1514  0.2695 -0.2847
  205MOL   N11641324   7.160   6.351   6.669  0.5957  0.4779  0.5766
  205MOL   H11741325   7.067   6.308   6.982  1.9281 -0.4768  0.9220
  205MOL   H11841326   7.200   6.248   6.889 -0.8099 -0.2660  0.4518
  205MOL   H11941327   6.982   6.281   6.763 -0.7289  0.5056  1.3925
  205MOL   H12041328   7.010   6.456   6.787  1.1915  0.7295  2.0592
  205MOL   H12141329   7.256   6.366   6.697 -0.0330  1.3131  2.3516
  205MOL   C12241330   7.133   6.355   6.536  0.3081  0.8552 -0.1538
  205MOL   O12341331   7.012   6.362   6.501  0.0807  0.1940 -0.4364
  205MOL   C12441332   7.246   6.370   6.440 -0.6708  0.4196 -0.0863
  205MOL   C12541333   7.200   6.376   6.295  0.4228  0.1124  0.2713
  205MOL   N12641334   7.153   6.252   6.245 -0.2508  0.3407  0.6841
  205MOL   H12741335   7.324   6.296   6.457 -0.7596  0.1944 -0.6492
  205MOL   H12841336   7.286   6.468   6.465  3.2988 -1.7448  2.4917
  205MOL   H12941337   7.123   6.453   6.288  0.3074 -0.2781 -3.4421
  205MOL   H13041338   7.282   6.420   6.238  1.6381  0.4423  2.2350
  205MOL   H13141339   7.053   6.240   6.234 -0.3537  0.5731  1.3426
  205MOL   C13241340   7.220   6.144   6.208  0.0267  0.0814 -0.0888
  205MOL   O13341341   7.341   6.129   6.220 -0.1999  0.3259  0.4128
  205MOL   C13441342   7.138   6.028   6.153 -0.2789 -0.0722  0.2127
  205MOL   C13541343   7.109   5.922   6.258  0.5128  0.4843  0.1945
  205MOL   N13641344   7.005   5.974   6.344  0.0965  1.1107  0.2896
  205MOL   H13741345   7.189   5.975   6.073 -1.5134 -0.2518 -0.4618
  205MOL   H13841346   7.042   6.058   6.111 -0.3302 -0.7640 -0.1677
  205MOL   H13941347   7.095   5.829   6.204 -1.9092  1.8619 -1.6278
  205MOL   H14041348   7.201   5.906   6.314  0.4476 -0.2867  0.0872
  205MOL   H14141349   6.969   6.067   6.325 -1.2926  0.4611 -0.3077
  205MOL   C14241350   6.957   5.909   6.455 -1.0070  0.0676  0.9721
  205MOL   O14341351   6.964   5.788   6.470 -0.2448  0.6563  0.0608
  205MOL   C14441352   6.866   5.988   6.551  0.2400 -0.3815 -0.4273
  205MOL   C14541353   6.872   5.934   6.696 -0.6948 -0.3104  0.6541
  205MOL   N14641354   6.802   6.018   6.789  0.0620 -0.0785 -0.5915
  205MOL   H14741355   6.766   5.999   6.508  0.2041  0.0341 -0.2411
  205MOL   H14841356   6.903   6.091   6.548  4.1633 -1.7339 -0.5543
  205MOL   H14941357   6.834   5.832   6.703  1.6812 -1.5859 -3.2404
  205MOL   H15041358   6.974   5.926   6.732 -1.1771 -1.2335  1.8259
  205MOL   H15141359   6.738   6.078   6.739  1.0838 -0.3052 -2.1993
  205MOL   C15241360   6.825   6.039   6.923 -0.0193  0.3581  0.2382
  205MOL   O15341361   6.917   5.978   6.981 -0.6275 -0.5277  0.2227
  205MOL   C15441362   6.735   6.132   6.997 -0.5013 -0.2969 -0.1514
  205MOL   C15541363   6.768   6.132   7.145  0.0025  0.8156 -0.2031
  205MOL   N15641364   6.704   6.241   7.210  0.5944 -0.2600 -0.2909
  205MOL   H15741365   6.632   6.105   6.973 -1.3086  1.4293  1.2784
  205MOL   H15841366   6.737   6.235   6.959  1.8522 -0.4111 -0.4353
  205MOL   H15941367   6.733   6.038   7.188 -1.6569  1.5365  0.0587
  205MOL   H16041368   6.875   6.144   7.161  0.5812 -1.4341 -1.9858
  205MOL   H16141369   6.746   6.330   7.186  0.5112 -0.6741 -2.0054
  205MOL   C16241370   6.595   6.246   7.288  0.4699  0.2397 -0.1455
  205MOL   O16341371   6.557   6.140   7.340 -0.1239  0.2596 -0.3796
  205MOL   C16441372   6.519   6.382   7.302 -0.5479  0.5622  0.6085
  205MOL   C16541373   6.366   6.369   7.295 -0.1778 -0.0592 -0.7594
  205MOL   N16641374   6.315   6.313   7.413 -0.0552  0.1368  0.6889
  205MOL   H16741375   6.554   6.442   7.218 -0.7336  0.0341  0.1590
  205MOL   H16841376   6.546   6.434   7.394  2.4057  2.0077 -0.9977
  205MOL   H16941377   6.337   6.471   7.269 -0.9513 -0.4675 -1.5359
  205MOL   H17041378   6.339   6.310   7.208 -3.6535  1.9422 -1.1261
  205MOL   H17141379   6.364   6.239   7.462 -0.8832 -0.6525  0.3463
  205MOL   C17241380   6.219   6.380   7.479 -0.2795 -0.3855 -0.3808
  205MOL   O17341381   6.158   6.474   7.433  0.3799 -0.2282  0.7261
  205MOL   C17441382   6.177   6.322   7.617  0.3786  0.8442  0.1546
  205MOL   C17541383   6.050   6.362   7.692 -0.3333 -0.9728  0.2356
  205MOL   N17641384   5.922   6.349   7.624  0.3440  0.2156  0.4455
  205MOL   H17741385   6.263   6.342   7.681  1.6393 -2.0890 -0.5366
  205MOL   H17841386   6.164   6.214   7.612 -0.4858  0.9741 -0.6052
  205MOL   H17941387   6.044   6.298   7.779 -1.3347 -1.9177 -0.5132
  205MOL   H18041388   6.071   6.463   7.728 -0.3524 -1.1615  0.7697
  205MOL   H18141389   5.876   6.437   7.609 -1.2926 -0.6948  0.0015
  205MOL   C18241390   5.869   6.239   7.566 -0.3824 -0.1857  0.1285
  205MOL   O18341391   5.936   6.138   7.552 -0.8403  0.3636 -0.1404
  205MOL   C18441392   5.735   6.237   7.507  0.0969 -0.5546 -0.1037
  205MOL   C18541393   5.666   6.099   7.510  0.5760  0.4555  0.3110
  205MOL   N18641394   5.554   6.092   7.426  0.1586  0.3965 -0.0008
  205MOL   H18741395   5.745   6.280   7.408  0.7130  0.1434  0.2552
  205MOL   H18841396   5.670   6.303   7.565 -1.0952 -0.8724 -1.0589
  205MOL   H18941397   5.732   6.019   7.474 -0.0634 -0.1517  0.4670
  205MOL   H19041398   5.643   6.065   7.611  0.4192 -1.9788 -0.5010
  205MOL   H19141399   5.540   6.165   7.357 -1.2152 -1.4783 -1.7897
  205MOL   C19241400   5.461   5.996   7.424  0.3253  0.5420  0.1736
  205MOL   O19341401   5.445   5.912   7.512 -0.5653 -0.0435 -0.1420
  205MOL   C19441402   5.348   5.994   7.314 -0.4666 -0.0527 -0.5362
  205MOL   C19541403   5.388   5.908   7.200  0.1003  0.3482 -0.2290
  205MOL   N19641404   5.276   5.906   7.112  0.0702  0.3947  0.0927
  205MOL   H19741405   5.258   5.949   7.357 -0.2660  0.5097  0.4816
  205MOL   H19841406   5.328   6.094   7.277 -1.0897  0.0845  0.1439
  205MOL   H19941407   5.468   5.952   7.140  0.4221 -0.2621 -0.2517
  205MOL   H20041408   5.414   5.808   7.234 -1.2744  0.1111  0.1299
  205MOL   H20141409   5.274   5.990   7.058 -0.3150  0.7395  0.6440
  205MOL   H20241410   5.313   5.839   7.045  2.0879  2.6525 -1.1367
  206MOL     C141411   6.310   6.373   2.964 -0.5271  0.2424 -0.3540
  206MOL     O241412   6.431   6.385   2.956 -0.0183 -0.7977  0.4974
  206MOL     C341413   6.212   6.384   2.855  0.3180  0.2262  0.2654
  206MOL     C441414   6.128   6.517   2.861 -0.2863 -0.0602 -0.0191
  206MOL     N541415   6.016   6.495   2.946 -0.0810 -0.2631 -0.2123
  206MOL     H641416   6.154   6.293   2.842  3.1622 -1.8523  1.4763
  206MOL     H741417   6.277   6.394   2.767 -1.8641 -1.8678 -1.6349
  206MOL     H841418   6.091   6.534   2.760 -2.0531 -0.6628  0.5078
  206MOL     H941419   6.196   6.597   2.889  2.3355 -1.8979 -0.9208
  206MOL    H1041420   5.950   6.427   2.910  1.2657 -1.0062 -1.3149
  206MOL    H1141421   6.272   6.344   3.062  0.9817  0.1456  0.2240
  206MOL    C1241422   5.996   6.553   3.064  0.8399  0.3215 -0.0858
  206MOL    O1341423   6.076   6.627   3.118  0.4509  0.0698 -0.6481
  206MOL    C1441424   5.862   6.515   3.135  0.6478  0.2557 -0.5712
  206MOL    C1541425   5.824   6.615   3.246 -0.5162 -0.3585  0.0918
  206MOL    N1641426   5.731   6.559   3.342 -0.1592 -0.4149 -0.1977
  206MOL    H1741427   5.891   6.420   3.180 -0.4952  1.0384  1.9082
  206MOL    H1841428   5.782   6.494   3.065  0.5680  1.8315 -0.9868
  206MOL    H1941429   5.910   6.640   3.308  1.7548 -2.0636 -2.2894
  206MOL    H2041430   5.783   6.707   3.204  0.7525  0.0558 -0.2450
  206MOL    H2141431   5.757   6.552   3.439  1.0748 -0.7394 -0.5425
  206MOL    C2241432   5.603   6.541   3.317  0.4400 -0.2243 -0.4557
  206MOL    O2341433   5.550   6.562   3.208 -0.1830 -0.0325 -0.0820
  206MOL    C2441434   5.519   6.500   3.439  0.1550 -0.2707 -0.0479
  206MOL    C2541435   5.362   6.509   3.422 -0.3734  0.8323 -1.0260
  206MOL    N2641436   5.278   6.505   3.554 -0.2380  0.5162 -0.2585
  206MOL    H2741437   5.551   6.555   3.528  0.6970  0.0385 -0.4292
  206MOL    H2841438   5.543   6.394   3.453 -0.7068 -0.5127 -0.3962
  206MOL    H2941439   5.328   6.581   3.347  0.1894 -0.1550 -2.2445
  206MOL    H3041440   5.337   6.415   3.373  0.4454  1.2628 -2.2982
  206MOL    H3141441   5.230   6.592   3.572 -2.1247 -0.6227  0.3895
  206MOL    C3241442   5.273   6.405   3.645  0.2580 -0.1548  0.2409
  206MOL    O3341443   5.322   6.295   3.624 -0.1050  0.3926 -0.1775
  206MOL    C3441444   5.182   6.419   3.765  0.0127 -0.1877 -0.6636
  206MOL    C3541445   5.233   6.347   3.887 -0.3908  0.5424  0.0504
  206MOL    N3641446   5.163   6.382   4.016  0.8423  0.2742 -0.8195
  206MOL    H3741447   5.079   6.389   3.748 -0.3979  0.1836  1.0852
  206MOL    H3841448   5.200   6.525   3.783 -0.7575 -0.1318 -0.2340
  206MOL    H3941449   5.200   6.244   3.874  2.8514 -0.5543  0.0772
  206MOL    H4041450   5.340   6.355   3.901 -0.0576 -0.9331 -1.4854
  206MOL    H4141451   5.113   6.469   4.024  0.5480 -0.0969  1.7389
  206MOL    C4241452   5.186   6.315   4.134 -0.2407 -0.8974 -0.1411
  206MOL    O4341453   5.263   6.217   4.139  0.4564 -0.7114 -0.1423
  206MOL    C4441454   5.114   6.367   4.263 -0.2303  0.6822 -0.0107
  206MOL    C4541455   5.055   6.263   4.361  0.3202 -0.6140 -0.0595
  206MOL    N4641456   4.908   6.280   4.389  1.7177  0.0696 -0.2472
  206MOL    H4741457   5.192   6.415   4.321  0.1416  0.0103  0.0449
  206MOL    H4841458   5.033   6.432   4.230 -0.8439 -0.4542 -0.7938
  206MOL    H4941459   5.071   6.163   4.322 -0.4149 -1.0807  0.7998
  206MOL    H5041460   5.118   6.272   4.450 -0.3869 -2.5565  0.6699
  206MOL    H5141461   4.839   6.215   4.353  1.4445 -0.6276  1.4936
  206MOL    C5241462   4.862   6.387   4.455 -0.3176 -0.4219 -0.4220
  206MOL    O5341463   4.927   6.491   4.484 -0.1031 -0.1115 -0.2528
  206MOL    C5441464   4.712   6.365   4.499 -0.6561 -0.3601  0.4663
  206MOL    C5541465   4.638   6.495   4.538 -0.1203  0.1866 -0.2458
  206MOL    N5641466   4.579   6.565   4.423  0.2317 -0.1811 -0.4823
  206MOL    H5741467   4.653   6.304   4.431  1.1053 -0.6761 -0.8097
  206MOL    H5841468   4.716   6.321   4.599  0.0683  0.4938  0.8201
  206MOL    H5941469   4.703   6.561   4.594  0.1463 -1.5503  1.5370
  206MOL    H6041470   4.551   6.478   4.600 -2.3897  2.1336 -2.7588
  206MOL    H6141471   4.592   6.665   4.418  0.0014 -0.1956 -1.5101
  206MOL    C6241472   4.471   6.521   4.354  0.1834  0.9248 -0.1330
  206MOL    O6341473   4.422   6.406   4.368 -0.3903  0.0967 -0.0556
  206MOL    C6441474   4.402   6.627   4.265  0.4309  0.4795 -0.1124
  206MOL    C6541475   4.289   6.570   4.176  0.3957 -0.3838  0.5518
  206MOL    N6641476   4.341   6.546   4.037  0.5926 -0.0747  0.5184
  206MOL    H6741477   4.360   6.700   4.334 -0.4877  1.2043 -1.3973
  206MOL    H6841478   4.485   6.666   4.205  0.0795 -1.6915 -2.0631
  206MOL    H6941479   4.241   6.487   4.226  0.2725 -0.7035 -0.0938
  206MOL    H7041480   4.204   6.637   4.166  1.1053  0.6418  1.2806
  206MOL    H7141481   4.405   6.620   4.012 -1.2220  2.0355  1.9384
  206MOL    C7241482   4.281   6.483   3.937  0.2900 -0.5536 -0.5662
  206MOL    O7341483   4.166   6.438   3.953  0.0699 -0.4847  0.0659
  206MOL    C7441484   4.354   6.490   3.807  0.1509 -0.0089 -0.9395
  206MOL    C7541485   4.255   6.510   3.685 -0.9679  0.4408  0.1018
  206MOL    N7641486   4.316   6.500   3.556 -0.1324 -0.1157 -0.6161
  206MOL    H7741487   4.431   6.567   3.799 -0.5825  0.8599  0.1541
  206MOL    H7841488   4.409   6.398   3.791  1.0083  0.5789 -1.4280
  206MOL    H7941489   4.165   6.448   3.690 -0.5047 -0.3784 -1.6270
  206MOL    H8041490   4.226   6.615   3.693  1.1702  1.0269  0.4155
  206MOL    H8141491   4.410   6.535   3.542 -0.5473  0.8890 -0.8838
  206MOL    C8241492   4.249   6.440   3.454 -0.3102 -0.6039  0.2880
  206MOL    O8341493   4.132   6.405   3.455 -0.1639 -0.5051 -0.3521
  206MOL    C8441494   4.320   6.431   3.316  0.2760 -0.0455  0.0124
  206MOL    C8541495   4.247   6.530   3.223  0.4194  0.1065 -0.1301
  206MOL    N8641496   4.280   6.507   3.084 -0.4570 -0.1353 -0.0534
  206MOL    H8741497   4.428   6.446   3.310  0.4699 -0.8950  1.1551
  206MOL    H8841498   4.299   6.326   3.295 -2.6349  0.6697 -0.8515
  206MOL    H8941499   4.139   6.521   3.240  0.1460 -1.2325 -2.3800
  206MOL    H9041500   4.294   6.627   3.238  1.0089 -0.0097 -1.1456
  206MOL    H9141501   4.212   6.465   3.022 -1.0287  0.5879  0.0843
  206MOL    C9241502   4.399   6.529   3.025  0.7757 -0.3305 -0.0880
  206MOL    O9341503   4.506   6.545   3.083  0.3872 -0.3629 -0.6145
  206MOL    C9441504   4.404   6.497   2.874  0.1959  0.5306 -0.2930
  206MOL    C9541505   4.456   6.359   2.855  0.0605 -0.0374  1.2397
  206MOL    N9641506   4.357   6.254   2.864  0.0441 -0.0443 -0.2523
  206MOL    H9741507   4.308   6.506   2.824 -0.7158 -2.4137  0.7859
  206MOL    H9841508   4.478   6.569   2.839  1.2449  0.4302  1.5955
  206MOL    H9941509   4.498   6.354   2.755  2.0962  0.5351  2.0512
  206MOL   H10041510   4.538   6.339   2.925  1.0396 -1.6627 -0.3442
  206MOL   H10141511   4.294   6.259   2.785 -0.2973  0.5111  0.0582
  206MOL   C10241512   4.332   6.180   2.972  0.3035  0.1970 -0.6027
  206MOL   O10341513   4.406   6.187   3.071  0.0105 -0.1628 -0.2936
  206MOL   C10441514   4.210   6.084   2.959 -0.3299  0.3291  0.3773
  206MOL   C10541515   4.254   5.941   2.968 -0.0029  0.3323 -0.6677
  206MOL   N10641516   4.299   5.892   2.839 -0.0189  0.0744 -0.4259
  206MOL   H10741517   4.142   6.105   2.876  0.2242  1.8359  0.2803
  206MOL   H10841518   4.153   6.107   3.049  1.4017  0.0610  1.5839
  206MOL   H10941519   4.318   5.919   3.054 -0.9086 -1.2660 -0.3806
  206MOL   H11041520   4.158   5.894   2.990  0.7235 -0.5676  0.6385
  206MOL   H11141521   4.298   5.955   2.760 -0.1003 -0.1886 -0.6323
  206MOL   C11241522   4.299   5.764   2.810  1.0772 -0.0922  0.5925
  206MOL   O11341523   4.291   5.673   2.893  0.2346 -0.1749 -0.3404
  206MOL   C11441524   4.302   5.729   2.658  0.3506  0.4262 -0.1371
  206MOL   C11541525   4.169   5.675   2.603 -0.4110  0.0818 -0.0263
  206MOL   N11641526   4.051   5.760   2.631 -0.3441  0.9277  0.1805
  206MOL   H11741527   4.374   5.648   2.647  1.9933  1.1777  4.1900
  206MOL   H11841528   4.331   5.816   2.598 -1.1946 -0.0004 -1.5444
  206MOL   H11941529   4.178   5.660   2.495 -2.0498 -1.1264 -0.0011
  206MOL   H12041530   4.160   5.573   2.639  1.9075 -0.3508 -0.5679
  206MOL   H12141531   4.052   5.857   2.603  0.6751  1.3573  1.6486
  206MOL   C12241532   3.945   5.711   2.697 -0.6811 -0.2028  0.2822
  206MOL   O12341533   3.923   5.596   2.743 -0.4936  0.5020 -0.2684
  206MOL   C12441534   3.835   5.818   2.709 -0.2826  0.2225 -0.1975
  206MOL   C12541535   3.715   5.794   2.620 -0.5001 -0.5227 -1.0693
  206MOL   N12641536   3.738   5.841   2.483  0.2742  0.2711 -0.1569
  206MOL   H12741537   3.877   5.918   2.695 -0.9715  0.4962 -0.3247
  206MOL   H12841538   3.806   5.824   2.814 -0.7975  0.6319 -0.3626
  206MOL   H12941539   3.689   5.688   2.624  0.6653 -0.8539 -2.1240
  206MOL   H13041540   3.625   5.842   2.660  1.3819  2.7145 -0.5532
  206MOL   H13141541   3.790   5.783   2.419 -0.5330  0.0115 -0.5883
  206MOL   C13241542   3.664   5.936   2.413  0.2072  0.2535 -0.2207
  206MOL   O13341543   3.578   6.001   2.466  0.1680 -0.1035  0.2075
  206MOL   C13441544   3.690   5.959   2.263 -0.4944  0.6704  0.1396
  206MOL   C13541545   3.821   6.040   2.234 -0.0998 -0.2589 -0.5806
  206MOL   N13641546   3.940   5.967   2.262 -0.4411  0.1651 -0.4313
  206MOL   H13741547   3.612   6.020   2.218 -0.7926 -1.3219 -2.1435
  206MOL   H13841548   3.679   5.866   2.208 -1.7968  2.4144 -2.6965
  206MOL   H13941549   3.816   6.079   2.132  2.3354 -0.7819 -0.9167
  206MOL   H14041550   3.821   6.132   2.293 -4.4099  0.1676 -1.0936
  206MOL   H14141551   3.992   5.977   2.349 -1.4027 -1.6307  0.3900
  206MOL   C14241552   3.989   5.878   2.175  0.2605 -0.9520 -0.1178
  206MOL   O14341553   3.933   5.849   2.064  0.4154 -0.4782 -0.0120
  206MOL   C14441554   4.112   5.804   2.208 -0.1896  0.0655 -0.5124
  206MOL   C14541555   4.116   5.661   2.161  0.1644  0.2769 -0.1736
  206MOL   N14641556   4.060   5.562   2.251 -0.3323  0.0586  0.8811
  206MOL   H14741557   4.138   5.812   2.313 -0.6355  1.4576 -0.5023
  206MOL   H14841558   4.201   5.847   2.161 -1.1363 -0.4129 -2.8321
  206MOL   H14941559   4.070   5.637   2.065  1.4835 -1.2421 -0.4497
  206MOL   H15041560   4.221   5.642   2.136  0.3173  1.4004 -0.4324
  206MOL   H15141561   3.964   5.575   2.277 -0.5388 -1.4503  0.8970
  206MOL   C15241562   4.112   5.444   2.283 -0.3124 -0.3503 -1.0901
  206MOL   O15341563   4.214   5.408   2.226  0.5205  0.7043  0.2684
  206MOL   C15441564   4.039   5.355   2.392  0.0203 -0.2852  0.2629
  206MOL   C15541565   3.971   5.236   2.319 -0.3565 -0.1899  0.4192
  206MOL   N15641566   3.924   5.133   2.416  0.3017  0.4305  0.0075
  206MOL   H15741567   3.977   5.414   2.458 -2.2682 -0.1121 -1.9636
  206MOL   H15841568   4.125   5.314   2.446 -0.6001 -2.3241 -0.2433
  206MOL   H15941569   3.892   5.264   2.250  0.1592  0.9038  0.2556
  206MOL   H16041570   4.050   5.190   2.259 -0.9949  1.5017 -1.7816
  206MOL   H16141571   3.849   5.155   2.481 -0.8327 -2.6354 -0.1744
  206MOL   C16241572   3.960   5.002   2.411 -0.1095 -0.3885 -0.0247
  206MOL   O16341573   4.051   4.964   2.335  0.3438 -0.1146  0.0051
  206MOL   C16441574   3.895   4.916   2.521  0.1658  0.4033  0.8485
  206MOL   C16541575   3.987   4.830   2.611  0.4461 -0.2787 -0.0033
  206MOL   N16641576   3.928   4.705   2.643  0.4039  0.3272  0.1757
  206MOL   H16741577   3.809   4.856   2.492  0.4717 -0.3485  1.4691
  206MOL   H16841578   3.840   4.982   2.589 -3.5324  0.8928 -2.4239
  206MOL   H16941579   4.081   4.819   2.558 -0.8836  0.8611 -2.6729
  206MOL   H17041580   4.011   4.876   2.707  0.8020  1.1098 -0.7485
  206MOL   H17141581   3.828   4.692   2.636  0.4563  0.3375 -0.6783
  206MOL   C17241582   3.997   4.598   2.678 -0.7348 -0.2054 -0.2205
  206MOL   O17341583   4.111   4.592   2.706 -0.1646 -0.0776  0.2733
  206MOL   C17441584   3.912   4.469   2.689 -0.0198  0.2745 -0.4887
  206MOL   C17541585   3.919   4.385   2.561 -0.0905 -0.5650  0.2098
  206MOL   N17641586   3.813   4.280   2.550 -0.3655  0.9874 -0.0058
  206MOL   H17741587   3.806   4.486   2.711 -0.0561 -0.2737 -0.2213
  206MOL   H17841588   3.940   4.412   2.778 -1.0518 -0.1930 -0.4494
  206MOL   H17941589   3.920   4.447   2.471 -0.5106 -0.2815  0.4009
  206MOL   H18041590   4.016   4.336   2.570 -1.1855 -2.9163 -0.3068
  206MOL   H18141591   3.792   4.232   2.637  0.2936  0.9323  0.1323
  206MOL   C18241592   3.759   4.229   2.437 -0.5704 -1.3141  0.1999
  206MOL   O18341593   3.784   4.282   2.329 -0.0874 -0.4259 -0.2000
  206MOL   C18441594   3.659   4.116   2.455  0.6579  0.2103  0.0508
  206MOL   C18541595   3.507   4.149   2.417 -0.2880 -0.1616 -0.3731
  206MOL   N18641596   3.402   4.072   2.492 -0.7040 -0.0330 -0.2961
  206MOL   H18741597   3.670   4.074   2.554 -1.5082 -2.4382 -0.7741
  206MOL   H18841598   3.693   4.030   2.397 -0.1971 -1.8348  2.5315
  206MOL   H18941599   3.495   4.256   2.430  0.1507 -0.0670 -0.7088
  206MOL   H19041600   3.487   4.141   2.310 -0.6217 -2.8818 -0.1428
  206MOL   H19141601   3.355   3.993   2.450  0.9765 -0.7347 -0.8718
  206MOL   C19241602   3.345   4.104   2.612 -0.4285  0.1561 -0.1737
  206MOL   O19341603   3.378   4.208   2.670  0.0775  0.5717 -0.0984
  206MOL   C19441604   3.239   4.003   2.663 -0.5146  0.1120 -0.1131
  206MOL   C19541605   3.128   4.045   2.761  0.0085 -0.0526 -0.3337
  206MOL   N19641606   3.183   4.079   2.894 -0.0708  0.1498  0.4004
  206MOL   H19741607   3.193   3.952   2.579  0.1670 -1.0051  0.1691
  206MOL   H19841608   3.292   3.928   2.722  0.7024 -0.2437 -1.6185
  206MOL   H19941609   3.068   4.129   2.724  0.4967 -0.0714 -1.1791
  206MOL   H20041610   3.067   3.956   2.777  0.3910  0.0655  1.8357
  206MOL   H20141611   3.253   4.151   2.878 -1.3797  0.8729 -2.3769
  206MOL   H20241612   3.228   4.003   2.944 -0.3015 -0.6460 -0.5960
  207MOL     C141613   6.436   0.049   3.417  0.6781  0.1251 -0.1073
  207MOL     O241614   6.373   0.070   3.526 -0.3879 -0.0515 -0.2210
  207MOL     C341615   6.566   7.750   3.427  0.0740  0.1383 -0.0118
  207MOL     C441616   6.554   7.597   3.431  0.4492  0.0080 -0.9832
  207MOL     N541617   6.514   7.541   3.305 -0.0680  0.6219  0.1321
  207MOL     H641618   6.600   0.002   3.526  0.9553  0.5944 -0.4641
  207MOL     H741619   6.634   0.005   3.349 -1.3450 -0.6140 -1.6103
  207MOL     H841620   6.475   7.571   3.501  1.6069 -0.0507  0.3205
  207MOL     H941621   6.640   7.551   3.479 -0.1546  1.2944  1.4545
  207MOL    H1041622   6.421   7.502   3.310 -0.7384  2.5029  4.3584
  207MOL    H1141623   6.410   0.105   3.327  0.3916  1.5268  0.8157
  207MOL    C1241624   6.573   7.546   3.187 -0.2910  0.3697 -0.0202
  207MOL    O1341625   6.686   7.586   3.170 -0.2866 -0.5456 -0.2192
  207MOL    C1441626   6.502   7.482   3.064  0.4641 -0.1148 -0.4383
  207MOL    C1541627   6.416   7.582   2.984  0.4510 -0.0411 -0.1576
  207MOL    N1641628   6.292   7.606   3.056 -0.2926 -0.3889  0.3027
  207MOL    H1741629   6.440   7.396   3.089  0.4228 -0.1452 -0.6469
  207MOL    H1841630   6.576   7.447   2.993  0.2020  0.3048 -0.9238
  207MOL    H1941631   6.481   7.660   2.945 -0.0485  0.1233 -0.6634
  207MOL    H2041632   6.385   7.522   2.899 -2.8035  2.2008 -0.6333
  207MOL    H2141633   6.232   7.526   3.073  0.5297 -1.0248  0.2074
  207MOL    C2241634   6.237   7.728   3.085 -0.2378 -0.0185 -0.2665
  207MOL    O2341635   6.292   0.060   3.070  0.6005 -0.4226  0.0303
  207MOL    C2441636   6.090   7.723   3.141 -0.6312  0.7341 -0.8146
  207MOL    C2541637   6.067   0.003   3.283 -0.1305 -0.4420  0.8433
  207MOL    N2641638   5.927   0.020   3.323 -0.1379 -0.4323 -0.1080
  207MOL    H2741639   6.054   7.620   3.137 -1.1040  0.8866 -0.4901
  207MOL    H2841640   6.021   7.769   3.069 -0.9609  1.4104 -0.0746
  207MOL    H2941641   6.125   7.738   3.364 -0.4049 -0.9527  0.7566
  207MOL    H3041642   6.105   0.105   3.286 -0.9208 -0.1378  0.5382
  207MOL    H3141643   5.895   7.738   3.396  0.2074  0.9498  1.2229
  207MOL    C3241644   5.834   0.091   3.258  0.9757 -0.4939  0.0491
  207MOL    O3341645   5.851   0.166   3.155 -0.2172  0.6901  0.2026
  207MOL    C3441646   5.691   0.082   3.317  0.3656 -0.5052  0.3454
  207MOL    C3541647   5.577   0.071   3.202 -0.4340  0.3068 -0.3902
  207MOL    N3641648   5.436   0.072   3.241  0.2705 -0.6135  0.4304
  207MOL    H3741649   5.679   0.183   3.355 -0.0443  0.8165 -3.1101
  207MOL    H3841650   5.680   0.001   3.389  1.5630 -2.2585 -1.3902
  207MOL    H3941651   5.582   0.149   3.126 -0.3715  0.7437  0.0537
  207MOL    H4041652   5.601   7.763   3.143 -0.7817  0.7679 -1.2309
  207MOL    H4141653   5.396   0.155   3.284 -1.3578 -1.5805  0.8128
  207MOL    C4241654   5.366   7.739   3.235  0.2351  0.3296  0.2350
  207MOL    O4341655   5.413   7.631   3.194  0.4158  0.0280 -0.3621
  207MOL    C4441656   5.220   7.738   3.265 -0.5563 -0.1083  0.2872
  207MOL    C4541657   5.141   7.604   3.237 -0.1228  1.0241  0.5480
  207MOL    N4641658   5.149   7.502   3.338  0.0596  0.3649  0.2013
  207MOL    H4741659   5.220   7.760   3.372 -0.5598  0.6139  0.1407
  207MOL    H4841660   5.167   0.032   3.206  0.4037 -1.1332 -1.9397
  207MOL    H4941661   5.034   7.619   3.226 -0.0541  0.9690 -0.2469
  207MOL    H5041662   5.177   7.549   3.150 -1.7512  1.4938 -0.4395
  207MOL    H5141663   5.201   7.522   3.422 -1.0651 -2.3734  1.6050
  207MOL    C5241664   5.076   7.388   3.332  0.2671 -0.4757 -0.8151
  207MOL    O5341665   5.006   7.359   3.231 -0.0483 -0.2368  0.1397
  207MOL    C5441666   5.080   7.308   3.459  0.0210  0.7346 -0.4696
  207MOL    C5541667   5.026   7.166   3.449  0.0603  0.2957  0.5527
  207MOL    N5641668   5.104   7.088   3.349  0.9259 -0.2005 -0.1751
  207MOL    H5741669   5.179   7.295   3.503 -0.5420 -0.4496  0.4935
  207MOL    H5841670   5.025   7.359   3.538  0.1141  0.6865 -0.3736
  207MOL    H5941671   4.924   7.174   3.412  0.7376  0.6709 -1.2819
  207MOL    H6041672   5.040   7.125   3.549  0.7061  1.9836  1.1830
  207MOL    H6141673   5.200   7.120   3.344  0.2960  1.7070 -0.2771
  207MOL    C6241674   5.069   7.002   3.259  0.7210 -0.4290 -0.1380
  207MOL    O6341675   4.957   6.957   3.249  0.2843 -0.0972 -0.2536
  207MOL    C6441676   5.171   6.970   3.150 -0.2911  0.3417 -0.4462
  207MOL    C6541677   5.135   6.984   3.007 -0.9811  0.0336 -0.3393
  207MOL    N6641678   5.092   7.117   2.966  0.2577  0.5276 -0.2927
  207MOL    H6741679   5.263   7.026   3.167 -0.4894  0.3069  0.7879
  207MOL    H6841680   5.192   6.864   3.167  1.7146  0.5978 -1.1716
  207MOL    H6941681   5.207   6.937   2.940 -1.6586 -2.5838  0.6959
  207MOL    H7041682   5.041   6.932   2.990 -0.1603 -1.2871 -0.9456
  207MOL    H7141683   5.079   7.191   3.034 -1.7304  0.3149 -0.4142
  207MOL    C7241684   5.058   7.147   2.840 -0.3182 -0.0457  1.1215
  207MOL    O7341685   5.075   7.058   2.757  0.2047 -0.6231 -0.6609
  207MOL    C7441686   5.011   7.290   2.806 -0.3007  0.1069  0.2614
  207MOL    C7541687   5.014   7.325   2.656 -1.0451  0.7526  0.1741
  207MOL    N7641688   4.923   7.440   2.624  0.0101  0.5893  0.0497
  207MOL    H7741689   4.908   7.298   2.840 -0.2876 -0.9093  0.5629
  207MOL    H7841690   5.070   7.361   2.863 -1.6495 -0.3491  2.2810
  207MOL    H7941691   5.118   7.348   2.630  0.2462 -2.8478  1.7584
  207MOL    H8041692   4.980   7.243   2.593  2.6291 -0.6378 -0.1328
  207MOL    H8141693   4.827   7.425   2.653 -0.4252  0.8620 -1.1918
  207MOL    C8241694   4.959   7.565   2.585  0.3588  0.0641  0.1285
  207MOL    O8341695   5.077   7.589   2.561 -0.3971  0.4051 -0.4496
  207MOL    C8441696   4.852   7.675   2.586 -0.4636 -0.3708  0.3295
  207MOL    C8541697   4.785   7.691   2.448  0.3205  0.9385 -0.8113
  207MOL    N8641698   4.883   7.704   2.338 -0.1884  0.5428 -0.2418
  207MOL    H8741699   4.785   7.638   2.664 -2.1523 -0.3165 -1.0720
  207MOL    H8841700   4.903   7.770   2.604 -0.3769  0.2330 -2.7709
  207MOL    H8941701   4.712   7.615   2.421 -0.5194  0.8745  1.4743
  207MOL    H9041702   4.723   0.000   2.446 -2.4466 -0.9619 -1.6193
  207MOL    H9141703   4.982   7.683   2.348 -0.6609 -0.9002  1.5808
  207MOL    C9241704   4.844   7.727   2.215  0.3663 -0.3088 -0.2557
  207MOL    O9341705   4.723   7.744   2.189  0.0327 -0.3855  0.2094
  207MOL    C9441706   4.946   7.717   2.103  0.1146  0.5335 -0.2159
  207MOL    C9541707   4.971   0.067   2.023  0.0257  0.4768 -1.1454
  207MOL    N9641708   4.856   0.079   1.930  0.9351  0.2993 -0.0279
  207MOL    H9741709   5.037   7.697   2.160 -1.2344 -0.6642  1.5751
  207MOL    H9841710   4.934   7.625   2.046  1.3797 -0.4329  1.0339
  207MOL    H9941711   4.982   0.151   2.092  1.7216 -0.4264 -0.2723
  207MOL   H10041712   5.068   0.078   1.974  1.0259  0.9938  0.8750
  207MOL   H10141713   4.770   0.117   1.967  1.4461  1.3041  0.1542
  207MOL   C10241714   4.846   0.033   1.805  0.7040 -0.2410 -0.1582
  207MOL   O10341715   4.935   7.757   1.745 -0.5066 -0.2933  0.1702
  207MOL   C10441716   4.713   0.051   1.730 -0.1410 -0.5193  0.0087
  207MOL   C10541717   4.748   0.126   1.600 -0.2880 -0.1346 -0.3224
  207MOL   N10641718   4.621   0.177   1.543 -0.1253 -0.4421  0.7257
  207MOL   H10741719   4.642   0.106   1.792  0.0920  0.4187 -0.5468
  207MOL   H10841720   4.663   7.737   1.706 -1.7075  0.4274 -0.4599
  207MOL   H10941721   4.796   0.219   1.628 -0.9041 -0.9314  3.6401
  207MOL   H11041722   4.811   0.066   1.533 -0.3940  0.6451 -1.1294
  207MOL   H11141723   4.607   0.272   1.573 -1.8914 -1.2538  2.6463
  207MOL   C11241724   4.537   0.105   1.464  0.5736 -0.5198 -0.1869
  207MOL   O11341725   4.559   7.771   1.428  0.3576 -0.5828 -0.5913
  207MOL   C11441726   4.412   0.176   1.417  0.9581 -0.1075  0.1934
  207MOL   C11541727   4.280   0.128   1.494  1.0165  0.0174 -0.3052
  207MOL   N11641728   4.256   0.208   1.613 -0.2433 -0.1296 -0.0328
  207MOL   H11741729   4.404   0.167   1.309  1.4164 -0.0848  0.1578
  207MOL   H11841730   4.434   0.281   1.440 -1.3725  0.0129  2.1057
  207MOL   H11941731   4.200   0.140   1.421  0.1745  1.6539  0.8655
  207MOL   H12041732   4.283   0.023   1.523 -3.7930 -0.0228  0.4769
  207MOL   H12141733   4.232   0.302   1.584 -0.3866 -0.7183 -1.8417
  207MOL   C12241734   4.250   0.161   1.738 -0.4576 -0.3532 -0.3516
  207MOL   O12341735   4.284   0.044   1.757  0.4586  0.1013  0.0250
  207MOL   C12441736   4.204   0.253   1.852 -0.3386  0.2046  1.0736
  207MOL   C12541737   4.201   0.184   1.987 -0.4090  0.0383  0.1894
  207MOL   N12641738   4.110   0.067   2.002  0.2313 -0.0739  0.0114
  207MOL   H12741739   4.102   0.281   1.828  0.1477  1.0002 -0.1572
  207MOL   H12841740   4.260   0.347   1.852 -0.8657  0.5303 -0.8453
  207MOL   H12941741   4.300   0.140   1.998 -0.3383  0.0002 -0.5871
  207MOL   H13041742   4.195   0.259   2.066  1.1438  1.2902 -0.8336
  207MOL   H13141743   4.144   7.752   1.996 -1.6358 -0.8070  0.7016
  207MOL   C13241744   3.979   0.079   2.016 -0.3896  0.2143  0.4853
  207MOL   O13341745   3.923   0.190   2.030 -0.7401 -0.5335 -0.4539
  207MOL   C13441746   3.884   7.741   2.001 -0.4710 -0.5302 -0.4426
  207MOL   C13541747   3.728   7.766   2.018 -0.0147  0.3518  1.1067
  207MOL   N13641748   3.691   0.005   2.158  0.3933 -0.0692 -0.5560
  207MOL   H13741749   3.915   7.670   2.078  1.7308  0.9953  0.1374
  207MOL   H13841750   3.900   7.689   1.907  0.2724  2.3180 -1.9382
  207MOL   H13941751   3.692   0.072   1.961 -2.2496  0.5742  2.7491
  207MOL   H14041752   3.679   7.685   1.965  2.5838  0.2211 -1.1754
  207MOL   H14141753   3.708   0.098   2.193 -0.5695  0.1128 -0.5758
  207MOL   C14241754   3.649   7.684   2.231  0.5628  0.6779 -0.8124
  207MOL   O14341755   3.622   7.577   2.188  0.0176  0.2505  0.0160
  207MOL   C14441756   3.635   7.706   2.383  0.1682  0.0391 -0.0588
  207MOL   C14541757   3.754   7.649   2.454 -0.0107  0.1002  0.3116
  207MOL   N14641758   3.856   7.750   2.475  0.0934  0.4971  0.3741
  207MOL   H14741759   3.552   7.640   2.409  0.2876  0.0157  0.2608
  207MOL   H14841760   3.608   0.029   2.405  0.2038  0.2909 -1.1600
  207MOL   H14941761   3.720   7.617   2.553 -0.9387 -0.7114 -0.2626
  207MOL   H15041762   3.792   7.568   2.393  0.2008 -0.0298  0.6153
  207MOL   H15141763   3.825   0.051   2.527 -0.1209  0.6835 -0.0337
  207MOL   C15241764   3.966   7.778   2.398 -0.4408  0.0578  0.2734
  207MOL   O15341765   4.000   7.703   2.310 -0.6362 -0.4985  0.6243
  207MOL   C15441766   4.053   0.120   2.422  0.2899 -0.7488  0.1983
  207MOL   C15541767   4.197   0.092   2.470  0.4731  0.7492 -0.5423
  207MOL   N15641768   4.297   0.194   2.437 -0.3033 -0.1955  0.1305
  207MOL   H15741769   3.996   0.197   2.474  1.7477  0.4761  0.0052
  207MOL   H15841770   4.071   0.160   2.322 -0.4908 -1.1356 -0.1058
  207MOL   H15941771   4.191   0.095   2.579  1.2832  0.1779 -0.4757
  207MOL   H16041772   4.234   7.776   2.435 -0.4246  0.1246  0.2168
  207MOL   H16141773   4.262   0.272   2.383 -2.0045 -1.8285 -1.2002
  207MOL   C16241774   4.428   0.197   2.476 -0.1140 -0.5351  0.1333
  207MOL   O16341775   4.484   0.121   2.548  0.8035  0.2135  0.1791
  207MOL   C16441776   4.512   0.312   2.420 -1.2047  0.5921  0.3869
  207MOL   C16541777   4.609   0.271   2.308 -0.6606  0.1985  0.4418
  207MOL   N16641778   4.612   0.370   2.205 -0.6666 -0.4587  0.4384
  207MOL   H16741779   4.563   0.349   2.509 -2.5163 -0.6928  1.7049
  207MOL   H16841780   4.445   0.393   2.390 -0.4267  1.4525  0.9500
  207MOL   H16941781   4.704   0.243   2.354 -1.0213  0.9008  1.6061
  207MOL   H17041782   4.566   0.187   2.253 -0.9129  0.8247 -0.3260
  207MOL   H17141783   4.614   0.464   2.240 -0.6521 -0.1403 -0.4074
  207MOL   C17241784   4.626   0.343   2.075 -0.1857  0.1886  0.3476
  207MOL   O17341785   4.637   0.226   2.025 -0.0871 -0.3298 -0.0695
  207MOL   C17441786   4.640   0.459   1.984  0.1757  0.2770  1.0210
  207MOL   C17541787   4.666   0.413   1.836 -0.0678  0.1733 -0.0145
  207MOL   N17641788   4.717   0.529   1.755 -0.4531 -0.7632  0.7503
  207MOL   H17741789   4.723   0.514   2.029  0.3143  0.1523  0.9210
  207MOL   H17841790   4.561   0.531   1.966  0.3697  0.6316  1.5913
  207MOL   H17941791   4.730   0.325   1.825  0.1294  0.3754 -0.4960
  207MOL   H18041792   4.572   0.382   1.791 -0.7713  0.5662  1.1737
  207MOL   H18141793   4.788   0.585   1.800  1.1895 -0.7943 -1.7442
  207MOL   C18241794   4.704   0.543   1.621 -0.4206  0.7633 -0.5120
  207MOL   O18341795   4.632   0.461   1.557 -0.6876 -0.2367 -0.2608
  207MOL   C18441796   4.776   0.646   1.546  0.4219  0.1759 -0.2759
  207MOL   C18541797   4.695   0.778   1.552 -0.1746 -0.2680 -0.8497
  207MOL   N18641798   4.696   0.849   1.685  0.0778  0.0778 -0.3253
  207MOL   H18741799   4.787   0.596   1.450 -1.5332 -0.4002 -0.2121
  207MOL   H18841800   4.877   0.664   1.583 -0.1597  1.0539  0.9003
  207MOL   H18941801   4.727   0.848   1.475  1.4577 -1.3909 -1.2162
  207MOL   H19041802   4.588   0.774   1.533 -0.2711  1.4166 -0.8063
  207MOL   H19141803   4.602   0.863   1.716 -0.7571 -0.1438 -2.6511
  207MOL   C19241804   4.802   0.893   1.758  1.0608 -0.0590  0.0519
  207MOL   O19341805   4.910   0.867   1.726  0.1030  0.8128  0.0401
  207MOL   C19441806   4.774   0.971   1.890 -0.3180  0.1228  0.8608
  207MOL   C19541807   4.892   1.044   1.957  0.5429  0.1426  0.0334
  207MOL   N19641808   4.993   0.956   2.019 -0.0193 -0.5328 -0.2012
  207MOL   H19741809   4.708   1.052   1.860 -0.2319 -0.3004 -0.5232
  207MOL   H19841810   4.735   0.907   1.969 -2.1351 -1.1673 -1.0060
  207MOL   H19941811   4.939   1.101   1.876  1.2895  0.4695  0.7009
  207MOL   H20041812   4.850   1.120   2.023  2.7244 -0.0916  1.7230
  207MOL   H20141813   4.945   0.897   2.086 -3.0777  1.4957 -0.4555
  207MOL   H20241814   5.040   0.898   1.952  0.9353 -0.3323  0.2944
  208MOL     C141815   1.098   5.262   7.346 -0.3523  0.0560  0.1681
  208MOL     O241816   1.025   5.334   7.279 -0.2626  0.0858 -0.0030
  208MOL     C341817   1.228   5.314   7.406  0.1394 -0.5835 -0.0224
  208MOL     C441818   1.265   5.454   7.348 -0.3254  0.7423 -0.7449
  208MOL     N541819   1.319   5.442   7.214  0.1763 -0.3593  0.5625
  208MOL     H641820   1.312   5.256   7.369 -0.1415 -0.5468 -0.7346
  208MOL     H741821   1.220   5.303   7.514  2.6520  0.2336  0.2796
  208MOL     H841822   1.354   5.495   7.395  0.5092 -0.2395 -1.4530
  208MOL     H941823   1.179   5.519   7.367  0.4447  1.2821  0.9423
  208MOL    H1041824   1.419   5.426   7.211  0.2996  0.5784 -1.2350
  208MOL    H1141825   1.089   5.155   7.360  0.0796 -0.0086 -0.0351
  208MOL    C1241826   1.264   5.469   7.094  0.2460  0.1264  0.5149
  208MOL    O1341827   1.148   5.505   7.085 -0.8120 -0.0083 -0.4921
  208MOL    C1441828   1.354   5.463   6.973  0.3476 -0.0422 -0.5632
  208MOL    C1541829   1.279   5.508   6.841  0.4789 -0.5524 -1.3222
  208MOL    N1641830   1.357   5.477   6.724 -0.0910 -0.5409  0.3553
  208MOL    H1741831   1.391   5.361   6.959 -0.8456 -0.4928 -0.5179
  208MOL    H1841832   1.439   5.529   6.987  1.6762 -1.0483 -3.3032
  208MOL    H1941833   1.180   5.463   6.840  1.3194 -2.4786  0.3054
  208MOL    H2041834   1.270   5.617   6.848 -2.6980 -0.9194  0.9999
  208MOL    H2141835   1.417   5.555   6.704 -1.0334  0.4192  1.1512
  208MOL    C2241836   1.311   5.395   6.634  1.0347  0.3092 -0.3286
  208MOL    O2341837   1.207   5.332   6.647 -0.7883  0.8781 -0.1190
  208MOL    C2441838   1.377   5.395   6.509 -0.1650 -0.3125 -0.1461
  208MOL    C2541839   1.295   5.454   6.398  0.1195  0.3196  0.5608
  208MOL    N2641840   1.364   5.421   6.269  0.8838 -0.7452 -0.1727
  208MOL    H2741841   1.413   5.294   6.486 -1.1591 -0.8428  0.6180
  208MOL    H2841842   1.475   5.442   6.520 -0.3530  0.2643 -0.8614
  208MOL    H2941843   1.194   5.413   6.391  0.8761 -1.2606 -2.1218
  208MOL    H3041844   1.276   5.561   6.400 -0.6028  0.1903  0.5978
  208MOL    H3141845   1.325   5.352   6.206  1.6122  0.2707 -1.7638
  208MOL    C3241846   1.466   5.476   6.219  0.6889  0.5013  0.9865
  208MOL    O3341847   1.504   5.584   6.255 -0.4445  0.4746  0.3986
  208MOL    C3441848   1.538   5.399   6.104  0.1388  0.1341  0.0594
  208MOL    C3541849   1.536   5.475   5.972 -0.2709  0.6160  0.8128
  208MOL    N3641850   1.659   5.556   5.957  0.5082 -0.8896  0.0508
  208MOL    H3741851   1.476   5.311   6.090 -0.6262  0.2008  2.8811
  208MOL    H3841852   1.641   5.376   6.134  0.0135  0.6651  0.9141
  208MOL    H3941853   1.521   5.399   5.896 -0.9169  0.8682  0.6896
  208MOL    H4041854   1.445   5.535   5.966 -1.0422 -0.7298 -1.4824
  208MOL    H4141855   1.699   5.585   6.045  2.5992 -4.4600  0.3800
  208MOL    C4241856   1.723   5.577   5.842  0.2048 -0.0380 -0.6689
  208MOL    O4341857   1.698   5.514   5.738  0.8293  0.1061 -0.5402
  208MOL    C4441858   1.831   5.682   5.840  0.1154  0.3944  0.0226
  208MOL    C4541859   1.794   5.798   5.747  0.4592 -0.0093 -0.7130
  208MOL    N4641860   1.831   5.930   5.791 -0.2852  0.0259  0.1452
  208MOL    H4741861   1.850   5.717   5.941  0.3878 -1.4180  0.6046
  208MOL    H4841862   1.924   5.635   5.808  1.6878  1.3293  3.0149
  208MOL    H4941863   1.816   5.780   5.641  0.2791  0.3954 -0.8187
  208MOL    H5041864   1.685   5.803   5.740  0.0747 -0.9817  3.4908
  208MOL    H5141865   1.757   5.962   5.852 -1.7212  0.6400 -1.8607
  208MOL    C5241866   1.929   6.004   5.739 -0.0447  0.0084  0.0272
  208MOL    O5341867   2.016   5.958   5.669 -0.0410  0.2806  0.3767
  208MOL    C5441868   1.949   6.148   5.781  0.0502  0.8639 -0.6102
  208MOL    C5541869   1.942   6.258   5.672  0.4864 -0.6938  0.0391
  208MOL    N5641870   1.988   6.393   5.718 -0.3011  0.1160  0.2607
  208MOL    H5741871   1.878   6.172   5.860  2.2320 -1.3929  2.1414
  208MOL    H5841872   2.049   6.149   5.825 -0.2426  2.4666  0.0438
  208MOL    H5941873   1.844   6.257   5.625  0.3107 -0.6174  0.4013
  208MOL    H6041874   2.012   6.227   5.595  1.8801  0.6112  0.7617
  208MOL    H6141875   2.024   6.397   5.812  1.7888  0.2707 -0.5257
  208MOL    C6241876   2.019   6.489   5.634 -0.0008  0.5228  1.3880
  208MOL    O6341877   1.988   6.494   5.512 -0.1137 -0.2776  0.7106
  208MOL    C6441878   2.091   6.607   5.692  0.4392  0.3319 -0.2726
  208MOL    C6541879   2.157   6.706   5.590 -0.9272  0.2880  0.7526
  208MOL    N6641880   2.252   6.792   5.647 -0.5673  0.4446  0.7145
  208MOL    H6741881   2.035   6.652   5.775 -1.3660 -0.1077 -1.2341
  208MOL    H6841882   2.173   6.552   5.739 -1.5380 -0.3231  2.6128
  208MOL    H6941883   2.200   6.646   5.510 -2.7356 -1.0078  0.7192
  208MOL    H7041884   2.077   6.767   5.547  0.3746  0.6922 -1.1569
  208MOL    H7141885   2.248   6.807   5.746  1.3683 -1.0963  1.0594
  208MOL    C7241886   2.342   6.867   5.585  0.7980  0.0124  0.2021
  208MOL    O7341887   2.358   6.872   5.464  0.3074  0.0946 -0.3549
  208MOL    C7441888   2.430   6.954   5.674  0.8720 -0.2598  0.0020
  208MOL    C7541889   2.574   6.901   5.693  0.3175 -0.0826  0.0997
  208MOL    N7641890   2.677   6.998   5.699  0.6482  0.4429  0.1651
  208MOL    H7741891   2.424   7.054   5.631  0.3004 -0.0986  0.4628
  208MOL    H7841892   2.386   6.966   5.773  2.3125  1.5340  0.4489
  208MOL    H7941893   2.577   6.840   5.784  1.6000 -1.4415 -0.8412
  208MOL    H8041894   2.600   6.824   5.621  2.4876  1.9797 -1.3866
  208MOL    H8141895   2.690   7.064   5.623 -0.1239 -0.0816 -0.4293
  208MOL    C8241896   2.765   7.022   5.801 -0.6177  0.0008  0.6264
  208MOL    O8341897   2.769   6.960   5.905  0.0346 -0.5825  0.1619
  208MOL    C8441898   2.873   7.134   5.782 -0.0509  0.0942 -0.3049
  208MOL    C8541899   3.017   7.088   5.751 -0.4335 -0.2500  0.2656
  208MOL    N8641900   3.054   7.052   5.608  0.4313 -0.5516 -0.7076
  208MOL    H8741901   2.830   7.213   5.720  0.6104  0.4403 -0.3299
  208MOL    H8841902   2.887   7.181   5.879 -1.9259 -1.1912  0.6181
  208MOL    H8941903   3.083   7.175   5.757 -1.6885  0.6116  2.3154
  208MOL    H9041904   3.052   7.008   5.817 -3.2206 -0.3485  1.6941
  208MOL    H9141905   3.099   6.963   5.591  0.5383 -0.9786  1.6864
  208MOL    C9241906   3.028   7.127   5.499 -0.8348 -0.1607  0.1674
  208MOL    O9341907   2.962   7.221   5.501  0.3692  0.0660 -1.1041
  208MOL    C9441908   3.095   7.078   5.373 -0.2019  0.5818  0.2653
  208MOL    C9541909   3.168   7.186   5.295 -0.7532 -0.2248 -0.2068
  208MOL    N9641910   3.259   7.148   5.184 -0.2393 -0.5271  0.6072
  208MOL    H9741911   3.170   7.005   5.404 -0.8068 -0.0537  0.2225
  208MOL    H9841912   3.023   7.023   5.313  0.3476 -0.6689  0.7314
  208MOL    H9941913   3.096   7.259   5.257  1.1657  1.8538  0.0568
  208MOL   H10041914   3.228   7.256   5.353  0.1352  0.6723 -2.1414
  208MOL   H10141915   3.352   7.121   5.213 -0.2810 -0.7101  0.5674
  208MOL   C10241916   3.212   7.132   5.058  0.2771 -0.0126  0.6030
  208MOL   O10341917   3.100   7.158   5.027 -0.0232 -0.7370 -0.3932
  208MOL   C10441918   3.324   7.089   4.953  0.8881 -0.3943  0.0591
  208MOL   C10541919   3.333   6.935   4.926 -0.1511  0.1874 -0.0274
  208MOL   N10641920   3.214   6.878   4.870  0.4545  0.8909 -0.4093
  208MOL   H10741921   3.416   7.138   4.985  0.0370  1.7893 -0.7536
  208MOL   H10841922   3.283   7.130   4.861 -0.1400  1.5096  1.3246
  208MOL   H10941923   3.410   6.935   4.849  0.3625 -0.8592  0.4873
  208MOL   H11041924   3.361   6.874   5.012  0.1099 -0.0786 -0.3024
  208MOL   H11141925   3.202   6.883   4.770  0.1959  4.8427 -0.2582
  208MOL   C11241926   3.114   6.823   4.945 -0.4922  0.2302  0.4420
  208MOL   O11341927   3.140   6.806   5.064  0.2396 -0.1681  0.0693
  208MOL   C11441928   2.978   6.789   4.884 -0.2357 -0.4154 -0.6136
  208MOL   C11541929   2.875   6.859   4.962 -0.4634  0.2758  0.3849
  208MOL   N11641930   2.760   6.896   4.882  0.6009 -0.1154  0.2530
  208MOL   H11741931   2.973   6.681   4.868 -1.1572 -0.7904  1.9193
  208MOL   H11841932   2.993   6.829   4.784  0.9189 -3.6548 -1.7775
  208MOL   H11941933   2.840   6.789   5.038  1.0165 -1.2744 -0.3280
  208MOL   H12041934   2.902   6.950   5.015 -1.8942 -0.0612  1.7511
  208MOL   H12141935   2.771   6.988   4.842  0.6153 -0.4453 -0.5087
  208MOL   C12241936   2.655   6.813   4.846 -0.3041  0.3355 -0.0294
  208MOL   O12341937   2.637   6.699   4.892 -0.8577  0.1255  0.7498
  208MOL   C12441938   2.555   6.871   4.750  0.3066  0.0793  0.3426
  208MOL   C12541939   2.557   6.812   4.612 -0.0592  0.3025 -0.3522
  208MOL   N12641940   2.582   6.910   4.506  0.1730  0.0944 -0.2202
  208MOL   H12741941   2.581   6.976   4.741 -0.5745  0.2734 -0.0682
  208MOL   H12841942   2.461   6.851   4.802  0.6286 -3.3348 -0.2113
  208MOL   H12941943   2.635   6.736   4.608  0.3433  0.7468 -0.9085
  208MOL   H13041944   2.456   6.776   4.589  0.8184 -1.4872 -1.5498
  208MOL   H13141945   2.503   6.937   4.449  0.2530  0.9494  0.0525
  208MOL   C13241946   2.703   6.962   4.482 -0.0445  0.3196  0.1911
  208MOL   O13341947   2.796   6.956   4.561  0.0921  0.2003  0.1196
  208MOL   C13441948   2.728   7.035   4.348  0.2333 -0.2960 -0.0330
  208MOL   C13541949   2.756   7.188   4.367 -0.3367  0.4296 -0.1645
  208MOL   N13641950   2.644   7.283   4.373  0.2932 -0.4128  0.1973
  208MOL   H13741951   2.647   7.018   4.277 -1.1836 -0.4342  1.5888
  208MOL   H13841952   2.808   6.985   4.294  0.7209  0.3830  0.0455
  208MOL   H13941953   2.809   7.199   4.462  0.9251 -0.5596 -0.7378
  208MOL   H14041954   2.832   7.224   4.297 -0.9304  1.4372 -0.3072
  208MOL   H14141955   2.625   7.330   4.461 -0.1324 -0.4347  0.1209
  208MOL   C14241956   2.596   7.342   4.264  0.4471 -0.4011 -0.1519
  208MOL   O14341957   2.630   7.300   4.154  0.0759  0.3080 -0.2151
  208MOL   C14441958   2.496   7.457   4.274 -0.0097  0.0339 -0.2772
  208MOL   C14541959   2.430   7.497   4.142  0.0443 -0.2981  0.1945
  208MOL   N14641960   2.512   7.588   4.058  0.3286  0.3903 -0.3183
  208MOL   H14741961   2.551   7.542   4.315 -0.4624 -0.0294  0.4765
  208MOL   H14841962   2.422   7.434   4.351 -1.0094 -1.8487 -1.7677
  208MOL   H14941963   2.397   7.406   4.092 -0.1645  0.4091 -0.9639
  208MOL   H15041964   2.346   7.559   4.171 -0.8380 -0.6896 -1.4573
  208MOL   H15141965   2.610   7.584   4.081  0.3695  0.6431 -0.4520
  208MOL   C15241966   2.474   7.685   3.978  0.2764 -0.2898  0.8188
  208MOL   O15341967   2.354   7.702   3.943  0.2487 -0.3733 -0.2837
  208MOL   C15441968   2.581   0.007   3.942 -0.0364 -0.5228 -1.2195
  208MOL   C15541969   2.543   0.146   3.991  0.1865  0.0109 -0.2400
  208MOL   N15641970   2.538   0.154   4.143  0.1395 -0.3912 -0.1252
  208MOL   H15741971   2.592   7.773   3.835  1.9960 -0.0607 -1.1014
  208MOL   H15841972   2.679   7.761   3.982  0.6232  3.0985 -0.2626
  208MOL   H15941973   2.592   0.227   3.937  0.4981  1.0350  1.5360
  208MOL   H16041974   2.439   0.163   3.964  0.2393 -0.0810 -0.5102
  208MOL   H16141975   2.456   0.114   4.186  0.4960 -0.5358  0.4395
  208MOL   C16241976   2.638   0.189   4.221  0.4978  0.2703  0.0486
  208MOL   O16341977   2.747   0.226   4.171  0.0416  0.3073  0.7812
  208MOL   C16441978   2.612   0.189   4.369 -0.0623 -0.1160  0.1098
  208MOL   C16541979   2.565   0.051   4.427  0.3171 -0.4122  0.1911
  208MOL   N16641980   2.614   0.020   4.562  0.4922 -0.2008 -0.2636
  208MOL   H16741981   2.533   0.263   4.385  0.0128 -0.4308  2.0511
  208MOL   H16841982   2.698   0.234   4.419  0.4805 -1.3176  0.2653
  208MOL   H16941983   2.457   0.038   4.416  0.0892  0.4445  1.3100
  208MOL   H17041984   2.611   7.753   4.367 -1.0331  0.2074 -1.7219
  208MOL   H17141985   2.705   7.756   4.566  1.2740  1.3825 -0.3411
  208MOL   C17241986   2.557   0.055   4.681  1.2449  0.2953  0.1358
  208MOL   O17341987   2.446   0.116   4.691 -0.8358 -0.1774 -0.3340
  208MOL   C17441988   2.640   0.019   4.801 -0.5752  0.6742 -0.3395
  208MOL   C17541989   2.608   7.659   4.852  0.2097  0.6491  0.6554
  208MOL   N17641990   2.722   7.565   4.820 -0.1799 -0.0195 -0.1744
  208MOL   H17741991   2.619   0.094   4.877 -2.9652  0.8334 -1.1064
  208MOL   H17841992   2.746   0.020   4.777 -0.6087  0.0996 -0.5224
  208MOL   H17941993   2.587   7.645   4.958  0.6473 -2.0187  0.4116
  208MOL   H18041994   2.521   7.620   4.798  0.2481 -0.5678  1.4680
  208MOL   H18141995   2.799   7.544   4.882  0.1174 -1.2341 -0.9357
  208MOL   C18241996   2.719   7.470   4.726  0.2189 -0.5241  0.0462
  208MOL   O18341997   2.632   7.453   4.643  0.0570  0.3755 -0.0918
  208MOL   C18441998   2.841   7.384   4.710 -0.3599  0.9155  0.4874
  208MOL   C18541999   2.829   7.239   4.773 -0.5411 -0.3243  0.6230
  208MOL   N18642000   2.838   7.238   4.917 -0.4223 -0.0445 -0.3995
  208MOL   H18742001   2.930   7.430   4.752  1.6791 -0.0766 -2.5613
  208MOL   H18842002   2.871   7.382   4.605  3.5096  2.3691  1.4906
  208MOL   H18942003   2.727   7.209   4.748 -0.5637 -0.7323  1.1906
  208MOL   H19042004   2.906   7.173   4.735  0.0896  0.4753  0.5157
  208MOL   H19142005   2.931   7.236   4.956 -0.5767  1.5118  0.0748
  208MOL   C19242006   2.737   7.221   5.005 -0.2888  0.2779  0.4249
  208MOL   O19342007   2.625   7.209   4.963 -0.2305  0.4328 -0.1957
  208MOL   C19442008   2.762   7.191   5.154 -0.1657  0.5569  0.2311
  208MOL   C19542009   2.660   7.250   5.258 -0.2709 -0.3003 -0.0880
  208MOL   N19642010   2.684   7.180   5.385 -0.0358  0.3422  0.0891
  208MOL   H19742011   2.764   7.083   5.167  0.4047  0.8365  2.6498
  208MOL   H19842012   2.855   7.237   5.187  0.4356 -0.6665  0.2831
  208MOL   H19942013   2.666   7.359   5.268 -2.0164 -0.2952  1.2412
  208MOL   H20042014   2.563   7.226   5.216 -0.2465  0.7904 -0.8029
  208MOL   H20142015   2.622   7.216   5.455 -0.8734 -1.2289  0.1824
  208MOL   H20242016   2.780   7.188   5.418 -0.4089  1.7525  0.8790
  209MOL     C142017   3.529   3.501   5.332  0.3941  0.3705 -0.3660
  209MOL     O242018   3.497   3.481   5.449  0.4322  0.1707 -0.1514
  209MOL     C342019   3.552   3.385   5.242 -0.9391 -0.1808 -0.8644
  209MOL     C442020   3.506   3.244   5.282  0.1026  0.0061 -0.7879
  209MOL     N542021   3.584   3.170   5.385 -0.3113  0.3386 -0.1831
  209MOL     H642022   3.659   3.396   5.226 -0.6325  0.1550  1.2372
  209MOL     H742023   3.502   3.411   5.149 -0.6620  0.0065 -0.9602
  209MOL     H842024   3.513   3.201   5.182  4.0862  0.6653 -0.8780
  209MOL     H942025   3.402   3.243   5.312  0.2471  0.8995 -0.2583
  209MOL    H1042026   3.556   3.192   5.480  0.7710  2.3018 -0.2941
  209MOL    H1142027   3.513   3.594   5.278 -1.3174 -0.0774 -0.6616
  209MOL    C1242028   3.681   3.081   5.367  0.4200  0.6314  0.1217
  209MOL    O1342029   3.686   3.022   5.259 -0.1122  0.1520  0.0405
  209MOL    C1442030   3.783   3.054   5.479 -0.4709  0.3784  0.4694
  209MOL    C1542031   3.922   3.058   5.431 -0.1709  0.0767  0.6598
  209MOL    N1642032   4.021   3.031   5.538 -0.0307  0.0210  0.9244
  209MOL    H1742033   3.762   2.952   5.512  0.2277  0.0267 -0.1427
  209MOL    H1842034   3.777   3.130   5.557  2.1513 -0.2129  1.2990
  209MOL    H1942035   3.931   2.973   5.364  0.5406  0.5627  0.1390
  209MOL    H2042036   3.945   3.146   5.370  0.4896  0.8233  1.9538
  209MOL    H2142037   4.024   2.943   5.588 -0.1195 -0.1512  0.6231
  209MOL    C2242038   4.122   3.109   5.576  0.8312 -0.6715 -0.4137
  209MOL    O2342039   4.132   3.223   5.531 -0.6776 -0.3598 -0.0393
  209MOL    C2442040   4.228   3.056   5.671  0.2740 -0.8166 -0.1773
  209MOL    C2542041   4.330   3.156   5.723  0.3314 -0.0216 -0.0953
  209MOL    N2642042   4.444   3.081   5.768  0.3648  0.0642  0.4906
  209MOL    H2742043   4.264   2.969   5.616 -1.3998 -2.0008  0.5597
  209MOL    H2842044   4.158   3.020   5.747 -0.7503 -0.7544 -1.0814
  209MOL    H2942045   4.359   3.229   5.647  2.9881 -2.2922 -1.3486
  209MOL    H3042046   4.297   3.207   5.813 -0.6319  0.9108 -0.9603
  209MOL    H3142047   4.437   3.044   5.862  1.9168  1.0109  0.9980
  209MOL    C3242048   4.571   3.094   5.730  0.3548  0.5059  0.0942
  209MOL    O3342049   4.608   3.157   5.634  0.3395 -0.0208  0.2849
  209MOL    C3442050   4.674   3.027   5.824 -0.4118 -0.0051  0.4925
  209MOL    C3542051   4.802   3.003   5.746  0.7335  0.5219  0.3640
  209MOL    N3642052   4.887   2.918   5.827 -0.6170 -0.8292  0.6715
  209MOL    H3742053   4.632   2.932   5.856 -1.9643  0.2923 -0.5934
  209MOL    H3842054   4.692   3.095   5.907  2.5510 -0.4306  0.2660
  209MOL    H3942055   4.774   2.960   5.650  0.6257  0.9974  0.1839
  209MOL    H4042056   4.864   3.092   5.734  1.0497 -0.0111 -2.2284
  209MOL    H4142057   4.869   2.897   5.925  0.7508  2.8224  1.7997
  209MOL    C4242058   4.992   2.844   5.779  0.9422 -0.7078  0.7860
  209MOL    O4342059   5.028   2.847   5.662  0.5337 -0.5062 -0.8320
  209MOL    C4442060   5.056   2.753   5.883  0.0885 -0.0358 -0.3901
  209MOL    C4542061   5.201   2.738   5.861 -0.3921  0.0687  0.6731
  209MOL    N4642062   5.288   2.831   5.937 -0.2531 -0.7094 -0.3574
  209MOL    H4742063   5.030   2.788   5.982  0.8359  2.6374 -1.1021
  209MOL    H4842064   5.015   2.653   5.866 -0.0665 -0.6977  3.5195
  209MOL    H4942065   5.235   2.644   5.904 -0.9498 -0.3217  0.2708
  209MOL    H5042066   5.222   2.737   5.755 -2.0305  1.2229  0.3190
  209MOL    H5142067   5.249   2.894   6.006  0.9070 -1.1706  0.7568
  209MOL    C5242068   5.420   2.838   5.926  0.2703 -0.6611  0.1505
  209MOL    O5342069   5.485   2.772   5.854  0.0143  0.5225 -0.0070
  209MOL    C5442070   5.492   2.941   6.007 -0.6699 -0.2629 -0.1440
  209MOL    C5542071   5.561   3.055   5.928  0.2015  0.9154  0.1588
  209MOL    N5642072   5.650   3.142   6.005 -0.5757  0.0551 -1.0362
  209MOL    H5742073   5.437   2.981   6.092 -1.2614 -1.0945 -0.1353
  209MOL    H5842074   5.570   2.882   6.056  0.7072  0.5020 -1.3787
  209MOL    H5942075   5.487   3.119   5.880  1.7845  1.9211 -0.9763
  209MOL    H6042076   5.617   3.003   5.851 -0.7370  0.0009  0.0872
  209MOL    H6142077   5.748   3.127   5.991 -0.5922 -0.2216 -0.8508
  209MOL    C6242078   5.630   3.220   6.115  0.5685  0.4170 -0.0886
  209MOL    O6342079   5.518   3.248   6.158  0.1479  0.2396 -0.3787
  209MOL    C6442080   5.754   3.280   6.178 -0.1897 -0.3607 -0.2929
  209MOL    C6542081   5.830   3.386   6.107 -0.5071 -0.5279  0.1937
  209MOL    N6642082   5.970   3.332   6.098 -0.1925 -0.2286 -0.2464
  209MOL    H6742083   5.723   3.326   6.272 -0.7150 -1.3220  0.0106
  209MOL    H6842084   5.815   3.193   6.202 -0.3337 -0.5989 -0.7802
  209MOL    H6942085   5.789   3.416   6.010 -0.9614 -2.6543 -0.3018
  209MOL    H7042086   5.842   3.479   6.161  0.1558 -0.5384  0.0771
  209MOL    H7142087   6.040   3.390   6.142 -1.0125  1.1748 -0.7745
  209MOL    C7242088   6.018   3.260   5.993  0.2784  0.3302  1.1127
  209MOL    O7342089   5.952   3.219   5.898  0.4491 -0.2210  0.4587
  209MOL    C7442090   6.172   3.250   5.982  0.2573  0.0289  0.3246
  209MOL    C7542091   6.220   3.110   5.969  0.0417 -0.8773 -0.5648
  209MOL    N7642092   6.224   3.036   6.102 -0.0952 -0.5643  0.5661
  209MOL    H7742093   6.206   3.298   5.890 -0.1966 -0.5923 -0.1738
  209MOL    H7842094   6.203   3.312   6.066 -0.3902  0.6928  0.0736
  209MOL    H7942095   6.165   3.061   5.889  1.2884 -0.7421 -1.5217
  209MOL    H8042096   6.316   3.112   5.918 -0.6175  3.0748 -1.7976
  209MOL    H8142097   6.149   2.973   6.127 -0.6429  0.0017  0.3584
  209MOL    C8242098   6.319   3.056   6.195 -0.3086 -0.3443 -0.3158
  209MOL    O8342099   6.406   3.138   6.178 -0.1154 -0.0543  0.4847
  209MOL    C8442100   6.309   2.981   6.326 -0.3169 -0.5778  0.3235
  209MOL    C8542101   6.313   2.831   6.329  0.2196  0.0231 -0.2258
  209MOL    N8642102   6.178   2.771   6.314  0.3854 -0.2263 -0.4253
  209MOL    H8742103   6.385   3.024   6.392 -0.2593  1.1619 -0.8251
  209MOL    H8842104   6.222   3.030   6.370 -1.2819 -0.6567 -1.4258
  209MOL    H8942105   6.393   2.791   6.267  0.4529 -0.5550  0.4479
  209MOL    H9042106   6.351   2.787   6.421  0.4219  0.5566 -0.0478
  209MOL    H9142107   6.128   2.737   6.395  0.2967  1.0787  0.0795
  209MOL    C9242108   6.120   2.737   6.196  1.0059 -0.3190  0.0548
  209MOL    O9342109   6.177   2.754   6.088 -0.1394  0.2091 -0.1128
  209MOL    C9442110   5.989   2.659   6.197  0.5305 -0.1799 -0.3423
  209MOL    C9542111   5.858   2.727   6.156  0.5883  0.3437 -1.0499
  209MOL    N9642112   5.830   2.735   6.012 -0.0201  0.9566  0.0965
  209MOL    H9742113   6.005   2.579   6.125 -0.9702 -1.1295  0.3425
  209MOL    H9842114   5.993   2.606   6.293  1.0450  0.3777 -0.0510
  209MOL    H9942115   5.773   2.676   6.200 -0.6657  0.5538 -3.1473
  209MOL   H10042116   5.857   2.828   6.198 -1.1277  0.4447 -1.3252
  209MOL   H10142117   5.781   2.654   5.975  0.1717  0.8049  0.1689
  209MOL   C10242118   5.857   2.838   5.934 -0.8160 -0.5141 -0.2892
  209MOL   O10342119   5.902   2.943   5.978 -0.0770 -0.0457 -0.1141
  209MOL   C10442120   5.829   2.821   5.782  0.1006  1.1603  0.1278
  209MOL   C10542121   5.905   2.911   5.693  0.2567  0.4438  0.0076
  209MOL   N10642122   5.872   3.047   5.708 -0.1931 -0.6025 -0.0033
  209MOL   H10742123   5.722   2.826   5.759 -0.3817 -2.1773  1.3880
  209MOL   H10842124   5.850   2.719   5.750  1.3303  1.1296  1.0086
  209MOL   H10942125   6.011   2.913   5.717  0.3815  0.7531 -0.5538
  209MOL   H11042126   5.898   2.867   5.593  0.0921  0.2274  0.1145
  209MOL   H11142127   5.912   3.098   5.786  0.1180 -0.2248 -0.4055
  209MOL   C11242128   5.795   3.117   5.613  0.2467  0.4905  0.0959
  209MOL   O11342129   5.749   3.062   5.513  0.3202  0.2417 -0.5352
  209MOL   C11442130   5.790   3.274   5.617  0.7790  0.6369  0.2995
  209MOL   C11542131   5.660   3.337   5.674 -0.3532 -0.0458  0.3017
  209MOL   N11642132   5.543   3.346   5.577 -0.3290  0.0587  0.4565
  209MOL   H11742133   5.804   3.307   5.514 -0.0475  1.6718  0.5106
  209MOL   H11842134   5.877   3.311   5.670 -0.0591  0.6755  1.6865
  209MOL   H11942135   5.643   3.289   5.770  0.4117  1.5836  1.2816
  209MOL   H12042136   5.679   3.437   5.715 -1.5764  1.5301 -2.8312
  209MOL   H12142137   5.455   3.339   5.626  0.9328  2.5658  3.2082
  209MOL   C12242138   5.546   3.418   5.466  0.1837 -0.3264  0.5508
  209MOL   O12342139   5.647   3.473   5.418 -0.2853  0.3257 -0.3366
  209MOL   C12442140   5.418   3.433   5.379 -0.2487 -0.1602  0.2698
  209MOL   C12542141   5.402   3.587   5.345  0.0276  0.0545  0.4151
  209MOL   N12642142   5.272   3.648   5.316  0.7595  0.0189  0.2847
  209MOL   H12742143   5.323   3.399   5.421 -1.0453 -1.0620 -2.1822
  209MOL   H12842144   5.422   3.376   5.286  0.3550  1.6546 -0.8347
  209MOL   H12942145   5.432   3.646   5.432  0.7889  0.1262  0.1094
  209MOL   H13042146   5.476   3.615   5.271  0.4682  1.9383  1.5306
  209MOL   H13142147   5.249   3.725   5.376  0.2882  0.6176 -0.6537
  209MOL   C13242148   5.189   3.613   5.220  0.2403  0.1741 -0.7507
  209MOL   O13342149   5.224   3.539   5.128  0.6902 -0.1179  0.2420
  209MOL   C13442150   5.049   3.676   5.221  0.3315  0.0901 -0.1008
  209MOL   C13542151   4.949   3.598   5.126  0.8140  0.8382 -1.4902
  209MOL   N13642152   4.817   3.662   5.134 -0.7062  1.0481 -0.7397
  209MOL   H13742153   5.051   3.783   5.198 -1.5751  0.1941  0.0908
  209MOL   H13842154   5.022   3.665   5.326  0.8841  1.2365  0.1643
  209MOL   H13942155   4.970   3.608   5.019  0.9188  0.5680 -1.4942
  209MOL   H14042156   4.947   3.490   5.137  2.8218  0.8515 -0.8353
  209MOL   H14142157   4.778   3.706   5.051 -0.7321  1.5790 -0.4449
  209MOL   C14242158   4.736   3.654   5.242 -0.7529 -0.1318 -0.3865
  209MOL   O14342159   4.758   3.591   5.340 -0.2221 -0.0747 -0.4154
  209MOL   C14442160   4.605   3.728   5.226 -1.2252 -0.3460  0.1398
  209MOL   C14542161   4.509   3.713   5.348 -0.1835  0.2441  1.0399
  209MOL   N14642162   4.423   3.587   5.356  0.1790  0.1645  0.7898
  209MOL   H14742163   4.553   3.711   5.132 -0.5224 -0.3990 -0.2450
  209MOL   H14842164   4.637   3.832   5.226  0.3024 -0.8003  0.1622
  209MOL   H14942165   4.572   3.712   5.437  1.7580  1.2382 -0.2880
  209MOL   H15042166   4.445   3.799   5.366  1.9929  1.8279  1.3164
  209MOL   H15142167   4.440   3.516   5.425  0.5859 -0.1654  0.3560
  209MOL   C15242168   4.313   3.578   5.276 -0.5849  0.5481 -0.0719
  209MOL   O15342169   4.283   3.669   5.200  0.1131  0.1283 -0.3352
  209MOL   C15442170   4.242   3.446   5.276 -0.1630 -0.0149  0.0182
  209MOL   C15542171   4.085   3.458   5.268  0.1956  0.5714  0.2658
  209MOL   N15642172   4.020   3.438   5.398  0.7650  0.0094  0.6750
  209MOL   H15742173   4.276   3.382   5.358 -1.4086 -3.2202 -1.8929
  209MOL   H15842174   4.274   3.397   5.185 -0.8159 -0.5601  0.0773
  209MOL   H15942175   4.065   3.557   5.228 -2.0867  0.1875  0.3897
  209MOL   H16042176   4.030   3.392   5.200 -0.9097  3.0693 -1.3253
  209MOL   H16142177   4.063   3.367   5.454  3.1773  0.9819  0.0880
  209MOL   C16242178   3.898   3.488   5.431 -0.3400  0.2496 -0.2400
  209MOL   O16342179   3.838   3.571   5.368 -0.0040  0.0377  0.0771
  209MOL   C16442180   3.826   3.431   5.563 -0.3029  0.5008  0.2817
  209MOL   C16542181   3.843   3.514   5.683 -0.1942  0.1851 -0.5085
  209MOL   N16642182   3.969   3.484   5.746 -0.1104  0.4002  0.4773
  209MOL   H16742183   3.861   3.334   5.598 -0.0849  0.1218 -0.9562
  209MOL   H16842184   3.723   3.429   5.527  0.1353 -0.9213 -0.9441
  209MOL   H16942185   3.831   3.616   5.648  0.1209  0.0368 -1.0526
  209MOL   H17042186   3.753   3.495   5.741 -0.6845  0.7823 -1.0731
  209MOL   H17142187   3.985   3.396   5.794 -1.1002  0.2442  0.5223
  209MOL   C17242188   4.065   3.575   5.767  0.6510 -0.3567  0.2546
  209MOL   O17342189   4.060   3.696   5.735 -0.4185  0.0221  0.4710
  209MOL   C17442190   4.185   3.521   5.857  0.0268 -0.0136 -0.0411
  209MOL   C17542191   4.213   3.597   5.989 -0.5380  0.6085  0.2552
  209MOL   N17642192   4.288   3.507   6.077  0.0790 -1.0002 -0.6303
  209MOL   H17742193   4.269   3.541   5.791  1.1576 -1.3767  0.9672
  209MOL   H17842194   4.188   3.412   5.856  0.2745  0.0007 -0.7154
  209MOL   H17942195   4.271   3.685   5.963  0.8243 -0.1779  0.5778
  209MOL   H18042196   4.118   3.628   6.032 -0.7541 -0.2523  0.4117
  209MOL   H18142197   4.243   3.467   6.158  1.6674 -1.3035  0.1303
  209MOL   C18242198   4.419   3.493   6.062  0.5965  0.4652 -0.0100
  209MOL   O18342199   4.493   3.561   5.999  0.4081 -0.1460 -0.2519
  209MOL   C18442200   4.487   3.382   6.138  0.0513 -0.0856  0.2340
  209MOL   C18542201   4.464   3.247   6.071 -0.7756 -0.5638  0.2944
  209MOL   N18642202   4.523   3.146   6.155  0.1368 -0.6681  0.1918
  209MOL   H18742203   4.450   3.387   6.240  0.8662  2.0341  0.4678
  209MOL   H18842204   4.595   3.397   6.133  0.2705 -1.5349  0.6662
  209MOL   H18942205   4.359   3.220   6.061 -0.8855 -0.7964  1.9301
  209MOL   H19042206   4.522   3.244   5.979  1.3351 -1.0771  1.5832
  209MOL   H19142207   4.574   3.183   6.234  0.6256 -2.1904  0.6029
  209MOL   C19242208   4.512   3.011   6.134 -0.2111  0.2810 -0.5198
  209MOL   O19342209   4.439   2.969   6.041 -0.2769 -0.2330  0.2288
  209MOL   C19442210   4.581   2.916   6.230  0.1009 -0.1649  0.0977
  209MOL   C19542211   4.640   2.786   6.166 -0.3815 -0.3395  0.0556
  209MOL   N19642212   4.773   2.812   6.104 -0.3828 -0.8071 -0.1046
  209MOL   H19742213   4.661   2.971   6.279 -0.1079 -0.7729  1.1293
  209MOL   H19842214   4.503   2.891   6.302 -0.9576  0.8037 -0.7010
  209MOL   H19942215   4.656   2.701   6.232 -0.9692 -1.9564 -1.8280
  209MOL   H20042216   4.568   2.741   6.098 -0.7584 -1.2415  1.0407
  209MOL   H20142217   4.802   2.719   6.076  2.0942 -0.0454 -0.1309
  209MOL   H20242218   4.842   2.833   6.175  0.1749  0.8275 -1.1239
  210MOL     C142219   5.554   4.036   4.759 -0.1025 -0.1522 -0.2783
  210MOL     O242220   5.481   4.130   4.739  0.0833  0.3603 -0.3194
  210MOL     C342221   5.548   3.912   4.671  0.2173 -0.0145 -0.1499
  210MOL     C442222   5.412   3.891   4.602 -0.4652  0.1626 -0.5078
  210MOL     N542223   5.430   3.848   4.464  0.5208 -0.5391  0.1669
  210MOL     H642224   5.573   3.820   4.724 -1.2767 -0.5060 -0.2840
  210MOL     H742225   5.626   3.947   4.604  1.6263 -0.9691  0.9450
  210MOL     H842226   5.342   3.974   4.598 -1.0761 -0.2603  1.1104
  210MOL     H942227   5.349   3.831   4.667  0.2740  0.2433  0.2955
  210MOL    H1042228   5.436   3.747   4.455  0.4060 -0.5027 -0.3068
  210MOL    H1142229   5.625   4.034   4.842  0.0358  2.9635 -0.2728
  210MOL    C1242230   5.443   3.924   4.356 -0.3594 -0.2622 -0.6591
  210MOL    O1342231   5.442   4.047   4.366  0.2569  0.0827 -0.0260
  210MOL    C1442232   5.479   3.860   4.227 -0.1183  0.5396  0.8061
  210MOL    C1542233   5.586   3.933   4.145  0.1522  0.9512  0.5184
  210MOL    N1642234   5.724   3.907   4.171 -0.2203 -0.1433 -0.0967
  210MOL    H1742235   5.383   3.871   4.176 -1.0717 -1.9803  1.9450
  210MOL    H1842236   5.499   3.753   4.238 -0.9706  0.2361 -0.3691
  210MOL    H1942237   5.569   3.918   4.038  0.3891 -0.2639  0.6351
  210MOL    H2042238   5.580   4.040   4.160 -1.7316  1.0231 -0.6372
  210MOL    H2142239   5.756   3.903   4.267  2.5705 -1.0266 -1.0008
  210MOL    C2242240   5.815   3.866   4.077 -0.1071  0.1525  0.7673
  210MOL    O2342241   5.786   3.855   3.960  0.1181  0.0793  0.6112
  210MOL    C2442242   5.948   3.796   4.135 -0.2106 -0.3097 -0.0984
  210MOL    C2542243   6.022   3.710   4.027 -0.2131 -0.4414 -0.0820
  210MOL    N2642244   6.146   3.768   3.983 -0.5562  0.0172 -0.1666
  210MOL    H2742245   5.937   3.747   4.232  0.4439  0.1289  0.2019
  210MOL    H2842246   6.014   3.880   4.159  0.5586 -0.8508 -0.3195
  210MOL    H2942247   6.036   3.618   4.083  1.6736  0.7213  1.4148
  210MOL    H3042248   5.947   3.689   3.950 -1.1112 -0.6191  0.8225
  210MOL    H3142249   6.186   3.833   4.050  0.5109  0.2173 -0.9911
  210MOL    C3242250   6.204   3.732   3.868 -0.3709  0.1058  0.1882
  210MOL    O3342251   6.145   3.664   3.787  0.3713 -0.2131  0.5319
  210MOL    C3442252   6.338   3.795   3.843  0.3399  0.0365 -0.2116
  210MOL    C3542253   6.459   3.711   3.865  0.1949 -0.0030 -0.2804
  210MOL    N3642254   6.449   3.625   3.986  0.3175 -0.0051  0.0830
  210MOL    H3742255   6.351   3.883   3.906  0.9709 -1.3980  1.7144
  210MOL    H3842256   6.323   3.827   3.740 -1.7134 -1.1588 -0.3035
  210MOL    H3942257   6.500   3.661   3.777  2.0861 -1.7155  1.5373
  210MOL    H4042258   6.539   3.781   3.889  1.1083 -0.2410 -2.4857
  210MOL    H4142259   6.407   3.534   3.972  2.4911 -0.8454 -1.2485
  210MOL    C4242260   6.459   3.656   4.114  0.1073  0.2373 -0.4100
  210MOL    O4342261   6.479   3.775   4.150 -0.0686  0.0481  0.5916
  210MOL    C4442262   6.442   3.549   4.217  0.5220  0.2386  1.0610
  210MOL    C4542263   6.573   3.524   4.292 -0.3512 -0.2747 -1.4800
  210MOL    N4642264   6.588   3.395   4.350 -0.0498 -0.3476  0.8449
  210MOL    H4742265   6.365   3.570   4.292  0.4279  0.2112  0.9715
  210MOL    H4842266   6.398   3.460   4.171  0.0459  0.3064  1.3814
  210MOL    H4942267   6.650   3.555   4.222  2.2035 -3.0372  0.0164
  210MOL    H5042268   6.567   3.604   4.367 -0.0502 -0.9216 -0.7607
  210MOL    H5142269   6.652   3.332   4.305 -0.7363 -0.6282  0.2499
  210MOL    C5242270   6.506   3.340   4.440  0.0415  0.3990 -0.2161
  210MOL    O5342271   6.406   3.401   4.480 -0.0636 -0.0489  0.8023
  210MOL    C5442272   6.550   3.207   4.494 -0.3005 -0.5178  0.0208
  210MOL    C5542273   6.442   3.103   4.487  0.8941 -0.9017  0.0153
  210MOL    N5642274   6.486   2.979   4.556 -0.6549 -1.2433  0.2432
  210MOL    H5742275   6.641   3.182   4.439  0.0290  3.3523 -1.3213
  210MOL    H5842276   6.567   3.214   4.601 -0.1091 -1.1140  0.0324
  210MOL    H5942277   6.406   3.085   4.385  0.6199  0.2159 -0.0922
  210MOL    H6042278   6.352   3.139   4.537  0.0512 -1.5428 -0.9947
  210MOL    H6142279   6.452   2.971   4.651 -0.1256  0.3184  0.5932
  210MOL    C6242280   6.576   2.889   4.518 -0.2817  0.5283 -0.1335
  210MOL    O6342281   6.625   2.897   4.403  0.2356  0.0699  0.0246
  210MOL    C6442282   6.604   2.768   4.610 -0.4218 -0.0083 -0.4070
  210MOL    C6542283   6.718   2.672   4.559  0.3340 -0.2827 -0.1159
  210MOL    N6642284   6.662   2.563   4.482 -0.0372  0.4600  0.2001
  210MOL    H6742285   6.635   2.822   4.699 -0.0902  1.0103 -1.1397
  210MOL    H6842286   6.516   2.706   4.629 -0.5957  0.1593 -0.6637
  210MOL    H6942287   6.790   2.737   4.508  0.2152 -0.0561  0.0052
  210MOL    H7042288   6.763   2.632   4.650  0.6559  0.9286  0.2704
  210MOL    H7142289   6.603   2.589   4.404 -0.7195  1.0318  0.9028
  210MOL    C7242290   6.707   2.439   4.479 -0.2432 -0.5462 -0.2097
  210MOL    O7342291   6.787   2.396   4.563 -0.3302  0.2196 -0.6593
  210MOL    C7442292   6.665   2.353   4.365 -0.6793  0.3080  0.2236
  210MOL    C7542293   6.777   2.363   4.261  0.5457  0.1021 -0.1995
  210MOL    N7642294   6.776   2.480   4.184  0.0185 -0.3699  0.6000
  210MOL    H7742295   6.661   2.247   4.388  0.6286  0.5788  1.8463
  210MOL    H7842296   6.571   2.385   4.319 -0.6869  0.7820  0.5682
  210MOL    H7942297   6.871   2.346   4.313 -0.3359 -0.8457  1.1059
  210MOL    H8042298   6.773   2.286   4.185 -0.0106 -1.0476  0.9856
  210MOL    H8142299   6.823   2.564   4.215  1.0957 -0.7382 -0.0094
  210MOL    C8242300   6.692   2.498   4.076 -0.0021  0.0937  0.1743
  210MOL    O8342301   6.637   2.398   4.028  0.0908  0.1671  0.2542
  210MOL    C8442302   6.671   2.639   4.023 -0.3356  0.4589 -0.4200
  210MOL    C8542303   6.677   2.638   3.869 -0.3296  0.7546 -0.0627
  210MOL    N8642304   6.806   2.618   3.811 -0.2518 -0.2978 -0.5194
  210MOL    H8742305   6.569   2.669   4.049 -0.1466 -0.0141  0.9052
  210MOL    H8842306   6.736   2.706   4.080 -1.8219  1.9386 -0.3931
  210MOL    H8942307   6.600   2.566   3.841  0.5908  0.2443 -1.2832
  210MOL    H9042308   6.637   2.736   3.843  2.7013  2.8559  2.6902
  210MOL    H9142309   6.885   2.622   3.874 -0.4810 -0.2768 -0.2345
  210MOL    C9242310   6.833   2.607   3.681  0.0004 -0.0160  0.1972
  210MOL    O9342311   6.738   2.596   3.599 -0.5274  0.4149  0.6135
  210MOL    C9442312   6.982   2.614   3.641 -0.8018 -0.3020  0.3027
  210MOL    C9542313   7.021   2.542   3.505  0.3346 -0.1913 -0.4751
  210MOL    N9642314   7.001   2.402   3.494  0.1579 -0.3128  0.1847
  210MOL    H9742315   7.010   2.719   3.635  0.9877 -0.8373 -1.8327
  210MOL    H9842316   7.040   2.563   3.718  1.4918 -2.7281 -2.8447
  210MOL    H9942317   6.980   2.598   3.421  1.1256  0.7225 -0.2674
  210MOL   H10042318   7.130   2.552   3.506  0.5699 -2.4828  0.2608
  210MOL   H10142319   7.027   2.342   3.571 -0.7409 -0.9741 -0.0202
  210MOL   C10242320   6.955   2.341   3.383  0.0954 -0.8230 -0.9314
  210MOL   O10342321   6.939   2.392   3.270 -0.0013 -0.2828  0.0427
  210MOL   C10442322   6.919   2.192   3.401 -0.1219  0.1723 -0.4128
  210MOL   C10542323   6.765   2.169   3.394 -0.3787  0.1019 -0.1589
  210MOL   N10642324   6.719   2.127   3.257  0.1472  0.0151  0.1841
  210MOL   H10742325   6.953   2.162   3.500  0.6710  0.3084 -0.6439
  210MOL   H10842326   6.965   2.130   3.324  1.0142 -0.7596  1.0033
  210MOL   H10942327   6.744   2.098   3.474  0.1700  2.3154  1.9876
  210MOL   H11042328   6.700   2.253   3.416 -1.6861 -0.6167 -1.1696
  210MOL   H11142329   6.681   2.196   3.194 -0.5942 -1.2098 -0.7121
  210MOL   C11242330   6.712   1.998   3.219 -1.0955  0.8833 -0.7333
  210MOL   O11342331   6.752   1.904   3.293  0.0293 -0.5119 -0.1614
  210MOL   C11442332   6.669   1.964   3.078  0.3092  0.0222 -0.3986
  210MOL   C11542333   6.764   1.881   2.994 -0.0799 -0.3692  0.2728
  210MOL   N11642334   6.762   1.740   3.036  0.0756  0.4271  0.0169
  210MOL   H11742335   6.664   2.065   3.036 -3.5938 -0.1161 -0.4264
  210MOL   H11842336   6.564   1.934   3.072 -0.1509  0.9331  2.4758
  210MOL   H11942337   6.727   1.897   2.893 -2.0875  0.7236  1.1658
  210MOL   H12042338   6.869   1.911   3.000 -0.4176  0.8139  0.3655
  210MOL   H12142339   6.818   1.715   3.117  0.1214  2.3221  0.6040
  210MOL   C12242340   6.692   1.647   2.966  0.7529  0.2140  1.0830
  210MOL   O12342341   6.622   1.663   2.863  0.0426 -0.4672 -0.0450
  210MOL   C12442342   6.697   1.510   3.043 -0.0834  0.1540  0.2683
  210MOL   C12542343   6.750   1.388   2.949  0.4407 -0.3004  0.3734
  210MOL   N12642344   6.875   1.426   2.884  0.1994 -0.1374  0.4696
  210MOL   H12742345   6.596   1.480   3.071  0.3805 -2.5982 -0.8218
  210MOL   H12842346   6.741   1.504   3.142 -1.0124 -2.5704  0.5587
  210MOL   H12942347   6.764   1.301   3.013 -0.0382 -1.1366 -0.6281
  210MOL   H13042348   6.674   1.368   2.873  0.5406  0.2752  0.1163
  210MOL   H13142349   6.870   1.458   2.789 -1.2684  2.3045  1.3437
  210MOL   C13242350   6.988   1.444   2.960 -0.0292 -0.4619 -0.2750
  210MOL   O13342351   6.982   1.423   3.083 -0.2158 -0.0201  0.3942
  210MOL   C13442352   7.117   1.483   2.887  0.7713 -0.2505 -0.3628
  210MOL   C13542353   7.229   1.396   2.936  0.1282 -0.1257  0.9363
  210MOL   N13642354   7.364   1.452   2.919 -0.1084  0.2595 -0.1262
  210MOL   H13742355   7.148   1.586   2.907 -2.2229  0.5791  0.4438
  210MOL   H13842356   7.103   1.464   2.781  1.2693 -2.5143 -0.0555
  210MOL   H13942357   7.220   1.364   3.040  0.4844 -0.4177  0.8788
  210MOL   H14042358   7.232   1.306   2.874  0.4353  0.4288  0.1472
  210MOL   H14142359   7.413   1.414   2.840 -0.7447 -1.0502  0.0983
  210MOL   C14242360   7.434   1.535   2.995  0.2846  0.1601 -0.6471
  210MOL   O14342361   7.383   1.578   3.098 -1.1226 -0.3395 -0.3144
  210MOL   C14442362   7.577   1.574   2.952 -0.4299  0.6802  0.0333
  210MOL   C14542363   7.653   1.662   3.044  0.3454 -0.3058  0.5644
  210MOL   N14642364   7.676   1.611   3.182  0.2454 -0.3246  0.3025
  210MOL   H14742365   7.568   1.620   2.853  0.5014  0.1675 -0.2990
  210MOL   H14842366   7.623   1.477   2.932 -0.2583  1.0557 -1.5090
  210MOL   H14942367   7.752   1.675   2.999  0.2486 -0.6066  0.2621
  210MOL   H15042368   7.600   1.756   3.060 -2.0829 -1.4713 -0.3588
  210MOL   H15142369   7.682   1.512   3.201  0.9949  0.0120  1.9786
  210MOL   C15242370   7.692   1.687   3.289  0.1252 -0.4850  0.0889
  210MOL   O15342371   7.697   1.811   3.284 -0.0345  0.4153  0.3542
  210MOL   C15442372   7.722   1.633   3.428  0.2652  0.2982 -0.3318
  210MOL   C15542373   7.603   1.656   3.523  0.3678  0.4206 -0.0763
  210MOL   N15642374   7.549   1.787   3.528  0.4375 -0.7807 -0.2869
  210MOL   H15742375   0.033   1.687   3.451  1.2357 -1.7541  0.8124
  210MOL   H15842376   7.731   1.526   3.412  0.4248  0.5503 -1.9807
  210MOL   H15942377   7.522   1.589   3.495  0.2871  0.0870  0.9202
  210MOL   H16042378   7.626   1.627   3.626  2.7570 -0.6090 -0.8716
  210MOL   H16142379   7.467   1.791   3.468  0.7594  0.4449 -0.6584
  210MOL   C16242380   7.603   1.890   3.601 -0.0366 -0.0997 -0.2647
  210MOL   O16342381   7.703   1.882   3.669  0.2193 -0.1336 -0.1565
  210MOL   C16442382   7.532   2.025   3.577 -0.4702  0.0466 -0.2341
  210MOL   C16542383   7.579   2.146   3.663 -0.4476  0.7009 -0.1077
  210MOL   N16642384   7.522   2.280   3.621  0.3233 -0.5411  0.2059
  210MOL   H16742385   7.424   2.009   3.588 -0.2947 -0.2164  1.2399
  210MOL   H16842386   7.556   2.044   3.472 -0.4591 -0.2514 -0.2867
  210MOL   H16942387   7.565   2.125   3.769 -1.1830  0.8784 -0.1686
  210MOL   H17042388   7.687   2.153   3.674 -0.5991  1.8891  0.7481
  210MOL   H17142389   7.507   2.294   3.522 -0.7218 -1.5182  0.2147
  210MOL   C17242390   7.469   2.365   3.704 -0.1882 -0.4993  0.0910
  210MOL   O17342391   7.478   2.351   3.827 -0.7472  0.6715  0.4664
  210MOL   C17442392   7.410   2.492   3.643  0.2950  0.5372 -0.5666
  210MOL   C17542393   7.513   2.601   3.660  0.2553 -0.1364 -0.3984
  210MOL   N17642394   7.469   2.734   3.650  0.8098 -0.2234 -0.1187
  210MOL   H17742395   7.323   2.520   3.701  0.3319 -0.4912 -0.0043
  210MOL   H17842396   7.384   2.468   3.540  0.7373  0.9790 -0.7860
  210MOL   H17942397   7.566   2.599   3.756 -1.5498  0.7485  0.6534
  210MOL   H18042398   7.597   2.587   3.593 -0.2515 -1.7285 -0.7224
  210MOL   H18142399   7.488   2.798   3.726 -1.5852  1.2083 -0.6923
  210MOL   C18242400   7.389   2.783   3.552 -1.0737  0.5845  0.2188
  210MOL   O18342401   7.353   2.723   3.451  0.4504 -0.2673  0.4909
  210MOL   C18442402   7.355   2.929   3.563  0.3630 -0.0349  0.1647
  210MOL   C18542403   7.244   2.974   3.472 -0.0181 -0.1556  0.2715
  210MOL   N18642404   7.229   3.121   3.471 -0.1801 -0.5957 -0.0550
  210MOL   H18742405   7.446   2.989   3.554 -0.6626  1.5123 -0.1767
  210MOL   H18842406   7.316   2.952   3.662 -0.2939  3.2997 -0.8166
  210MOL   H18942407   7.251   2.941   3.368 -0.7560  1.1448 -0.2025
  210MOL   H19042408   7.149   2.941   3.514  0.7102 -0.7686  1.4561
  210MOL   H19142409   7.275   3.169   3.547  2.9001 -1.7899 -1.0876
  210MOL   C19242410   7.152   3.197   3.395 -0.1431  0.4068  0.1319
  210MOL   O19342411   7.102   3.147   3.294 -0.6082 -0.3216 -0.2946
  210MOL   C19442412   7.148   3.353   3.417 -0.3997 -0.1403  0.9010
  210MOL   C19542413   7.004   3.408   3.433 -0.0982 -0.7780 -0.3745
  210MOL   N19642414   6.938   3.407   3.563  0.3883  0.2912 -0.1191
  210MOL   H19742415   7.206   3.394   3.500 -0.6941  2.2735 -0.0404
  210MOL   H19842416   7.207   3.404   3.341  0.3442 -1.7951  0.3319
  210MOL   H19942417   7.020   3.514   3.414 -4.8925  0.6572  2.4356
  210MOL   H20042418   6.938   3.363   3.359  0.3751 -0.8702 -0.7364
  210MOL   H20142419   7.003   3.453   3.625  1.0137  0.3240 -0.7943
  210MOL   H20242420   6.924   3.310   3.586 -1.8155  0.2684 -1.3607
  211MOL     C142421   2.351   5.073   0.553 -0.4099  0.5775  0.5406
  211MOL     O242422   2.291   5.082   0.658  0.6566 -0.6037  0.7384
  211MOL     C342423   2.292   4.995   0.433 -0.1469 -0.2654 -0.0230
  211MOL     C442424   2.285   4.845   0.457 -0.4666 -0.2586 -0.0360
  211MOL     N542425   2.415   4.781   0.427 -0.6403  0.1541 -0.0998
  211MOL     H642426   2.357   5.034   0.355  0.7859 -0.1125  0.8039
  211MOL     H742427   2.192   5.033   0.412  0.2139 -0.6248 -2.5462
  211MOL     H842428   2.206   4.818   0.387 -1.0351  2.5749 -0.5786
  211MOL     H942429   2.267   4.834   0.564 -3.1055  3.0087 -0.0442
  211MOL    H1042430   2.473   4.763   0.508  1.4972 -0.4289 -1.7037
  211MOL    H1142431   2.447   5.124   0.539 -0.0396 -0.5815 -1.4358
  211MOL    C1242432   2.445   4.705   0.322 -0.0039 -0.0523  0.2106
  211MOL    O1342433   2.372   4.699   0.221  0.1921 -0.5133  0.4586
  211MOL    C1442434   2.572   4.624   0.329  0.4917  0.1800 -0.7003
  211MOL    C1542435   2.596   4.550   0.202 -0.2382  0.1658 -0.2667
  211MOL    N1642436   2.522   4.426   0.197 -0.1550  0.2047  0.1033
  211MOL    H1742437   2.560   4.560   0.417 -0.7406  0.8339 -0.3800
  211MOL    H1842438   2.663   4.678   0.355  0.2597 -0.3109  1.1826
  211MOL    H1942439   2.575   4.601   0.108 -2.1438 -0.6915 -0.3287
  211MOL    H2042440   2.702   4.526   0.193 -0.1782  0.2498  0.2337
  211MOL    H2142441   2.448   4.409   0.263 -1.6029  2.3076 -0.9430
  211MOL    C2242442   2.545   4.330   0.105  0.3156  0.7885 -0.2096
  211MOL    O2342443   2.634   4.341   0.009  0.4720 -0.5522 -0.6537
  211MOL    C2442444   2.446   4.211   0.108 -0.2412  0.6802 -0.1264
  211MOL    C2542445   2.516   4.092   0.184  0.5758  0.0436  0.3325
  211MOL    N2642446   2.423   4.050   0.288  0.1670  0.7385  0.4446
  211MOL    H2742447   2.417   4.185   0.006  0.0865 -1.0339  0.1957
  211MOL    H2842448   2.351   4.246   0.149 -1.4291 -0.0685 -2.1600
  211MOL    H2942449   2.527   4.003   0.121  1.6956 -0.8684  1.7868
  211MOL    H3042450   2.614   4.111   0.226  0.5147  0.3096  0.3539
  211MOL    H3142451   2.325   4.074   0.277 -0.0779 -0.4889 -0.0803
  211MOL    C3242452   2.447   3.977   0.399  0.4172 -0.4227 -0.0595
  211MOL    O3342453   2.565   3.936   0.431  0.9339  0.1556 -0.2512
  211MOL    C3442454   2.331   3.942   0.489 -0.3246  0.4246 -0.2765
  211MOL    C3542455   2.351   3.874   0.623 -0.4377  0.6044 -0.5490
  211MOL    N3642456   2.259   3.768   0.659 -0.0113 -0.5972 -0.5036
  211MOL    H3742457   2.273   3.880   0.421  0.6910  0.0718 -0.8189
  211MOL    H3842458   2.267   4.028   0.512 -1.5271 -1.1975  2.7244
  211MOL    H3942459   2.449   3.827   0.621 -1.4304 -1.8359  2.9283
  211MOL    H4042460   2.351   3.948   0.703 -1.8834 -1.5061  1.4783
  211MOL    H4142461   2.195   3.735   0.588 -1.7844 -1.4010  1.4300
  211MOL    C4242462   2.242   3.728   0.787 -0.4662  0.7421 -0.1085
  211MOL    O4342463   2.310   3.762   0.884  0.0801  0.3865 -0.3314
  211MOL    C4442464   2.136   3.635   0.817 -0.4422 -0.4207  0.1636
  211MOL    C4542465   2.057   3.570   0.693 -0.0982  0.3757 -0.5008
  211MOL    N4642466   1.976   3.668   0.614 -0.1984 -0.2115 -0.1256
  211MOL    H4742467   2.160   3.555   0.887 -0.6416 -0.7332 -0.1255
  211MOL    H4842468   2.062   3.697   0.867  1.2533  2.3891 -0.7083
  211MOL    H4942469   2.123   3.511   0.629  0.4806 -0.5522  0.9419
  211MOL    H5042470   1.981   3.502   0.732  1.5803 -2.1494 -1.4551
  211MOL    H5142471   1.908   3.715   0.671 -0.1535  1.8842 -1.7524
  211MOL    C5242472   1.980   3.699   0.481 -0.8445  0.7688  0.1450
  211MOL    O5342473   2.076   3.655   0.417 -0.8616  0.4631  0.2680
  211MOL    C5442474   1.865   3.775   0.412  0.3684  0.4158 -0.5087
  211MOL    C5542475   1.920   3.907   0.346 -0.0977  0.7092 -0.3846
  211MOL    N5642476   1.976   3.891   0.212  0.1074  0.4209 -0.1986
  211MOL    H5742477   1.820   3.719   0.330 -0.3045 -1.6795  1.2448
  211MOL    H5842478   1.784   3.795   0.483 -1.4757 -1.2231 -2.0780
  211MOL    H5942479   1.998   3.953   0.407 -0.8891  0.4936  0.8079
  211MOL    H6042480   1.830   3.968   0.342  0.3883  1.5802  1.5770
  211MOL    H6142481   1.943   3.811   0.160 -0.8955  0.2168  0.7376
  211MOL    C6242482   2.089   3.950   0.164 -0.7771  0.2715  0.9445
  211MOL    O6342483   2.129   4.055   0.207  0.4821 -0.6015 -0.4039
  211MOL    C6442484   2.160   3.884   0.037  0.0139 -0.2525  0.7661
  211MOL    C6542485   2.252   3.766   0.077  0.6298  0.1696 -0.4338
  211MOL    N6642486   2.170   3.648   0.120  0.1930  0.7212  0.2282
  211MOL    H6742487   2.085   3.856   7.744  0.1940  1.9632 -0.3008
  211MOL    H6842488   2.218   3.963   7.771  2.3416 -1.5080  1.4219
  211MOL    H6942489   2.314   3.747   7.769  3.1638 -1.4465  1.6502
  211MOL    H7042490   2.317   3.792   0.159 -0.1106 -1.9656  0.8689
  211MOL    H7142491   2.078   3.681   0.147 -0.2596 -0.9932  0.8506
  211MOL    C7242492   2.217   3.529   0.134 -0.4728  0.0159  0.0019
  211MOL    O7342493   2.333   3.504   0.093 -0.4258 -0.4215 -0.2857
  211MOL    C7442494   2.131   3.422   0.183 -0.7082  0.4708  0.1970
  211MOL    C7542495   2.170   3.344   0.314  0.4133  0.3120  1.1982
  211MOL    N7642496   2.062   3.250   0.352 -0.7276  0.3097 -0.4528
  211MOL    H7742497   2.029   3.457   0.201 -0.7651 -0.5199  1.8867
  211MOL    H7842498   2.132   3.358   0.095  1.5382 -1.3288  1.4794
  211MOL    H7942499   2.266   3.297   0.295  1.0761  1.9955  0.2154
  211MOL    H8042500   2.183   3.420   0.391  0.0680 -0.6748  2.2458
  211MOL    H8142501   1.975   3.293   0.380 -0.8099  0.0390 -0.2870
  211MOL    C8242502   2.069   3.117   0.340 -0.5632  0.3865  0.6247
  211MOL    O8342503   2.171   3.062   0.298  0.0007  0.5636  0.3115
  211MOL    C8442504   1.950   3.028   0.381  0.3249  0.1727 -0.2975
  211MOL    C8542505   2.000   2.899   0.453 -0.5216 -0.0942  0.2562
  211MOL    N8642506   1.887   2.820   0.494  0.2019  0.0523  0.5230
  211MOL    H8742507   1.883   3.078   0.450  0.3524 -0.1491 -0.0370
  211MOL    H8842508   1.895   3.000   0.291  0.2620  0.2687 -0.2889
  211MOL    H8942509   2.079   2.835   0.414 -1.9907 -0.9249 -1.3488
  211MOL    H9042510   2.053   2.934   0.542  1.3643 -1.6422 -0.2317
  211MOL    H9142511   1.833   2.859   0.569 -0.3340  0.0625  0.1306
  211MOL    C9242512   1.864   2.689   0.474  0.4836  0.1634 -0.5949
  211MOL    O9342513   1.924   2.617   0.400 -0.3043 -0.1410 -0.1780
  211MOL    C9442514   1.757   2.643   0.577 -0.3828  0.7575 -0.1994
  211MOL    C9542515   1.620   2.662   0.518 -0.1638  0.2363  0.5931
  211MOL    N9642516   1.560   2.786   0.568 -0.6077 -0.2245 -0.1792
  211MOL    H9742517   1.768   2.539   0.607 -1.2553  1.0247  1.0746
  211MOL    H9842518   1.771   2.711   0.662  1.1444  0.2039 -0.0008
  211MOL    H9942519   1.621   2.646   0.410  1.6650 -0.4288  0.7017
  211MOL   H10042520   1.550   2.586   0.551  0.1057 -0.5069 -0.5270
  211MOL   H10142521   1.542   2.784   0.667  1.6962 -0.3833  0.2726
  211MOL   C10242522   1.525   2.898   0.502  0.2764 -0.5515  0.3964
  211MOL   O10342523   1.530   2.903   0.377 -0.2225 -0.2627  0.2535
  211MOL   C10442524   1.470   3.019   0.577 -0.1670 -0.4338 -0.0806
  211MOL   C10542525   1.345   3.096   0.524 -0.2149 -0.5284  0.8777
  211MOL   N10642526   1.229   3.014   0.503 -0.1294  0.3231  0.3493
  211MOL   H10742527   1.554   3.087   0.569 -1.5637  1.6770  2.4177
  211MOL   H10842528   1.459   3.003   0.685  1.0897 -0.0063  0.1192
  211MOL   H10942529   1.342   3.191   0.577  0.0963  1.5365 -2.6337
  211MOL   H11042530   1.366   3.126   0.421  1.8429  1.0912  1.7263
  211MOL   H11142531   1.243   2.940   0.436  3.9398  0.4410  0.9305
  211MOL   C11242532   1.115   3.022   0.571  0.0929 -0.6799  0.0814
  211MOL   O11342533   1.104   3.106   0.663  0.0453 -0.4244  0.1820
  211MOL   C11442534   0.997   2.933   0.534 -0.3528  0.0624  0.4753
  211MOL   C11542535   0.863   2.965   0.602 -0.4176 -0.4240 -0.4991
  211MOL   N11642536   0.815   3.097   0.569 -0.3094 -0.7615  0.0061
  211MOL   H11742537   1.026   2.833   0.565 -0.9859  0.8020  3.7260
  211MOL   H11842538   0.984   2.928   0.426 -0.0368  0.9807  0.3880
  211MOL   H11942539   0.791   2.892   0.568  0.0643 -0.4653 -1.4568
  211MOL   H12042540   0.857   2.966   0.711 -0.1507  3.8396 -0.4311
  211MOL   H12142541   0.885   3.158   0.529 -0.3915 -1.0635 -0.6063
  211MOL   C12242542   0.698   3.157   0.596 -0.5017  0.3007  0.2091
  211MOL   O12342543   0.686   3.284   0.596  0.4417  0.1894 -0.0379
  211MOL   C12442544   0.580   3.074   0.636  0.9959 -0.8978  0.2801
  211MOL   C12542545   0.525   3.108   0.776  0.5775  0.7668 -0.0604
  211MOL   N12642546   0.609   3.058   0.883  0.2885 -0.4425  0.3910
  211MOL   H12742547   0.595   2.966   0.628 -0.3668 -1.2398  2.0189
  211MOL   H12842548   0.500   3.084   0.563  0.6137 -0.1772  0.7896
  211MOL   H12942549   0.517   3.216   0.786  0.5919  0.7320  0.3427
  211MOL   H13042550   0.424   3.068   0.783  1.7851 -2.1524  1.1976
  211MOL   H13142551   0.698   3.102   0.901  0.6606 -0.0255 -2.2186
  211MOL   C13242552   0.571   2.955   0.953 -0.0972 -0.7064  0.1303
  211MOL   O13342553   0.460   2.899   0.954 -0.0462 -0.1901  0.1992
  211MOL   C13442554   0.670   2.909   1.060  0.3416 -0.1726 -0.3181
  211MOL   C13542555   0.633   2.786   1.147  0.2450  0.6886  0.0361
  211MOL   N13642556   0.729   2.749   1.251  0.4696  0.0342 -1.0442
  211MOL   H13742557   0.681   2.993   1.128  0.3366  0.0337 -0.5710
  211MOL   H13842558   0.768   2.893   1.015  0.2659  1.5876 -1.1672
  211MOL   H13942559   0.538   2.803   1.198 -0.6002  0.6995 -1.5278
  211MOL   H14042560   0.604   2.703   1.083 -0.1603 -1.6388  3.1333
  211MOL   H14142561   0.773   2.659   1.239 -0.8220 -0.4164 -2.5162
  211MOL   C14242562   0.759   2.820   1.361  0.1515 -0.0172  0.7549
  211MOL   O14342563   0.717   2.930   1.383 -0.0277  0.4459 -0.1555
  211MOL   C14442564   0.856   2.757   1.463 -0.3897  0.3126 -0.1170
  211MOL   C14542565   0.813   2.780   1.613  0.5423  0.7535 -0.2252
  211MOL   N14642566   0.861   2.678   1.699 -0.5416  0.2656 -0.4720
  211MOL   H14742567   0.953   2.796   1.433  0.3324 -0.2478  1.4283
  211MOL   H14842568   0.850   2.649   1.452 -0.0662  0.5021 -2.3357
  211MOL   H14942569   0.856   2.877   1.640  0.0775  1.0976 -0.7069
  211MOL   H15042570   0.704   2.788   1.616  0.4658  0.6730 -2.0843
  211MOL   H15142571   0.951   2.644   1.669 -0.8297 -0.9811  0.0642
  211MOL   C15242572   0.805   2.631   1.813 -0.0154  0.5120  0.1941
  211MOL   O15342573   0.700   2.685   1.858 -1.0112  0.1356  0.5522
  211MOL   C15442574   0.871   2.507   1.874  0.1553 -0.0797 -0.1691
  211MOL   C15542575   0.793   2.414   1.966  0.7885 -0.2302 -0.2701
  211MOL   N15642576   0.720   2.487   2.070 -0.1173 -0.6416 -0.6128
  211MOL   H15742577   0.951   2.546   1.936  0.3355  0.1131 -0.5229
  211MOL   H15842578   0.923   2.451   1.796  0.6942 -0.5165  0.4950
  211MOL   H15942579   0.727   2.355   1.903 -0.7054  0.8846  0.1904
  211MOL   H16042580   0.865   2.348   2.015 -0.0748 -2.6146 -2.0985
  211MOL   H16142581   0.772   2.561   2.114  1.8119 -1.0273 -2.1753
  211MOL   C16242582   0.587   2.477   2.084  0.5451  0.0231 -0.4956
  211MOL   O16342583   0.512   2.397   2.025 -0.3115 -0.0199 -0.1668
  211MOL   C16442584   0.533   2.593   2.163 -0.1383 -0.2845  0.2209
  211MOL   C16542585   0.420   2.665   2.085 -0.4476  0.0247  0.5905
  211MOL   N16642586   0.454   2.725   1.961  0.2181 -0.4392 -0.2292
  211MOL   H16742587   0.605   2.671   2.187  1.3656 -1.5205 -0.1294
  211MOL   H16842588   0.493   2.548   2.253  0.4675 -0.1948  0.5330
  211MOL   H16942589   0.332   2.602   2.081 -0.2136 -0.4615  2.7248
  211MOL   H17042590   0.399   2.740   2.161  0.9425 -0.5387  1.5603
  211MOL   H17142591   0.545   2.693   1.931 -0.7259 -3.8350  0.3414
  211MOL   C17242592   0.393   2.834   1.907  0.0178  0.0026 -0.5082
  211MOL   O17342593   0.288   2.877   1.957 -0.1402 -0.0740  0.3570
  211MOL   C17442594   0.455   2.904   1.784 -0.2513 -0.2648  0.6700
  211MOL   C17542595   0.350   2.973   1.690 -0.3412 -0.1474 -0.3794
  211MOL   N17642596   0.405   3.009   1.558 -0.0578  0.6676  0.2886
  211MOL   H17742597   0.498   2.825   1.723 -0.7922 -0.6074  0.7227
  211MOL   H17842598   0.534   2.977   1.799  0.6876 -1.1388  0.0155
  211MOL   H17942599   0.278   2.893   1.669  0.7220 -1.4811  0.9154
  211MOL   H18042600   0.297   3.056   1.737  1.4049  0.5596  0.3985
  211MOL   H18142601   0.486   2.956   1.531 -1.2791 -1.6042  0.9758
  211MOL   C18242602   0.336   3.085   1.468  0.1974 -0.3959 -0.1074
  211MOL   O18342603   0.241   3.154   1.505 -0.7221 -0.8589 -0.3492
  211MOL   C18442604   0.391   3.079   1.322  0.1835  0.1940 -0.2254
  211MOL   C18542605   0.481   3.199   1.279  0.8723  0.4085 -0.0180
  211MOL   N18642606   0.613   3.189   1.346  0.7346 -0.0246 -0.4444
  211MOL   H18742607   0.316   3.079   1.242 -1.5160 -1.6515  1.3211
  211MOL   H18842608   0.445   2.986   1.306  0.8777  0.6568 -0.6115
  211MOL   H18942609   0.510   3.183   1.176 -1.2303 -1.6707 -0.3258
  211MOL   H19042610   0.428   3.293   1.292 -0.4660 -0.1484 -1.4442
  211MOL   H19142611   0.670   3.106   1.348  0.5729 -0.1135  0.5504
  211MOL   C19242612   0.649   3.281   1.436 -0.7571 -0.5124 -0.2583
  211MOL   O19342613   0.575   3.375   1.461  0.4976  0.8630  0.5159
  211MOL   C19442614   0.789   3.278   1.504 -0.1733  0.1902 -0.2787
  211MOL   C19542615   0.845   3.421   1.546  0.0779 -0.1443  0.5394
  211MOL   N19642616   0.920   3.489   1.448  0.1090  0.5003  0.2826
  211MOL   H19742617   0.772   3.220   1.595  0.2669  1.5280  0.6636
  211MOL   H19842618   0.865   3.221   1.451 -0.8149  0.1397 -1.1595
  211MOL   H19942619   0.764   3.492   1.564  0.5326  0.3585  0.6042
  211MOL   H20042620   0.913   3.428   1.631  1.7165  0.8075 -0.8240
  211MOL   H20142621   0.937   3.580   1.487 -1.1570  1.3933 -1.1689
  211MOL   H20242622   1.016   3.458   1.442 -0.2320 -0.6862  0.9090
  212MOL     C142623   7.116   4.175   1.433 -0.1115  0.2271 -0.0283
  212MOL     O242624   7.208   4.165   1.517 -0.1031 -0.5164  0.1962
  212MOL     C342625   7.023   4.057   1.414  0.1439  0.6410 -0.1357
  212MOL     C442626   6.947   4.000   1.539 -0.4752  0.2913  0.1655
  212MOL     N542627   6.814   4.057   1.556 -0.3769 -0.2319 -0.3288
  212MOL     H642628   7.090   3.984   1.370 -0.9765  0.0682 -0.9082
  212MOL     H742629   6.950   4.078   1.336 -0.2548  1.4863  0.4552
  212MOL     H842630   7.015   4.023   1.621 -1.9744 -1.3782  1.9290
  212MOL     H942631   6.940   3.892   1.544  1.2426  0.2134  1.1743
  212MOL    H1042632   6.782   4.108   1.475  2.1557  0.4524 -0.9381
  212MOL    H1142633   7.094   4.266   1.377 -0.1904 -1.7437 -3.3475
  212MOL    C1242634   6.726   4.028   1.654 -0.0872  0.0853  0.1235
  212MOL    O1342635   6.748   3.950   1.748 -0.5137  0.1281  0.0498
  212MOL    C1442636   6.584   4.099   1.636 -0.3106  0.2493  0.2005
  212MOL    C1542637   6.469   4.009   1.670 -0.2093  0.0171 -0.1994
  212MOL    N1642638   6.465   3.886   1.597  0.1064  0.5788  0.0166
  212MOL    H1742639   6.572   4.131   1.533 -2.1460  0.9102  0.6031
  212MOL    H1842640   6.587   4.188   1.699 -0.7101  0.0107  0.5629
  212MOL    H1942641   6.456   3.981   1.775 -0.3431 -2.1400 -0.7886
  212MOL    H2042642   6.378   4.063   1.645 -1.3841 -2.0202 -0.4148
  212MOL    H2142643   6.495   3.804   1.648 -0.9704 -0.2072 -0.5924
  212MOL    C2242644   6.411   3.873   1.478  0.7708 -0.5705  0.1796
  212MOL    O2342645   6.373   3.969   1.409  0.0176  0.3271  0.2493
  212MOL    C2442646   6.396   3.725   1.437 -0.0747  0.0986 -0.4806
  212MOL    C2542647   6.264   3.643   1.479 -0.9831 -0.1436 -0.1757
  212MOL    N2642648   6.289   3.620   1.621 -0.4556 -0.3306  0.7403
  212MOL    H2742649   6.483   3.667   1.470  1.3097  2.2092 -0.2614
  212MOL    H2842650   6.386   3.711   1.330 -0.6943  1.5945 -0.6333
  212MOL    H2942651   6.174   3.703   1.463 -1.0521  0.3014  1.7521
  212MOL    H3042652   6.265   3.549   1.424  0.3494  0.4843 -1.2529
  212MOL    H3142653   6.386   3.596   1.639  0.0948 -0.4879 -2.2109
  212MOL    C3242654   6.189   3.591   1.708 -0.0941  0.3218  0.0592
  212MOL    O3342655   6.068   3.613   1.683 -0.0287  0.1043 -0.5225
  212MOL    C3442656   6.227   3.519   1.845 -0.2944  0.7992 -0.1896
  212MOL    C3542657   6.207   3.367   1.839  0.5860  0.2120 -0.2969
  212MOL    N3642658   6.310   3.306   1.755  0.1877  0.2643  0.9572
  212MOL    H3742659   6.171   3.565   1.926  0.0043 -0.5489  0.7932
  212MOL    H3842660   6.331   3.541   1.871 -0.9108 -0.0505  3.1956
  212MOL    H3942661   6.213   3.312   1.933  2.3905 -0.8890 -1.0152
  212MOL    H4042662   6.107   3.353   1.799 -0.9122  0.4546  3.2085
  212MOL    H4142663   6.283   3.277   1.662  4.1626 -3.3425  0.7595
  212MOL    C4242664   6.435   3.278   1.776 -0.4286 -0.5823 -0.5056
  212MOL    O4342665   6.499   3.307   1.875  0.0841 -0.0281  0.2047
  212MOL    C4442666   6.507   3.213   1.653  0.4628 -0.0192  0.2604
  212MOL    C4542667   6.506   3.063   1.664 -0.5563  0.4471  0.1924
  212MOL    N4642668   6.606   3.008   1.581  0.2594  0.1296  0.0089
  212MOL    H4742669   6.456   3.246   1.563  1.7941  1.8682  0.1710
  212MOL    H4842670   6.609   3.251   1.650  0.4271 -0.0081 -1.0428
  212MOL    H4942671   6.516   3.024   1.765  0.1155  0.3716  0.1021
  212MOL    H5042672   6.417   3.022   1.615  0.8813 -1.6417 -0.7560
  212MOL    H5142673   6.674   3.071   1.540  0.6760  0.2569  0.8895
  212MOL    C5242674   6.646   2.879   1.578 -0.0842  0.0534 -0.5422
  212MOL    O5342675   6.578   2.787   1.613  0.0484 -0.7706  0.5252
  212MOL    C5442676   6.787   2.846   1.539 -0.6263 -0.7825  0.0578
  212MOL    C5542677   6.817   2.702   1.488 -0.7257  0.3889 -0.2182
  212MOL    N5642678   6.769   2.685   1.349 -0.1082  0.7019  0.1791
  212MOL    H5742679   6.831   2.909   1.461 -1.4765 -0.2995 -0.0329
  212MOL    H5842680   6.843   2.868   1.630 -0.7530 -0.0838 -0.0300
  212MOL    H5942681   6.782   2.618   1.548 -1.4255  2.0651  1.7943
  212MOL    H6042682   6.925   2.696   1.491 -0.7521 -0.0292 -0.0505
  212MOL    H6142683   6.709   2.757   1.312  1.1018  1.4490 -0.3482
  212MOL    C6242684   6.793   2.569   1.281 -0.1953 -0.2964  0.2354
  212MOL    O6342685   6.860   2.474   1.322  0.0817  0.0425 -0.4723
  212MOL    C6442686   6.716   2.563   1.144  0.0469 -0.0678  0.6343
  212MOL    C6542687   6.717   2.417   1.081  0.2849  0.3220  0.4324
  212MOL    N6642688   6.623   2.323   1.141  0.2325 -0.5697 -0.4586
  212MOL    H6742689   6.618   2.602   1.174 -0.7985 -0.0167 -2.0528
  212MOL    H6842690   6.763   2.627   1.070 -2.0525  2.6578  1.5932
  212MOL    H6942691   6.688   2.436   0.978  2.6838  3.9118  0.3394
  212MOL    H7042692   6.820   2.379   1.083  0.7065  1.4636  3.9405
  212MOL    H7142693   6.667   2.240   1.179 -2.0604 -1.7331 -0.2882
  212MOL    C7242694   6.489   2.316   1.125 -0.0711  0.7833 -0.2984
  212MOL    O7342695   6.423   2.405   1.080  0.2640  0.5853 -1.0400
  212MOL    C7442696   6.414   2.192   1.172 -0.3479  0.3894 -0.2979
  212MOL    C7542697   6.260   2.195   1.157 -0.3921  0.5066 -0.1015
  212MOL    N7642698   6.182   2.071   1.191  0.7455 -0.0679 -0.6830
  212MOL    H7742699   6.438   2.102   1.114 -1.0398 -0.5979  0.9187
  212MOL    H7842700   6.452   2.175   1.272  1.5322  0.8604 -0.9251
  212MOL    H7942701   6.225   2.280   1.216  2.9893  1.1044  1.1774
  212MOL    H8042702   6.242   2.229   1.055  2.1672 -1.3682 -1.2173
  212MOL    H8142703   6.234   1.985   1.200 -1.3396 -1.1151  2.0985
  212MOL    C8242704   6.046   2.064   1.197  0.2290  0.0155 -0.2590
  212MOL    O8342705   5.972   2.167   1.193 -0.1034  0.3671  0.1192
  212MOL    C8442706   5.974   1.930   1.235  0.0710  0.4820  0.9593
  212MOL    C8542707   5.920   1.855   1.108  0.0883  0.3511  0.0383
  212MOL    N8642708   5.834   1.744   1.140  1.1314 -0.7047 -0.5831
  212MOL    H8742709   6.040   1.869   1.297  0.3696  0.9501  1.1022
  212MOL    H8842710   5.885   1.949   1.295 -0.9738 -0.2114 -0.3377
  212MOL    H8942711   5.884   1.922   1.030  1.8944 -1.2842 -2.2181
  212MOL    H9042712   6.007   1.800   1.072  1.9768  1.9101  2.0847
  212MOL    H9142713   5.869   1.659   1.181 -0.3118 -0.4216  1.3283
  212MOL    C9242714   5.700   1.743   1.128 -0.2878  0.3386  0.1927
  212MOL    O9342715   5.628   1.833   1.076 -0.6463 -0.0287 -0.7659
  212MOL    C9442716   5.624   1.627   1.194 -0.3037 -0.6841  0.2976
  212MOL    C9542717   5.533   1.550   1.096 -1.1163 -0.3099 -0.6010
  212MOL    N9642718   5.609   1.453   1.019  0.4579  0.4056  0.0098
  212MOL    H9742719   5.691   1.559   1.245  0.1632 -0.7979 -0.4493
  212MOL    H9842720   5.552   1.662   1.268 -0.2127 -1.6918  0.8730
  212MOL    H9942721   5.460   1.493   1.154  0.7052 -1.0924  0.9681
  212MOL   H10042722   5.478   1.620   1.033 -0.4234 -2.3482 -3.5337
  212MOL   H10142723   5.710   1.451   1.027  0.4719 -3.6236 -0.2351
  212MOL   C10242724   5.554   1.361   0.940  0.5196  0.0216 -0.2392
  212MOL   O10342725   5.435   1.360   0.910  0.2140 -0.0944 -0.4297
  212MOL   C10442726   5.654   1.261   0.891 -0.0872  0.3486  0.6662
  212MOL   C10542727   5.609   1.177   0.767  0.4199 -0.5349  0.5157
  212MOL   N10642728   5.684   1.056   0.757 -0.0205 -0.5615 -0.1415
  212MOL   H10742729   5.670   1.198   0.979 -0.7643 -2.2513 -1.0137
  212MOL   H10842730   5.743   1.322   0.877  0.2736 -0.4887 -0.8057
  212MOL   H10942731   5.505   1.150   0.788  0.6556 -0.8169  1.3618
  212MOL   H11042732   5.610   1.223   0.668 -0.1754 -0.3253  0.6049
  212MOL   H11142733   5.627   0.973   0.749 -1.9364  0.7621 -0.4138
  212MOL   C11242734   5.816   1.043   0.739 -0.1611 -0.1777 -0.2520
  212MOL   O11342735   5.895   1.139   0.740 -0.5885 -0.7701 -0.2402
  212MOL   C11442736   5.861   0.897   0.711  0.2632 -0.6835  0.3058
  212MOL   C11542737   5.918   0.879   0.569  0.3753 -0.3634  0.1774
  212MOL   N11642738   5.996   0.758   0.554  0.3339  0.1457  0.2003
  212MOL   H11742739   5.777   0.829   0.725 -0.5018  0.1392 -0.2425
  212MOL   H11842740   5.930   0.878   0.793  0.0010  0.4545  0.8021
  212MOL   H11942741   5.835   0.872   0.498 -0.5692  1.0488  1.1155
  212MOL   H12042742   5.965   0.969   0.528  0.3006 -0.6566 -0.5592
  212MOL   H12142743   5.971   0.681   0.615 -1.0576  1.8218  1.8097
  212MOL   C12242744   6.103   0.745   0.470  0.5809  0.7676  0.1755
  212MOL   O12342745   6.145   0.827   0.390  0.0306  0.4644  0.3031
  212MOL   C12442746   6.173   0.613   0.486  0.1322 -0.8949  0.9564
  212MOL   C12542747   6.129   0.498   0.388 -0.6731 -0.0795  0.3456
  212MOL   N12642748   5.991   0.465   0.409  0.0242 -0.5901 -0.2402
  212MOL   H12742749   6.145   0.563   0.579  0.1779 -0.6221  1.1149
  212MOL   H12842750   6.277   0.643   0.498 -0.2254  0.2089  1.3468
  212MOL   H12942751   6.141   0.522   0.283  2.0036 -1.2788  0.3162
  212MOL   H13042752   6.194   0.413   0.411  1.4220  1.1814 -0.7302
  212MOL   H13142753   5.916   0.497   0.349 -1.8806  0.5662  2.6702
  212MOL   C13242754   5.941   0.383   0.502  0.0504 -0.7020  0.2342
  212MOL   O13342755   6.006   0.324   0.587  0.2459 -0.2214 -0.8565
  212MOL   C13442756   5.792   0.350   0.490  0.1964 -0.3411 -0.6634
  212MOL   C13542757   5.706   0.349   0.616  0.4363 -0.2963  0.9487
  212MOL   N13642758   5.581   0.295   0.576  0.4473  0.1515  0.1379
  212MOL   H13742759   5.783   0.255   0.437  2.0934 -0.3986 -0.9197
  212MOL   H13842760   5.764   0.424   0.416  1.2571 -0.8817 -1.6118
  212MOL   H13942761   5.745   0.285   0.694  2.5775 -2.2320 -1.6028
  212MOL   H14042762   5.695   0.453   0.649  1.8279  0.3863 -0.6808
  212MOL   H14142763   5.530   0.365   0.524  2.0246 -0.4237 -2.2708
  212MOL   C14242764   5.531   0.171   0.603 -0.5073 -0.1167  0.4714
  212MOL   O14342765   5.599   0.074   0.640 -0.5085  0.1781  0.0943
  212MOL   C14442766   5.385   0.144   0.567 -0.5183  0.1564  0.6654
  212MOL   C14542767   5.343   7.778   0.563  0.4364  0.1363  0.1271
  212MOL   N14642768   5.196   7.763   0.548  0.3336  0.9994  0.0769
  212MOL   H14742769   5.378   0.190   0.468 -0.7873 -0.4491  0.3995
  212MOL   H14842770   5.312   0.200   0.625 -2.4020 -1.7445  0.2128
  212MOL   H14942771   5.393   7.732   0.478  3.3567  3.5753 -0.1281
  212MOL   H15042772   5.383   7.725   0.649  2.7415 -1.2952 -1.7808
  212MOL   H15142773   5.143   0.061   0.513  1.4125  1.8012  0.2200
  212MOL   C15242774   5.133   7.642   0.540  0.8466  0.1173 -0.0424
  212MOL   O15342775   5.192   7.537   0.557 -0.3236  0.0832 -0.0519
  212MOL   C15442776   4.980   7.640   0.508 -0.6521 -0.3496 -0.6242
  212MOL   C15542777   4.899   7.544   0.596  1.0782  0.2331 -0.2435
  212MOL   N15642778   4.870   7.414   0.542  0.2536  0.4785  0.1092
  212MOL   H15742779   4.966   7.610   0.404 -0.8164 -0.6534 -0.5161
  212MOL   H15842780   4.933   7.737   0.524  0.3248 -0.3515  2.5841
  212MOL   H15942781   4.954   7.521   0.688  1.1741  0.1394 -0.3239
  212MOL   H16042782   4.802   7.585   0.624  0.6342  0.0961 -1.5521
  212MOL   H16142783   4.943   7.345   0.545 -1.8197 -1.7979 -0.0906
  212MOL   C16242784   4.755   7.387   0.478  0.1100  0.1324 -0.0554
  212MOL   O16342785   4.670   7.476   0.474  0.1457  0.2272  0.1563
  212MOL   C16442786   4.714   7.246   0.422  0.2058 -0.2226  0.0752
  212MOL   C16542787   4.587   7.179   0.475 -0.1166 -0.1366 -0.6041
  212MOL   N16642788   4.604   7.130   0.615  1.1596  0.4827 -0.0061
  212MOL   H16742789   4.800   7.180   0.432  0.5743  0.0875 -1.0511
  212MOL   H16842790   4.698   7.260   0.315 -1.5152  1.4176  0.5172
  212MOL   H16942791   4.510   7.256   0.473 -1.7085 -1.7121 -1.9011
  212MOL   H17042792   4.534   7.106   0.414 -1.0386  0.0354 -0.0141
  212MOL   H17142793   4.633   7.034   0.618  1.4184  0.5061 -1.4177
  212MOL   C17242794   4.587   7.194   0.729 -0.0176  0.1696  0.9205
  212MOL   O17342795   4.552   7.310   0.731  0.0290  0.1805  0.3394
  212MOL   C17442796   4.607   7.107   0.854 -0.7465  0.3223 -0.0082
  212MOL   C17542797   4.559   7.178   0.982  0.5512 -0.3376  0.3729
  212MOL   N17642798   4.414   7.165   0.992 -0.1131  0.6459 -0.4478
  212MOL   H17742799   4.706   7.065   0.872 -0.5853 -0.0728 -1.7522
  212MOL   H17842800   4.545   7.017   0.849 -1.3319  0.7986 -2.1035
  212MOL   H17942801   4.594   7.147   1.080 -1.2094  1.9337  1.7683
  212MOL   H18042802   4.595   7.281   0.983 -1.2689  0.3153  0.2612
  212MOL   H18142803   4.382   7.069   0.988 -0.3064  0.6261  1.1379
  212MOL   C18242804   4.329   7.267   0.995 -0.2731  0.1836  0.3392
  212MOL   O18342805   4.363   7.385   0.993  0.5726  0.5666 -0.1753
  212MOL   C18442806   4.184   7.230   0.998  0.3579  0.7190 -0.3417
  212MOL   C18542807   4.109   7.269   1.128  0.6445  0.6234  0.6757
  212MOL   N18642808   3.975   7.199   1.144 -0.3144  0.1234  0.1076
  212MOL   H18742809   4.164   7.125   0.978  0.3947  0.9520 -1.6316
  212MOL   H18842810   4.138   7.289   0.919 -2.2119 -1.7158 -0.7366
  212MOL   H18942811   4.173   7.254   1.215  0.7857 -0.2977  0.4148
  212MOL   H19042812   4.094   7.377   1.128 -1.0476  0.4106 -1.3908
  212MOL   H19142813   3.948   7.126   1.080  0.6972 -1.2213  1.1681
  212MOL   C19242814   3.892   7.219   1.247  1.0378  0.7128  1.0345
  212MOL   O19342815   3.910   7.292   1.340  0.0710  0.5392  0.4663
  212MOL   C19442816   3.776   7.130   1.246 -0.4715 -0.4704  0.3548
  212MOL   C19542817   3.657   7.176   1.164 -0.3898 -0.3889 -0.8643
  212MOL   N19642818   3.577   7.288   1.225 -0.3386  0.4366 -0.1243
  212MOL   H19742819   3.809   7.032   1.214  2.2736  0.9881 -1.4023
  212MOL   H19842820   3.739   7.126   1.349  1.3954  1.5553  1.1240
  212MOL   H19942821   3.680   7.193   1.059 -2.0724 -0.8586 -1.3262
  212MOL   H20042822   3.588   7.091   1.169  0.3799 -0.9809 -0.0988
  212MOL   H20142823   3.507   7.313   1.157  1.4228  1.7664 -1.4749
  212MOL   H20242824   3.638   7.367   1.229 -0.6905  0.7007  0.0695
  213MOL     C142825   5.739   6.100   2.381  0.2412  0.2058 -0.5530
  213MOL     O242826   5.641   6.155   2.433 -1.0162 -0.4113 -0.4506
  213MOL     C342827   5.727   5.995   2.269  0.2557 -0.1204 -0.2101
  213MOL     C442828   5.611   5.893   2.280  0.3548 -0.0695 -0.4318
  213MOL     N542829   5.624   5.788   2.380  0.1146 -1.0006 -0.2451
  213MOL     H642830   5.825   5.948   2.265  0.6827  0.7248 -0.0021
  213MOL     H742831   5.717   6.061   2.182 -0.5264 -0.5088 -0.4232
  213MOL     H842832   5.592   5.842   2.186 -2.6554  2.2305 -1.1805
  213MOL     H942833   5.520   5.951   2.299  0.3206  0.4451 -2.0897
  213MOL    H1042834   5.583   5.808   2.470  1.0699  0.0690 -0.0322
  213MOL    H1142835   5.840   6.115   2.420 -0.2098  0.3857  0.5655
  213MOL    C1242836   5.659   5.658   2.365 -1.2071 -0.1157  0.3826
  213MOL    O1342837   5.691   5.605   2.260  0.6788 -0.1993  0.2326
  213MOL    C1442838   5.666   5.578   2.495 -0.2969  0.4032 -0.2308
  213MOL    C1542839   5.552   5.479   2.505  0.0850 -0.5134  0.8731
  213MOL    N1642840   5.542   5.421   2.636  0.0088 -0.1497 -0.1105
  213MOL    H1742841   5.661   5.652   2.575 -1.6679  0.4149 -0.3163
  213MOL    H1842842   5.761   5.523   2.490  1.4591  3.5173 -3.7508
  213MOL    H1942843   5.455   5.515   2.469  0.8430  0.1629 -0.5204
  213MOL    H2042844   5.580   5.396   2.440 -3.6696 -0.1229 -1.4509
  213MOL    H2142845   5.614   5.353   2.655  2.2111  1.3567 -2.6534
  213MOL    C2242846   5.458   5.445   2.739 -0.1687 -0.4008 -0.0319
  213MOL    O2342847   5.469   5.377   2.844 -0.2049  0.1198 -0.5832
  213MOL    C2442848   5.346   5.543   2.727  0.1918 -0.7720  0.1602
  213MOL    C2542849   5.368   5.688   2.793 -0.1639 -0.9111 -0.0754
  213MOL    N2642850   5.288   5.790   2.720 -0.1549 -0.4268 -0.6211
  213MOL    H2742851   5.259   5.495   2.772 -0.5043 -0.5954 -0.9881
  213MOL    H2842852   5.324   5.558   2.622  1.1318  1.6441  0.2757
  213MOL    H2942853   5.346   5.685   2.900  0.1226 -0.4932 -0.0073
  213MOL    H3042854   5.473   5.714   2.788 -0.7268  0.9035 -5.5108
  213MOL    H3142855   5.188   5.779   2.716 -0.0783 -1.6322  0.4263
  213MOL    C3242856   5.339   5.883   2.634  0.3604  0.5062  0.2973
  213MOL    O3342857   5.461   5.884   2.616 -0.3333  0.0972 -0.6868
  213MOL    C3442858   5.244   5.981   2.562  0.7366 -0.0186 -0.8142
  213MOL    C3542859   5.309   6.115   2.518  0.2012 -0.2050 -0.0604
  213MOL    N3642860   5.367   6.196   2.628 -0.1084 -0.1248  0.2943
  213MOL    H3742861   5.174   6.023   2.634  0.7808 -2.3053  0.6205
  213MOL    H3842862   5.179   5.937   2.486  0.3865  0.7227 -0.9539
  213MOL    H3942863   5.379   6.089   2.439  2.1697  0.6439  1.3419
  213MOL    H4042864   5.229   6.170   2.469 -1.1935 -1.3540  0.8830
  213MOL    H4142865   5.348   6.171   2.724 -0.7153 -0.9592 -0.0349
  213MOL    C4242866   5.423   6.319   2.624  0.2283  0.0140  0.7044
  213MOL    O4342867   5.430   6.382   2.516  0.2813  0.7997 -0.2681
  213MOL    C4442868   5.487   6.374   2.751 -1.0049 -0.3673  0.6352
  213MOL    C4542869   5.595   6.490   2.726  0.4924 -0.5341  0.0996
  213MOL    N4642870   5.677   6.462   2.605 -0.2904 -0.6072 -0.7486
  213MOL    H4742871   5.403   6.403   2.814 -0.7432  1.1838  0.2919
  213MOL    H4842872   5.538   6.291   2.800  2.3953  1.0089 -0.4203
  213MOL    H4942873   5.543   6.586   2.728  2.0143  0.2900  1.8791
  213MOL    H5042874   5.666   6.506   2.807  1.0478  0.6013 -0.5897
  213MOL    H5142875   5.619   6.431   2.528  0.1815 -2.2944 -0.4525
  213MOL    C5242876   5.808   6.489   2.589 -0.5230  0.4153 -0.4475
  213MOL    O5342877   5.871   6.535   2.674 -0.7563 -0.5904  0.3383
  213MOL    C5442878   5.877   6.445   2.459 -0.4294 -0.2675 -0.0795
  213MOL    C5542879   6.025   6.397   2.476 -0.6909 -0.3147 -0.2098
  213MOL    N5642880   6.112   6.491   2.397 -0.7324 -0.5994 -0.3115
  213MOL    H5742881   5.817   6.358   2.432 -0.9874 -0.4118  1.5388
  213MOL    H5842882   5.869   6.521   2.382 -1.1045  1.2908  1.5047
  213MOL    H5942883   6.051   6.299   2.436 -1.1888 -0.1016 -1.0656
  213MOL    H6042884   6.070   6.389   2.575 -0.1792  0.0930 -0.4073
  213MOL    H6142885   6.175   6.550   2.450 -1.2491 -0.2405 -0.0944
  213MOL    C6242886   6.138   6.485   2.265  0.5382  0.3604  0.4612
  213MOL    O6342887   6.095   6.400   2.186 -0.4921  0.0503  0.5357
  213MOL    C6442888   6.246   6.589   2.225  0.1418  0.2561 -0.5792
  213MOL    C6542889   6.289   6.589   2.086 -0.1849  0.1345  0.1635
  213MOL    N6642890   6.359   6.465   2.047  0.1715  0.6140 -0.1318
  213MOL    H6742891   6.206   6.689   2.243  1.4083  0.8560 -1.0964
  213MOL    H6842892   6.333   6.577   2.289  0.7551  0.7316 -1.3241
  213MOL    H6942893   6.198   6.615   2.032 -0.6742  1.3992  1.5640
  213MOL    H7042894   6.363   6.668   2.075  0.8779 -0.5855  1.8016
  213MOL    H7142895   6.416   6.422   2.119 -0.5291 -0.6354 -0.3112
  213MOL    C7242896   6.348   6.410   1.921 -0.1607  0.0649 -0.0411
  213MOL    O7342897   6.294   6.469   1.825  0.4787 -0.1969  0.3703
  213MOL    C7442898   6.394   6.260   1.895  0.1269  0.5713 -0.2398
  213MOL    C7542899   6.499   6.251   1.771  0.1408  0.5550  0.0621
  213MOL    N7642900   6.638   6.251   1.822  0.3283 -0.1318  0.5892
  213MOL    H7742901   6.424   6.227   1.994 -3.6712  2.7797  1.7695
  213MOL    H7842902   6.301   6.211   1.865  0.0725  1.9891 -2.4845
  213MOL    H7942903   6.480   6.169   1.702 -0.0407  1.5191 -1.0353
  213MOL    H8042904   6.494   6.336   1.704 -1.9342 -0.0032 -0.5230
  213MOL    H8142905   6.689   6.338   1.814  0.6276 -0.3018  0.6526
  213MOL    C8242906   6.695   6.139   1.879  0.3799 -1.0837 -0.0022
  213MOL    O8342907   6.638   6.032   1.893 -0.0532 -0.7037 -0.3955
  213MOL    C8442908   6.830   6.152   1.940 -0.3209 -0.7916 -0.7676
  213MOL    C8542909   6.937   6.083   1.859  0.0346  0.6625 -0.2669
  213MOL    N8642910   7.043   6.166   1.798 -0.1576 -0.1901 -0.3555
  213MOL    H8742911   6.859   6.256   1.957  0.1650 -1.2547  1.3049
  213MOL    H8842912   6.838   6.102   2.036 -0.1895  0.4945 -0.0942
  213MOL    H8942913   6.988   6.007   1.918 -0.9390 -0.4128 -0.7951
  213MOL    H9042914   6.886   6.036   1.775  2.5908  0.8500 -1.9835
  213MOL    H9142915   7.140   6.138   1.805 -0.6339 -1.8886 -0.1748
  213MOL    C9242916   7.026   6.266   1.711  0.2913 -0.5150 -0.4139
  213MOL    O9342917   6.919   6.283   1.663 -0.0872  0.0748  0.0147
  213MOL    C9442918   7.151   6.337   1.668 -0.4603  0.5903 -0.1822
  213MOL    C9542919   7.151   6.410   1.528  0.5035  0.2604 -1.0758
  213MOL    N9642920   7.139   6.313   1.411  0.0193  0.0659  0.5669
  213MOL    H9742921   7.162   6.413   1.746  3.2169 -0.0135  0.0006
  213MOL    H9842922   7.228   6.260   1.677  0.3316  1.3656 -0.1771
  213MOL    H9942923   7.072   6.484   1.537 -2.1318 -2.4339 -1.1263
  213MOL   H10042924   7.248   6.460   1.528  0.4386  0.4365  1.2023
  213MOL   H10142925   7.060   6.320   1.348  1.3026  0.5648 -1.0111
  213MOL   C10242926   7.243   6.234   1.378 -0.5311 -0.4339 -0.9936
  213MOL   O10342927   7.346   6.238   1.443 -0.2750 -0.2411 -0.0243
  213MOL   C10442928   7.243   6.148   1.260  0.2007 -0.3819  0.0972
  213MOL   C10542929   7.361   6.053   1.233 -0.0766  0.2652 -0.0430
  213MOL   N10642930   7.318   5.965   1.121  0.1567 -0.1995  0.9192
  213MOL   H10742931   7.229   6.216   1.177  1.5120 -2.1426 -1.6063
  213MOL   H10842932   7.154   6.085   1.263  1.4217 -2.2532 -1.6348
  213MOL   H10942933   7.458   6.099   1.216  0.3813 -0.8246 -0.4238
  213MOL   H11042934   7.382   5.992   1.321 -0.5429  0.1843  0.0155
  213MOL   H11142935   7.272   5.877   1.141  0.1975 -0.3901  0.1717
  213MOL   C11242936   7.327   6.002   0.995 -0.1878  0.4304 -0.0083
  213MOL   O11342937   7.388   6.100   0.954 -0.0825 -0.4988  0.5113
  213MOL   C11442938   7.259   5.900   0.905 -0.2318  0.0275 -1.0488
  213MOL   C11542939   7.304   5.905   0.760 -0.4352 -0.2892  0.2755
  213MOL   N11642940   7.257   6.015   0.679 -0.2082 -0.3276  0.5071
  213MOL   H11742941   7.151   5.914   0.913 -0.2479 -0.6626  0.0045
  213MOL   H11842942   7.282   5.799   0.938  2.3736  0.5227 -1.2995
  213MOL   H11942943   7.413   5.903   0.765 -0.2863  4.2256  1.0275
  213MOL   H12042944   7.278   5.807   0.720 -0.5206  0.1501 -0.7771
  213MOL   H12142945   7.311   6.100   0.682  1.2317 -1.1504 -1.4832
  213MOL   C12242946   7.140   6.030   0.602  0.1819  0.2852  0.1395
  213MOL   O12342947   7.060   5.935   0.605 -0.5345  0.0318 -0.2984
  213MOL   C12442948   7.125   6.155   0.520 -0.0092  0.2162 -0.8203
  213MOL   C12542949   7.056   6.129   0.388 -0.1963 -0.1660  0.1712
  213MOL   N12642950   7.052   6.234   0.290 -0.1406 -0.0084 -0.3125
  213MOL   H12742951   7.225   6.192   0.494 -0.3506  2.2268  0.6294
  213MOL   H12842952   7.072   6.229   0.579  1.6321  0.7958 -0.0231
  213MOL   H12942953   7.104   6.046   0.336  0.7514 -0.1732  1.0526
  213MOL   H13042954   6.954   6.101   0.413 -0.1181 -1.1649 -0.6054
  213MOL   H13142955   7.119   6.308   0.304  0.9769 -1.0777  0.1204
  213MOL   C13242956   6.955   6.244   0.202 -0.8499 -0.2778 -0.1416
  213MOL   O13342957   6.874   6.154   0.179 -0.5025 -0.3037  0.0729
  213MOL   C13442958   6.962   6.374   0.114  0.0095  0.0360 -0.4463
  213MOL   C13542959   7.060   6.348   7.779 -0.3866 -0.2239 -0.2351
  213MOL   N13642960   7.072   6.445   7.671 -0.2070 -0.1171 -0.3692
  213MOL   H13742961   6.982   6.458   0.181  3.7436 -0.3475 -0.9662
  213MOL   H13842962   6.866   6.387   0.064  0.0665 -1.7992 -1.0526
  213MOL   H13942963   7.160   6.345   0.043 -0.6361  1.5064  0.4829
  213MOL   H14042964   7.040   6.251   7.734  1.5123  0.4690 -2.6681
  213MOL   H14142965   7.142   6.516   7.689 -3.1612  2.1603  2.4797
  213MOL   C14242966   7.003   6.440   7.562  0.0405  0.2721  0.2929
  213MOL   O14342967   6.909   6.363   7.547  0.1530 -0.3048 -0.9884
  213MOL   C14442968   7.035   6.545   7.456  0.1154  0.0484 -0.8915
  213MOL   C14542969   7.014   6.497   7.306 -0.0057  0.3558 -0.7140
  213MOL   N14642970   6.957   6.599   7.222 -0.1941 -0.4001 -0.5358
  213MOL   H14742971   7.139   6.570   7.475  0.2726 -0.8836 -0.5326
  213MOL   H14842972   6.985   6.641   7.472  1.9272  0.4469  2.8501
  213MOL   H14942973   7.114   6.467   7.274  0.1663 -1.3571  1.3023
  213MOL   H15042974   6.955   6.406   7.303 -0.7675  0.8763 -1.8009
  213MOL   H15142975   6.963   6.692   7.260 -3.2501  0.2700 -1.5617
  213MOL   C15242976   6.880   6.579   7.114 -0.2585 -0.5540  0.4793
  213MOL   O15342977   6.863   6.465   7.063  0.4146 -0.1007  0.1221
  213MOL   C15442978   6.800   6.696   7.057 -0.5572  0.6403  0.6742
  213MOL   C15542979   6.654   6.670   7.076 -0.4831 -0.0796 -0.5385
  213MOL   N15642980   6.586   6.779   7.008 -0.4846 -0.0646 -0.7291
  213MOL   H15742981   6.814   6.711   6.950 -0.0801  3.1404  1.0502
  213MOL   H15842982   6.829   6.788   7.106  2.5776  0.9365 -1.5705
  213MOL   H15942983   6.623   6.577   7.029 -1.1283 -0.6413  0.9872
  213MOL   H16042984   6.618   6.664   7.179  0.2302 -0.4942 -0.3148
  213MOL   H16142985   6.606   6.873   7.040  1.2321 -0.0415 -1.8553
  213MOL   C16242986   6.488   6.766   6.919 -0.2694  0.5089  1.1987
  213MOL   O16342987   6.444   6.658   6.890  0.3167  0.1492  0.0039
  213MOL   C16442988   6.441   6.896   6.843 -0.1591 -0.6667  0.2235
  213MOL   C16542989   6.356   6.868   6.720  0.0139  0.2981  0.4404
  213MOL   N16642990   6.320   6.985   6.638 -0.2092 -0.0214 -0.2032
  213MOL   H16742991   6.533   6.948   6.814 -0.6832  0.4718  0.6033
  213MOL   H16842992   6.402   6.975   6.906 -0.9014 -1.1826  0.4123
  213MOL   H16942993   6.396   6.800   6.644  1.2015  1.8826 -0.4048
  213MOL   H17042994   6.265   6.822   6.757  1.1719 -1.5401  1.0565
  213MOL   H17142995   6.283   7.060   6.695  0.9799  0.0314  0.5190
  213MOL   C17242996   6.304   6.988   6.499 -0.0071 -0.0778 -0.2572
  213MOL   O17342997   6.345   6.899   6.427 -0.9533 -0.3309  0.2549
  213MOL   C17442998   6.233   7.108   6.442 -0.1386  0.4485  0.7472
  213MOL   C17542999   6.086   7.066   6.398 -0.6219  0.0769  0.5000
  213MOL   N17643000   6.006   7.185   6.388 -0.5094 -0.4709 -0.3595
  213MOL   H17743001   6.297   7.149   6.364  0.0156  0.3842  0.8406
  213MOL   H17843002   6.224   7.196   6.506 -1.4624  1.8185 -1.2571
  213MOL   H17943003   6.089   6.999   6.312  0.3168  0.6333  0.0930
  213MOL   H18043004   6.045   6.999   6.474 -1.7139 -0.5288 -0.6236
  213MOL   H18143005   5.954   7.208   6.471  0.0098 -1.8177  0.3411
  213MOL   C18243006   5.998   7.255   6.275 -0.5416  0.2909 -0.3195
  213MOL   O18343007   6.060   7.228   6.174 -0.1640 -0.4690  0.7036
  213MOL   C18443008   5.910   7.373   6.290  0.3664  0.4891 -0.4247
  213MOL   C18543009   5.991   7.500   6.312 -0.1620 -0.8327  0.5857
  213MOL   N18643010   5.928   7.580   6.415 -0.7624 -0.0167  0.5942
  213MOL   H18743011   5.833   7.358   6.365 -0.1709 -1.0558 -1.2671
  213MOL   H18843012   5.848   7.386   6.201 -1.7857  1.2077  1.1490
  213MOL   H18943013   6.094   7.471   6.336  1.2556  2.8261 -0.6983
  213MOL   H19043014   5.990   7.564   6.223  0.9056  2.1071  2.5915
  213MOL   H19143015   5.834   7.566   6.449 -0.3663 -1.3283  1.2036
  213MOL   C19243016   5.979   7.695   6.458 -0.4921 -0.7929  0.2411
  213MOL   O19343017   6.090   7.733   6.416  0.1166  0.4638 -0.4499
  213MOL   C19443018   5.897   0.005   6.545  0.6939  0.4659  0.2980
  213MOL   C19543019   5.970   0.088   6.660  0.4388 -0.5157  0.1318
  213MOL   N19643020   6.026   0.212   6.610 -0.1364 -0.6272  0.3250
  213MOL   H19743021   5.839   0.072   6.482  1.5141  0.9265  0.0180
  213MOL   H19843022   5.825   7.724   6.599  1.8208  0.1505  1.4706
  213MOL   H19943023   5.906   0.104   6.746  2.2934 -2.1783  1.8699
  213MOL   H20043024   6.049   0.026   6.702  2.3788  1.5607 -0.3885
  213MOL   H20143025   6.082   0.199   6.526  3.7452 -0.3609  2.7407
  213MOL   H20243026   5.968   0.281   6.566  0.4277  0.1397  0.7668
  214MOL     C143027   5.602   4.589   3.539  0.0706 -0.1599 -0.1341
  214MOL     O243028   5.691   4.678   3.563 -0.0366  0.0567 -0.4093
  214MOL     C343029   5.569   4.561   3.389 -0.4877 -0.4690  0.4902
  214MOL     C443030   5.668   4.638   3.290 -0.0888  0.2415 -0.9022
  214MOL     N543031   5.687   4.578   3.153 -0.5164 -0.1499  0.4195
  214MOL     H643032   5.472   4.602   3.362  0.5625  1.0077 -1.1360
  214MOL     H743033   5.574   4.453   3.377  1.2185 -0.1713 -1.6756
  214MOL     H843034   5.768   4.644   3.332 -0.3951  1.6405 -0.3550
  214MOL     H943035   5.629   4.740   3.288  0.4266  0.4363 -1.0108
  214MOL    H1043036   5.784   4.554   3.140 -0.8565 -1.4429  0.1975
  214MOL    H1143037   5.545   4.534   3.614  1.2275  1.4207  1.9679
  214MOL    C1243038   5.599   4.577   3.049 -0.6631 -0.0235  0.1509
  214MOL    O1343039   5.484   4.614   3.070  0.0521 -0.4285  0.5968
  214MOL    C1443040   5.642   4.541   2.901 -0.2611  0.0400 -0.1863
  214MOL    C1543041   5.587   4.398   2.851 -0.1013 -0.2091  0.2044
  214MOL    N1643042   5.700   4.311   2.819  0.1440 -0.0311  0.9529
  214MOL    H1743043   5.750   4.534   2.909 -0.3585 -0.6201  0.5507
  214MOL    H1843044   5.614   4.621   2.832 -0.3980  0.9887  0.9478
  214MOL    H1943045   5.539   4.348   2.935  2.4832 -0.4164  1.5997
  214MOL    H2043046   5.508   4.401   2.776 -0.0363  2.2752  0.1834
  214MOL    H2143047   5.724   4.244   2.891  1.0640  0.2729  0.9336
  214MOL    C2243048   5.792   4.344   2.733  0.2689 -0.1558 -0.5959
  214MOL    O2343049   5.774   4.434   2.649  0.2025  0.2298  0.1204
  214MOL    C2443050   5.916   4.257   2.744 -0.1037  0.1117 -0.4740
  214MOL    C2543051   5.926   4.137   2.647  0.2577  0.0077  0.0523
  214MOL    N2643052   5.861   4.020   2.698 -0.4720 -0.1095  0.0308
  214MOL    H2743053   5.926   4.221   2.847 -1.3543  1.3817  0.1024
  214MOL    H2843054   6.007   4.317   2.741  0.3666 -0.3697  2.2972
  214MOL    H2943055   5.895   4.180   2.552  0.7737  2.0061  0.7610
  214MOL    H3043056   6.032   4.123   2.628  0.7297 -1.3680  3.2992
  214MOL    H3143057   5.806   4.025   2.782 -2.9734  1.5443 -1.6366
  214MOL    C3243058   5.881   3.901   2.647 -0.4683  0.1009  0.0451
  214MOL    O3343059   5.950   3.882   2.540  0.3039  0.3060 -0.1563
  214MOL    C3443060   5.810   3.784   2.709 -0.9376 -0.2544  0.4876
  214MOL    C3543061   5.778   3.666   2.609  0.4903  0.3421 -0.0088
  214MOL    N3643062   5.706   3.552   2.670 -0.2288 -0.4632  0.1838
  214MOL    H3743063   5.714   3.817   2.748 -1.2510  0.0629 -0.5372
  214MOL    H3843064   5.860   3.749   2.799 -2.1940 -0.1041  1.2559
  214MOL    H3943065   5.711   3.704   2.531  0.5607 -1.0317 -0.7596
  214MOL    H4043066   5.859   3.630   2.546  0.8985  0.9129  0.1902
  214MOL    H4143067   5.762   3.470   2.691  3.0842  1.6843  0.1068
  214MOL    C4243068   5.575   3.548   2.680  0.1783 -0.6846  0.0354
  214MOL    O4343069   5.498   3.645   2.653  0.5180  0.0145 -0.3341
  214MOL    C4443070   5.522   3.406   2.715 -0.1339  0.4675 -0.2612
  214MOL    C4543071   5.382   3.375   2.655 -0.8945  0.6849 -0.0275
  214MOL    N4643072   5.345   3.233   2.689 -0.5029 -0.0688  0.1498
  214MOL    H4743073   5.590   3.327   2.684 -0.8231 -0.6202  0.9203
  214MOL    H4843074   5.521   3.403   2.824 -1.3686 -1.0356 -0.2964
  214MOL    H4943075   5.319   3.455   2.694 -0.9862  0.4598  0.2891
  214MOL    H5043076   5.377   3.378   2.546  0.7967 -1.3338 -0.1948
  214MOL    H5143077   5.402   3.158   2.654  2.5291  1.6003  1.3117
  214MOL    C5243078   5.231   3.202   2.750  0.3424 -0.0570 -0.3227
  214MOL    O5343079   5.151   3.289   2.791  0.4012 -0.6564  0.3454
  214MOL    C5443080   5.195   3.052   2.763  0.1008 -0.4115  0.3639
  214MOL    C5543081   5.051   3.027   2.810  0.4053  0.0380  0.3009
  214MOL    N5643082   5.037   3.041   2.957 -0.0121 -0.5642 -0.4317
  214MOL    H5743083   5.218   3.008   2.666 -0.5444  1.6055 -0.7423
  214MOL    H5843084   5.258   3.002   2.836 -2.0465 -1.7487  1.3432
  214MOL    H5943085   5.041   2.922   2.782 -1.6960  0.9690 -2.7355
  214MOL    H6043086   4.977   3.094   2.767  0.6718  0.9464  1.2450
  214MOL    H6143087   5.063   3.126   3.006 -0.4218  0.1433 -1.4255
  214MOL    C6243088   4.980   2.945   3.034  0.7664 -0.4964 -0.1213
  214MOL    O6343089   4.948   2.834   2.989 -0.3622 -0.2322  0.6356
  214MOL    C6443090   4.968   2.981   3.188 -0.0003 -0.0154 -0.0558
  214MOL    C6543091   4.821   2.985   3.239  0.0239 -0.2335 -0.1837
  214MOL    N6643092   4.772   2.846   3.258  0.0150  0.0544 -0.5183
  214MOL    H6743093   5.037   2.921   3.248  1.0603  1.6632  0.4229
  214MOL    H6843094   4.998   3.083   3.213  1.9688 -0.7465  0.6718
  214MOL    H6943095   4.823   3.037   3.334  2.1148  0.2075 -0.4579
  214MOL    H7043096   4.759   3.041   3.168 -0.3236  0.7450  0.8850
  214MOL    H7143097   4.823   2.780   3.314 -1.1121 -0.8656 -0.5753
  214MOL    C7243098   4.659   2.805   3.201  0.2788 -0.0424  0.0326
  214MOL    O7343099   4.580   2.886   3.154 -0.1467 -0.0540 -0.0247
  214MOL    C7443100   4.625   2.660   3.206  0.7540 -0.4769  0.2139
  214MOL    C7543101   4.587   2.611   3.070 -0.8054  0.1269 -0.0985
  214MOL    N7643102   4.706   2.611   2.975  0.2223 -0.7355  0.0215
  214MOL    H7743103   4.699   2.588   3.243  0.7243  0.3783  2.0075
  214MOL    H7843104   4.544   2.645   3.278  0.0796  2.3041  0.0779
  214MOL    H7943105   4.557   2.506   3.074 -3.0405  0.7462  0.0367
  214MOL    H8043106   4.498   2.659   3.029 -1.1161 -1.4623 -1.3136
  214MOL    H8143107   4.780   2.679   2.984  0.6140 -1.1528 -0.0491
  214MOL    C8243108   4.707   2.536   2.865 -0.2919  0.1915 -0.2830
  214MOL    O8343109   4.624   2.451   2.830 -0.0886 -0.5181 -0.0463
  214MOL    C8443110   4.827   2.568   2.773  0.4864  0.4148  0.8086
  214MOL    C8543111   4.918   2.444   2.744  0.1604  0.4467 -0.3779
  214MOL    N8643112   5.045   2.468   2.679 -0.0969  0.2475 -0.3463
  214MOL    H8743113   4.796   2.601   2.674  0.9388  1.2071  0.9236
  214MOL    H8843114   4.885   2.651   2.813  1.4416 -0.3876  1.0894
  214MOL    H8943115   4.932   2.391   2.839  2.0347 -0.4692 -1.1376
  214MOL    H9043116   4.864   2.366   2.691 -2.8424  1.5273  0.9541
  214MOL    H9143117   5.055   2.446   2.581 -2.6823 -0.7567 -0.4302
  214MOL    C9243118   5.148   2.536   2.728 -0.4425  0.1493 -0.0160
  214MOL    O9343119   5.151   2.565   2.848  0.0572 -0.2093 -0.1388
  214MOL    C9443120   5.270   2.568   2.636  0.8129 -0.1145  1.0315
  214MOL    C9543121   5.301   2.719   2.638 -0.1252 -0.0293  0.8356
  214MOL    N9643122   5.443   2.748   2.621  0.1509 -0.4272 -0.2971
  214MOL    H9743123   5.347   2.497   2.668  1.7415 -0.5010 -1.8904
  214MOL    H9843124   5.236   2.523   2.542 -0.1335  1.1070  0.7702
  214MOL    H9943125   5.236   2.773   2.570  0.1013 -1.0268 -0.1852
  214MOL   H10043126   5.272   2.761   2.734 -4.9009  0.0417 -0.5294
  214MOL   H10143127   5.488   2.782   2.705 -0.7011 -0.3487  0.1338
  214MOL   C10243128   5.521   2.710   2.522  0.5642 -0.4530  0.7615
  214MOL   O10343129   5.471   2.678   2.416 -0.3950  0.0209  0.2122
  214MOL   C10443130   5.663   2.732   2.549 -0.0829 -0.1892 -0.2592
  214MOL   C10543131   5.740   2.620   2.615  0.0198 -0.6147 -0.1793
  214MOL   N10643132   5.657   2.531   2.696  0.1021 -0.0684 -0.5437
  214MOL   H10743133   5.676   2.825   2.605 -0.9193  0.6387 -1.3905
  214MOL   H10843134   5.709   2.740   2.450 -0.3058  4.0123 -0.1154
  214MOL   H10943135   5.794   2.556   2.545  0.2634 -1.9739  1.2283
  214MOL   H11043136   5.814   2.665   2.681 -3.0627  1.2138  2.1371
  214MOL   H11143137   5.637   2.447   2.643  0.9455  0.5281 -1.8322
  214MOL   C11243138   5.618   2.556   2.823  0.1665  0.5841 -0.2237
  214MOL   O11343139   5.652   2.651   2.894 -0.1811  0.2314  0.3819
  214MOL   C11443140   5.519   2.450   2.880 -0.3715  0.3227  0.3833
  214MOL   C11543141   5.575   2.375   3.003 -0.8436  0.0953  0.0316
  214MOL   N11643142   5.620   2.237   2.978 -0.6256  0.2614 -0.1875
  214MOL   H11743143   5.506   2.385   2.793  0.2556  0.0382  0.4979
  214MOL   H11843144   5.420   2.491   2.898 -0.6012 -0.2378  0.4091
  214MOL   H11943145   5.655   2.429   3.052 -1.3711 -0.9522  2.0921
  214MOL   H12043146   5.493   2.359   3.073 -0.9766 -1.2815 -0.4205
  214MOL   H12143147   5.561   2.162   3.008 -0.3499  0.1646  0.1069
  214MOL   C12243148   5.743   2.204   2.948  0.2838  0.0088  0.0120
  214MOL   O12343149   5.834   2.292   2.938 -1.0254  0.1128  0.0405
  214MOL   C12443150   5.770   2.055   2.950 -0.2501  0.9874 -0.1062
  214MOL   C12543151   5.918   2.016   2.945 -0.4244 -0.3131  0.2953
  214MOL   N12643152   5.932   1.872   2.939  0.1673  0.1912 -0.0464
  214MOL   H12743153   5.725   2.010   2.861  2.5645 -0.0150 -1.0899
  214MOL   H12843154   5.732   2.006   3.040 -0.0458 -0.8298 -0.9707
  214MOL   H12943155   5.979   2.051   2.862 -0.0013 -0.7692  0.4136
  214MOL   H13043156   5.967   2.038   3.040 -2.3527  1.0936  1.0171
  214MOL   H13143157   5.930   1.816   3.023 -1.8252  1.2640  0.6577
  214MOL   C13243158   5.953   1.801   2.830 -0.2356  0.1304 -0.2304
  214MOL   O13343159   5.960   1.851   2.719  0.2497 -0.1493 -0.6274
  214MOL   C13443160   5.946   1.646   2.844  0.1267 -0.4406 -0.5106
  214MOL   C13543161   5.840   1.571   2.752  0.1732  0.5199  0.3323
  214MOL   N13643162   5.902   1.520   2.627  0.4296  0.1206 -0.3175
  214MOL   H13743163   5.936   1.606   2.946 -0.0460  2.0342  0.4749
  214MOL   H13843164   6.047   1.632   2.807  0.1911 -0.0004 -0.5060
  214MOL   H13943165   5.794   1.491   2.811 -0.5501 -0.9689 -2.1922
  214MOL   H14043166   5.757   1.635   2.723  0.7615  1.3496  0.4386
  214MOL   H14143167   5.874   1.569   2.543  0.9698  0.1034 -0.5059
  214MOL   C14243168   5.973   1.415   2.614 -1.1013 -0.1582  0.3142
  214MOL   O14343169   6.011   1.341   2.707 -0.3468 -0.1927 -0.0359
  214MOL   C14443170   5.996   1.378   2.467  0.4730  0.7104  0.6324
  214MOL   C14543171   5.982   1.218   2.465 -0.0337 -0.2133 -0.2959
  214MOL   N14643172   5.983   1.152   2.335 -0.3874  0.1194 -0.2189
  214MOL   H14743173   6.098   1.400   2.433  0.8092  2.5762  2.6777
  214MOL   H14843174   5.926   1.422   2.397 -0.5092 -2.5340 -0.4563
  214MOL   H14943175   6.046   1.166   2.537 -0.5085  1.7013  1.5640
  214MOL   H15043176   5.882   1.196   2.501 -0.0595  0.1876 -0.1210
  214MOL   H15143177   5.899   1.117   2.292 -1.5181  2.0721  0.3377
  214MOL   C15243178   6.096   1.115   2.280 -0.0724  0.6642  0.8310
  214MOL   O15343179   6.201   1.153   2.328 -0.4348 -0.3272  0.3272
  214MOL   C15443180   6.086   1.011   2.164 -0.2737 -1.2255 -0.4219
  214MOL   C15543181   6.129   0.873   2.214 -0.8515 -0.0129  0.3893
  214MOL   N15643182   6.103   0.775   2.107  0.3418 -0.3637  0.5828
  214MOL   H15743183   6.148   1.032   2.077 -0.4367 -1.1002 -0.5079
  214MOL   H15843184   5.982   1.007   2.131 -0.7226 -0.5323  0.8453
  214MOL   H15943185   6.234   0.873   2.243 -0.5515 -2.4733 -0.5641
  214MOL   H16043186   6.073   0.850   2.305 -1.5588  1.5258  0.3712
  214MOL   H16143187   6.009   0.737   2.112 -0.2532  0.9790 -0.2114
  214MOL   C16243188   6.161   0.771   1.986 -0.9273 -0.8094  0.0451
  214MOL   O16343189   6.252   0.846   1.956  0.5655 -0.2817 -0.2082
  214MOL   C16443190   6.112   0.661   1.892 -0.2596  0.5648  0.0654
  214MOL   C16543191   6.022   0.719   1.777 -0.1041 -0.5468 -0.5788
  214MOL   N16643192   5.913   0.805   1.831  1.4202  0.3421 -0.0996
  214MOL   H16743193   6.053   0.594   1.954  1.5473  0.0525  1.2885
  214MOL   H16843194   6.191   0.605   1.843  1.5860  3.7798 -0.7802
  214MOL   H16943195   6.080   0.772   1.701 -1.7539  0.8020 -0.9148
  214MOL   H17043196   5.967   0.638   1.730 -1.5125  0.2139 -0.2839
  214MOL   H17143197   5.880   0.787   1.925 -0.3556  2.2257 -0.3150
  214MOL   C17243198   5.856   0.910   1.767 -0.0981 -1.1564  0.5994
  214MOL   O17343199   5.881   0.936   1.648  0.2511 -0.2623  0.8818
  214MOL   C17443200   5.754   0.987   1.844 -0.0605  0.1976  0.1074
  214MOL   C17543201   5.797   1.126   1.895  0.2044  0.2548 -0.0126
  214MOL   N17643202   5.696   1.187   1.979 -0.2611 -0.2960 -0.2469
  214MOL   H17743203   5.751   0.937   1.941  1.2355  2.0187  1.1241
  214MOL   H17843204   5.660   0.980   1.790  0.8319  1.2180 -1.6031
  214MOL   H17943205   5.893   1.101   1.941  1.1081 -0.4077 -2.2086
  214MOL   H18043206   5.823   1.195   1.815  2.5745  0.1044  0.5815
  214MOL   H18143207   5.611   1.220   1.934 -0.1527 -1.7466 -1.5743
  214MOL   C18243208   5.675   1.170   2.109  0.0551  0.0734 -0.8111
  214MOL   O18343209   5.756   1.117   2.183 -0.0204  0.3739  0.3863
  214MOL   C18443210   5.549   1.222   2.170  0.3912  0.1358  0.8840
  214MOL   C18543211   5.572   1.281   2.304  0.6769  0.0984  0.3017
  214MOL   N18643212   5.570   1.184   2.417  0.9844  0.2751  0.9057
  214MOL   H18743213   5.473   1.144   2.173  0.4163  0.1352  1.5325
  214MOL   H18843214   5.524   1.312   2.114  1.4464  1.2013  2.0813
  214MOL   H18943215   5.669   1.331   2.315 -0.4359  1.6981  3.4620
  214MOL   H19043216   5.496   1.356   2.323 -0.4494 -1.2274  1.0768
  214MOL   H19143217   5.593   1.092   2.383 -1.8441 -0.1725  0.0458
  214MOL   C19243218   5.556   1.214   2.547 -0.1878 -0.5930  0.2889
  214MOL   O19343219   5.542   1.329   2.591  0.3226  0.9240  0.1198
  214MOL   C19443220   5.561   1.096   2.636  0.0399  0.3563 -0.4676
  214MOL   C19543221   5.599   1.125   2.782 -0.0853 -0.0570  0.3259
  214MOL   N19643222   5.743   1.159   2.791 -0.1410 -0.0054 -0.6717
  214MOL   H19743223   5.457   1.064   2.645 -0.4110  2.1590  1.2229
  214MOL   H19843224   5.618   1.021   2.583 -0.3977 -0.0662 -0.3451
  214MOL   H19943225   5.541   1.208   2.821  1.3775  0.6291  1.1018
  214MOL   H20043226   5.567   1.037   2.838 -0.7798 -2.1616 -3.2268
  214MOL   H20143227   5.791   1.075   2.762  0.0556 -0.2106  0.2054
  214MOL   H20243228   5.768   1.239   2.735 -1.7436  1.5112  0.7103
  215MOL     C143229   0.306   4.274   7.425 -0.1036 -0.3514  0.6928
  215MOL     O243230   0.425   4.303   7.410 -0.2748 -0.0570 -0.5301
  215MOL     C343231   0.206   4.386   7.454 -0.1346 -0.1104  0.4705
  215MOL     C443232   0.192   4.494   7.346 -0.3548  0.2373 -0.6201
  215MOL     N543233   0.143   4.431   7.220 -0.1378  1.0648 -0.0148
  215MOL     H643234   0.222   4.437   7.549  1.1167 -0.3096  0.3798
  215MOL     H743235   0.118   4.324   7.468 -1.0800  1.2235  0.4817
  215MOL     H843236   0.294   4.524   7.320 -0.0053 -0.0682  0.3699
  215MOL     H943237   0.126   4.575   7.378 -0.2372 -0.1546  0.6177
  215MOL    H1043238   0.087   4.348   7.231 -0.3753  1.1531 -0.5378
  215MOL    H1143239   0.270   4.176   7.393 -1.2250  0.7819 -1.6558
  215MOL    C1243240   0.139   4.493   7.106 -0.0552 -0.1332  0.3434
  215MOL    O1343241   0.184   4.608   7.082  0.1564 -0.0024  0.5387
  215MOL    C1443242   0.071   4.415   6.997 -0.7636 -0.3776  0.4659
  215MOL    C1543243   7.727   4.490   6.945  0.0038 -0.0586  0.0428
  215MOL    N1643244   7.671   4.417   6.836 -0.1465 -0.5169 -0.3560
  215MOL    H1743245   0.064   4.312   7.032  1.7803 -1.1632 -1.1782
  215MOL    H1843246   0.131   4.402   6.906 -0.7315 -0.1700  0.4567
  215MOL    H1943247   7.654   4.517   7.022  0.5838 -0.3907  0.7234
  215MOL    H2043248   7.758   4.584   6.901 -0.2227  0.0586  0.1326
  215MOL    H2143249   7.721   4.352   6.776 -2.2599 -1.3879 -1.2019
  215MOL    C2243250   7.547   4.432   6.795  0.0867  0.0807 -0.1613
  215MOL    O2343251   7.453   4.498   6.837  0.2913 -0.2999 -0.1480
  215MOL    C2443252   7.514   4.337   6.676  0.8656 -0.2318  0.1231
  215MOL    C2543253   7.492   4.202   6.719  0.1818  0.1771  0.0226
  215MOL    N2643254   7.621   4.128   6.731 -0.1781 -0.0668  0.1831
  215MOL    H2743255   7.589   4.353   6.598  2.4918  0.0696  1.7192
  215MOL    H2843256   7.423   4.373   6.629 -0.8666 -2.0651  1.9972
  215MOL    H2943257   7.425   4.208   6.805 -1.7880 -0.4181 -1.4154
  215MOL    H3043258   7.430   4.147   6.647  1.0730  0.4689 -0.9877
  215MOL    H3143259   7.695   4.135   6.663 -0.4621 -0.3327 -0.1611
  215MOL    C3243260   7.637   4.028   6.819  0.2875  0.0248  0.9666
  215MOL    O3343261   7.552   3.990   6.893 -0.3123  0.3291 -0.6392
  215MOL    C3443262   7.776   3.967   6.824  0.3655 -0.4468  0.2119
  215MOL    C3543263   0.035   3.922   6.971 -0.2449  0.0040 -0.8351
  215MOL    N3643264   0.058   4.033   7.069  0.4383 -0.0317 -0.0672
  215MOL    H3743265   0.061   4.052   6.804 -0.3510 -0.1328 -0.8193
  215MOL    H3843266   7.775   3.884   6.753 -3.0032  0.3650 -0.7595
  215MOL    H3943267   7.745   3.850   7.013 -1.4367  1.1307 -0.8902
  215MOL    H4043268   0.122   3.859   6.953  1.5443  2.0495  0.4759
  215MOL    H4143269   0.146   4.082   7.060 -0.1910  1.0344 -0.5219
  215MOL    C4243270   7.761   4.079   7.169  0.2288 -0.0916  0.0982
  215MOL    O4343271   0.024   4.168   7.243 -0.1989 -0.0198 -0.3264
  215MOL    C4443272   7.622   4.025   7.193 -0.3217  0.6515  0.3770
  215MOL    C4543273   7.517   4.144   7.181  0.5248  0.0783 -0.4538
  215MOL    N4643274   7.477   4.208   7.305 -0.3536  0.2880  0.1244
  215MOL    H4743275   7.591   3.940   7.132  0.7644  1.4297 -1.3244
  215MOL    H4843276   7.629   3.989   7.295 -0.2828 -2.0035 -0.5301
  215MOL    H4943277   7.551   4.224   7.115 -0.1506 -0.8847 -2.0162
  215MOL    H5043278   7.422   4.106   7.141  1.8016 -1.2533 -2.2917
  215MOL    H5143279   7.433   4.143   7.369  0.9740 -1.1691 -0.3967
  215MOL    C5243280   7.517   4.329   7.341 -0.5401  0.2175  1.1538
  215MOL    O5343281   7.568   4.409   7.260 -0.2041 -0.3164  0.1238
  215MOL    C5443282   7.507   4.367   7.490  0.3739 -0.2952 -0.8581
  215MOL    C5543283   7.622   4.463   7.534  0.7158  0.2589  0.2538
  215MOL    N5643284   7.602   4.520   7.667  0.5711  0.1534 -0.1558
  215MOL    H5743285   7.413   4.418   7.510  1.4243  0.4335  2.5214
  215MOL    H5843286   7.517   4.283   7.559 -1.3526 -0.3681 -0.6661
  215MOL    H5943287   7.657   4.544   7.471  1.6336 -1.3419 -1.3445
  215MOL    H6043288   7.711   4.401   7.541  2.0994  1.8778 -2.5011
  215MOL    H6143289   7.512   4.521   7.714  1.0012 -1.2759  0.7316
  215MOL    C6243290   7.697   4.573   7.743 -0.3563  0.6019 -0.5393
  215MOL    O6343291   0.036   4.576   7.712  0.1219  0.2085  0.0643
  215MOL    C6443292   7.652   4.612   0.108 -0.2580  0.9313  0.6972
  215MOL    C6543293   7.730   4.729   0.167  0.0947 -0.0724 -0.2736
  215MOL    N6643294   7.766   4.844   0.077 -0.9202  0.4545  0.5280
  215MOL    H6743295   7.546   4.637   0.104 -0.5690 -0.4888 -0.5587
  215MOL    H6843296   7.656   4.526   0.175 -0.2735  0.6692  0.3660
  215MOL    H6943297   7.681   4.770   0.256 -0.5785 -1.4994  0.0217
  215MOL    H7043298   0.046   4.686   0.197  0.4208  1.2180  0.6117
  215MOL    H7143299   0.080   4.851   0.042 -1.2528  0.5496 -0.3668
  215MOL    C7243300   7.671   4.932   0.032 -0.6737  0.2616 -0.7016
  215MOL    O7343301   7.558   4.936   0.083  0.6562 -0.5313  1.0623
  215MOL    C7443302   7.699   5.009   7.681  0.6537  0.0527 -0.6548
  215MOL    C7543303   7.607   5.130   7.659  0.0481 -0.8122  0.5542
  215MOL    N7643304   7.654   5.248   7.735 -0.5339 -0.0320  0.3005
  215MOL    H7743305   0.019   5.051   7.684  0.5411  0.2169  1.9631
  215MOL    H7843306   7.699   4.934   7.602 -1.7486 -1.2255  0.4756
  215MOL    H7943307   7.623   5.147   7.553  1.2442 -0.1647  0.8234
  215MOL    H8043308   7.504   5.115   7.692  0.8936  0.0531  3.8285
  215MOL    H8143309   7.715   5.229   0.033  0.9572  3.2325 -0.0155
  215MOL    C8243310   7.620   5.373   7.709  0.0274  0.2204 -0.3049
  215MOL    O8343311   7.542   5.398   7.618 -0.2121 -0.0644  0.1897
  215MOL    C8443312   7.701   5.486   0.000  0.6314  0.5221 -1.1527
  215MOL    C8543313   7.775   5.441   0.128 -0.3142 -0.1846  0.1414
  215MOL    N8643314   0.121   5.396   0.091 -0.9553  0.1071 -0.4567
  215MOL    H8743315   7.773   5.545   7.723  1.9550  0.0734  0.0113
  215MOL    H8843316   7.619   5.551   0.032  0.1462  0.0657 -1.4645
  215MOL    H8943317   0.028   5.534   0.174 -1.2213 -1.8839  4.4699
  215MOL    H9043318   7.713   5.376   0.190  0.7281  1.0904  2.5625
  215MOL    H9143319   0.192   5.464   0.067 -1.2818  0.7389  0.3576
  215MOL    C9243320   0.166   5.274   0.096  1.0419  0.0445  0.3883
  215MOL    O9343321   0.097   5.178   0.137  0.0336 -0.0296  0.5687
  215MOL    C9443322   0.313   5.250   0.063  0.0047 -0.5915  0.0277
  215MOL    C9543323   0.338   5.112   0.003  0.2223 -0.3240 -0.1371
  215MOL    N9643324   0.307   5.094   7.639  0.3559  0.3733  0.9166
  215MOL    H9743325   0.352   5.327   7.777  1.3009 -0.9032  0.4217
  215MOL    H9843326   0.373   5.255   0.154  0.1642  1.7750 -0.1800
  215MOL    H9943327   0.443   5.087   0.015 -0.1877 -2.1029 -0.2270
  215MOL   H10043328   0.279   5.045   0.065  0.2671  0.2286  0.5079
  215MOL   H10143329   0.295   5.182   7.592  2.3248  0.1621 -0.0510
  215MOL   C10243330   0.307   4.979   7.572  0.3079 -0.0491  0.9692
  215MOL   O10343331   0.312   4.871   7.629  0.3846 -0.0371  0.7536
  215MOL   C10443332   0.301   4.981   7.419  0.2207 -0.0424 -0.1319
  215MOL   C10543333   0.398   4.881   7.351  0.3759  0.1553 -0.0020
  215MOL   N10643334   0.534   4.924   7.329  0.1644  0.3561 -0.2417
  215MOL   H10743335   0.291   5.077   7.368 -1.7798  0.0225  0.3154
  215MOL   H10843336   0.208   4.930   7.393 -0.8127  1.6239  0.1398
  215MOL   H10943337   0.407   4.791   7.411 -0.3498  0.3759  0.4363
  215MOL   H11043338   0.365   4.838   7.256 -0.9345  1.2907 -0.0698
  215MOL   H11143339   0.610   4.878   7.378 -0.5609  2.0251  2.5529
  215MOL   C11243340   0.564   5.033   7.261 -0.4169 -0.5947 -0.1306
  215MOL   O11343341   0.486   5.091   7.186  0.4687 -0.1248  0.6781
  215MOL   C11443342   0.714   5.079   7.269  0.2260 -0.5002  0.5379
  215MOL   C11543343   0.811   5.014   7.171  0.3625  0.3692  0.0281
  215MOL   N11643344   0.844   4.875   7.214  0.5879  0.2627 -0.3654
  215MOL   H11743345   0.755   5.061   7.368  0.7689  1.4266  0.6984
  215MOL   H11843346   0.714   5.185   7.243  2.6762 -0.8478 -1.0293
  215MOL   H11943347   0.762   5.012   7.074 -2.4648  1.4654  1.4001
  215MOL   H12043348   0.890   5.084   7.144 -0.7559  0.3270 -3.6863
  215MOL   H12143349   0.815   4.845   7.306 -3.0461 -0.3405 -1.6279
  215MOL   C12243350   0.933   4.807   7.148  0.1260 -0.0873  0.8194
  215MOL   O12343351   0.986   4.854   7.041  0.5362 -0.5072  0.5714
  215MOL   C12443352   0.949   4.657   7.180 -0.3802 -0.0427  0.1838
  215MOL   C12543353   1.094   4.600   7.160  1.1261  0.3337  0.2358
  215MOL   N12643354   1.189   4.620   7.271 -0.0777 -0.2542 -0.0291
  215MOL   H12743355   0.888   4.595   7.115 -2.4540  0.6971  1.3723
  215MOL   H12843356   0.908   4.642   7.280 -2.0793  1.4482 -0.2703
  215MOL   H12943357   1.079   4.492   7.152 -1.2222  0.4462  2.4411
  215MOL   H13043358   1.137   4.624   7.062  0.0858 -1.9389 -0.8126
  215MOL   H13143359   1.280   4.656   7.247 -0.5081  0.2469 -0.9005
  215MOL   C13243360   1.175   4.575   7.397  0.3606 -0.2404  0.3622
  215MOL   O13343361   1.074   4.515   7.433  0.1177 -0.5797 -0.2227
  215MOL   C13443362   1.299   4.608   7.480  0.4235 -0.1276 -0.2767
  215MOL   C13543363   1.279   4.692   7.614 -0.1344 -0.2785 -0.4511
  215MOL   N13643364   1.200   4.815   7.601 -0.0905  0.1203  0.1541
  215MOL   H13743365   1.373   4.648   7.411 -1.4611  1.6254 -1.3084
  215MOL   H13843366   1.347   4.515   7.512 -0.5600 -0.5009  0.1293
  215MOL   H13943367   1.233   4.633   7.693  0.6462 -0.5451 -0.1915
  215MOL   H14043368   1.378   4.721   7.650  0.1169 -2.8996  1.1424
  215MOL   H14143369   1.235   4.887   7.540  2.4620 -0.8983  0.3305
  215MOL   C14243370   1.080   4.834   7.660 -0.4722 -0.6565  0.5233
  215MOL   O14343371   1.055   4.777   7.765  0.1841 -0.1520  0.1675
  215MOL   C14443372   0.986   4.938   7.608  0.3278 -0.8326 -0.1180
  215MOL   C14543373   0.846   4.945   7.683  1.1035  0.3805  0.4602
  215MOL   N14643374   0.769   4.822   7.682  0.2294 -0.6201  0.5568
  215MOL   H14743375   0.985   4.921   7.500 -1.0904 -0.0235 -0.2461
  215MOL   H14843376   1.029   5.038   7.617 -0.3710 -0.4755 -0.7449
  215MOL   H14943377   0.861   4.950   0.011 -2.2895  0.0926  0.9850
  215MOL   H15043378   0.788   5.034   7.657  0.8498  0.1202  0.1302
  215MOL   H15143379   0.764   4.778   7.773  1.4665  0.4942  1.1958
  215MOL   C15243380   0.746   4.750   7.574  0.6646 -0.5358  1.0115
  215MOL   O15343381   0.762   4.797   7.464 -0.0656 -0.4048 -0.4685
  215MOL   C15443382   0.711   4.605   7.598 -0.5618  0.5974 -0.0929
  215MOL   C15543383   0.554   4.576   7.597 -0.3839  0.0429  0.0276
  215MOL   N15643384   0.484   4.650   7.702 -0.5564 -0.3851  0.3522
  215MOL   H15743385   0.739   4.583   7.701 -1.7453 -1.3298 -0.1510
  215MOL   H15843386   0.770   4.536   7.538  1.6151  1.2581  1.2195
  215MOL   H15943387   0.496   4.618   7.515 -2.3964 -0.7095  1.0271
  215MOL   H16043388   0.532   4.469   7.600 -1.6488  0.3347  1.9816
  215MOL   H16143389   0.475   4.750   7.690 -1.2458 -0.4656  0.1307
  215MOL   C16243390   0.437   4.598   0.034  0.3696 -0.1223  0.3283
  215MOL   O16343391   0.449   4.476   0.051  0.2268  0.0206 -0.0940
  215MOL   C16443392   0.371   4.699   0.130  0.2112  0.5318 -0.0567
  215MOL   C16543393   0.463   4.815   0.177  0.6811 -0.7201 -0.6547
  215MOL   N16643394   0.556   4.779   0.286 -0.2030 -0.4557 -0.1733
  215MOL   H16743395   0.316   4.646   0.208 -1.1632  3.8351  1.3291
  215MOL   H16843396   0.288   4.746   0.078 -0.0466 -0.1196 -0.2429
  215MOL   H16943397   0.505   4.855   0.084 -1.2503 -0.3186 -1.3873
  215MOL   H17043398   0.402   4.897   0.214  0.1084 -0.9570 -1.0672
  215MOL   H17143399   0.540   4.830   0.372  1.1774 -1.1467  0.5141
  215MOL   C17243400   0.668   4.712   0.268 -0.2243 -0.2003 -0.4144
  215MOL   O17343401   0.699   4.653   0.163  0.4169 -0.0814  0.0071
  215MOL   C17443402   0.761   4.703   0.383 -0.2032  0.7518 -0.3695
  215MOL   C17543403   0.890   4.780   0.352  0.0605 -0.0100 -0.0867
  215MOL   N17643404   1.001   4.730   0.437 -0.7783  0.1646  0.6551
  215MOL   H17743405   0.771   4.598   0.407 -0.4587  1.3563  2.5335
  215MOL   H17843406   0.712   4.758   0.464  0.8600  1.0672  0.0663
  215MOL   H17943407   0.918   4.777   0.247  1.6066 -2.5197  0.3555
  215MOL   H18043408   0.876   4.886   0.372 -2.2920 -0.5977  1.6696
  215MOL   H18143409   1.028   4.633   0.426 -2.1187 -0.1781  0.3702
  215MOL   C18243410   1.023   4.772   0.558  0.3681 -0.2069 -0.0457
  215MOL   O18343411   1.000   4.887   0.592  0.3469 -0.1540 -0.3645
  215MOL   C18443412   1.087   4.662   0.642 -0.4297  0.0963 -0.4786
  215MOL   C18543413   1.064   4.683   0.790 -0.3097 -0.2138  0.6712
  215MOL   N18643414   1.128   4.574   0.864  0.4066  0.2258  0.1334
  215MOL   H18743415   1.196   4.662   0.632 -0.4136 -3.2447 -0.8499
  215MOL   H18843416   1.056   4.562   0.614  0.1002  0.0755 -0.9976
  215MOL   H18943417   1.103   4.780   0.820 -1.1590  0.3396  0.0006
  215MOL   H19043418   0.960   4.678   0.822 -0.7989 -0.9839 -1.0086
  215MOL   H19143419   1.109   4.483   0.826  0.3811  0.5152 -0.5533
  215MOL   C19243420   1.208   4.586   0.970 -0.0517  0.0642  0.0631
  215MOL   O19343421   1.245   4.691   1.019  0.2166 -0.1899 -0.4180
  215MOL   C19443422   1.256   4.459   1.037  0.1554  0.6280  0.6100
  215MOL   C19543423   1.306   4.475   1.187  0.0972  0.2104 -0.2981
  215MOL   N19643424   1.432   4.546   1.190 -0.2305 -0.4604  0.5394
  215MOL   H19743425   1.178   4.386   1.016  0.0078  0.9337  0.0789
  215MOL   H19843426   1.341   4.423   0.979 -0.2789 -1.1589  1.0445
  215MOL   H19943427   1.231   4.534   1.241  1.3827 -0.9884  2.9369
  215MOL   H20043428   1.306   4.380   1.241 -1.9417  0.5360  0.3109
  215MOL   H20143429   1.400   4.639   1.168  1.3875  0.3164  1.3597
  215MOL   H20243430   1.463   4.566   1.284  1.3753 -0.6979  0.0736
  216MOL     C143431   0.808   2.178   5.279  0.5094  0.0468 -0.5928
  216MOL     O243432   0.690   2.161   5.254 -0.3105  0.2769 -0.0619
  216MOL     C343433   0.868   2.141   5.419  0.7102 -0.0819 -0.2069
  216MOL     C443434   1.003   2.212   5.456  0.5190  0.1582 -0.5634
  216MOL     N543435   1.115   2.166   5.374  0.0009 -0.1627  0.1104
  216MOL     H643436   0.872   2.033   5.431 -2.4878  0.0475  3.1587
  216MOL     H743437   0.793   2.167   5.494  1.3278  3.5561 -0.7684
  216MOL     H843438   1.016   2.191   5.562 -0.8216 -3.8467 -1.1185
  216MOL     H943439   1.003   2.321   5.446  0.3302  0.4257  1.9144
  216MOL    H1043440   1.141   2.230   5.300 -2.2818 -0.3105 -0.8500
  216MOL    H1143441   0.872   2.225   5.204 -0.1734 -0.4851 -1.5096
  216MOL    C1243442   1.189   2.054   5.413 -0.6710  0.3463 -0.4881
  216MOL    O1343443   1.168   1.997   5.516  0.4173 -0.0060 -0.2396
  216MOL    C1443444   1.291   2.007   5.307  0.8488 -0.4765 -0.4240
  216MOL    C1543445   1.431   1.993   5.363 -0.5172  0.8338 -0.2681
  216MOL    N1643446   1.459   2.096   5.462  0.0411  0.2545  0.5345
  216MOL    H1743447   1.288   2.074   5.221  2.6782  0.0801 -0.0660
  216MOL    H1843448   1.259   1.917   5.256  0.1369  0.5877 -1.9011
  216MOL    H1943449   1.441   1.895   5.409  0.6486  0.4717 -1.2513
  216MOL    H2043450   1.503   1.988   5.281 -0.4379  0.2227 -0.1612
  216MOL    H2143451   1.421   2.074   5.552  0.7730  1.4914  1.1518
  216MOL    C2243452   1.561   2.183   5.456 -0.2770 -0.1395  0.3416
  216MOL    O2343453   1.640   2.176   5.365 -0.2771 -0.5488 -0.2295
  216MOL    C2443454   1.576   2.281   5.574 -0.4013  0.1861 -0.1130
  216MOL    C2543455   1.620   2.415   5.530 -0.2113  0.2677  0.5546
  216MOL    N2643456   1.515   2.485   5.443  0.6335 -0.1415 -0.3093
  216MOL    H2743457   1.639   2.239   5.652 -2.2282 -0.4729  1.0608
  216MOL    H2843458   1.484   2.296   5.632  1.4883  0.1855  2.9932
  216MOL    H2943459   1.630   2.467   5.626 -2.2766 -1.3718  1.6881
  216MOL    H3043460   1.715   2.413   5.477  0.0264 -0.5984  1.0053
  216MOL    H3143461   1.490   2.440   5.356  0.5926 -0.0394 -0.3496
  216MOL    C3243462   1.448   2.591   5.486 -0.1717  0.2158 -0.4724
  216MOL    O3343463   1.482   2.659   5.584 -0.0292  0.1621  0.2663
  216MOL    C3443464   1.330   2.652   5.407  0.7789 -0.3646 -0.0528
  216MOL    C3543465   1.201   2.643   5.481 -0.0778 -0.0557  0.1162
  216MOL    N3643466   1.185   2.749   5.576  0.3962  0.0008  0.1826
  216MOL    H3743467   1.329   2.620   5.302  1.8637 -0.4324 -0.0499
  216MOL    H3843468   1.366   2.754   5.400  0.5129 -0.3982 -2.2068
  216MOL    H3943469   1.119   2.652   5.410 -0.7618 -1.4566  0.7220
  216MOL    H4043470   1.184   2.551   5.537  1.6778  1.0961  2.6642
  216MOL    H4143471   1.244   2.831   5.575 -1.0487  1.0710  0.7399
  216MOL    C4243472   1.095   2.742   5.678  0.5974 -0.1243  0.4217
  216MOL    O4343473   1.023   2.647   5.693 -0.1935 -0.1275 -0.5461
  216MOL    C4443474   1.073   2.873   5.764 -0.1253  0.4553 -0.4797
  216MOL    C4543475   1.145   2.862   5.901  0.6887  0.2328  0.5650
  216MOL    N4643476   1.073   2.779   5.996 -0.2270  0.0689  0.0009
  216MOL    H4743477   1.101   2.962   5.707 -2.1112  1.2352 -0.2943
  216MOL    H4843478   0.967   2.893   5.779 -0.1927  0.2691 -0.6928
  216MOL    H4943479   1.243   2.817   5.887  0.7263  0.4919 -0.0353
  216MOL    H5043480   1.162   2.961   5.945  0.8219  0.1505  0.6970
  216MOL    H5143481   1.122   2.696   6.028  0.9309  0.8302  0.2358
  216MOL    C5243482   0.965   2.816   6.078 -0.4954  0.3572  0.5078
  216MOL    O5343483   0.909   2.926   6.074 -0.1733 -0.7345  0.3398
  216MOL    C5443484   0.940   2.715   6.184 -0.3961 -0.1370  0.2793
  216MOL    C5543485   0.791   2.707   6.224  0.6996  0.2181 -0.3565
  216MOL    N5643486   0.762   2.586   6.302 -0.5260 -0.0436 -0.4280
  216MOL    H5743487   0.972   2.620   6.142  0.1959  0.2618 -0.1829
  216MOL    H5843488   0.995   2.743   6.274 -0.7728 -1.1283  0.8223
  216MOL    H5943489   0.730   2.714   6.134  0.2214  0.3762 -0.0178
  216MOL    H6043490   0.763   2.797   6.277  0.2075 -1.0032  1.5241
  216MOL    H6143491   0.783   2.495   6.264  0.0787  0.4855 -1.3900
  216MOL    C6243492   0.693   2.584   6.414  0.1516  0.2586  0.3756
  216MOL    O6343493   0.643   2.680   6.477  0.1042  0.2378 -0.7323
  216MOL    C6443494   0.648   2.439   6.454 -0.4920  0.6300 -0.5644
  216MOL    C6543495   0.654   2.415   6.607  0.4063  0.0276 -0.3857
  216MOL    N6643496   0.564   2.500   6.686  0.1094 -0.3768 -0.0305
  216MOL    H6743497   0.560   2.406   6.400  0.2704 -1.1259 -0.7747
  216MOL    H6843498   0.732   2.383   6.413  0.0738  0.1869  1.1763
  216MOL    H6943499   0.644   2.309   6.629  0.7048 -0.0903 -0.8006
  216MOL    H7043500   0.759   2.434   6.629  0.1339  1.0804  0.0279
  216MOL    H7143501   0.607   2.578   6.732  0.4840  0.5174 -1.8733
  216MOL    C7243502   0.430   2.490   6.686 -0.6539 -0.1497  0.3578
  216MOL    O7343503   0.376   2.400   6.630  0.4977  0.5958 -0.5172
  216MOL    C7443504   0.357   2.574   6.789  0.7559 -0.2918  0.3485
  216MOL    C7543505   0.225   2.644   6.746 -0.2203 -0.3051  0.2544
  216MOL    N7643506   0.129   2.619   6.846  0.6461  0.5091  0.3370
  216MOL    H7743507   0.362   2.512   6.878  0.9055 -1.3351 -0.3652
  216MOL    H7843508   0.427   2.650   6.822  0.1065  1.2528 -1.7225
  216MOL    H7943509   0.239   2.751   6.730  0.5043 -0.7728 -2.5552
  216MOL    H8043510   0.194   2.597   6.652  0.0328 -0.4615  0.2467
  216MOL    H8143511   0.068   2.540   6.832  1.5491  0.2950 -2.8387
  216MOL    C8243512   0.102   2.678   6.963 -0.1466 -0.0089 -0.6125
  216MOL    O8343513   0.181   2.760   7.014  0.6143 -0.2141 -0.0250
  216MOL    C8443514   7.754   2.636   7.027  0.4725 -0.2869  0.1725
  216MOL    C8543515   7.697   2.724   7.132 -0.1276  0.3877 -0.0880
  216MOL    N8643516   7.566   2.667   7.165  0.3129  0.3516  0.3655
  216MOL    H8743517   7.679   2.618   6.950  0.0877 -0.9720  0.6952
  216MOL    H8843518   7.773   2.540   7.076 -1.7953  0.1576  2.0110
  216MOL    H8943519   7.759   2.740   7.220 -1.7234  3.2391  0.5802
  216MOL    H9043520   7.682   2.825   7.096 -1.0883  0.6458  1.0233
  216MOL    H9143521   7.525   2.599   7.103 -1.2020  1.3130  0.2902
  216MOL    C9243522   7.502   2.680   7.282  0.1649  0.5943 -0.0800
  216MOL    O9343523   7.527   2.766   7.369 -0.6931 -0.0874  0.2518
  216MOL    C9443524   7.406   2.568   7.320  0.2584 -0.6352  0.1655
  216MOL    C9543525   7.461   2.469   7.421 -0.3911 -0.3840  0.0178
  216MOL    N9643526   7.535   2.367   7.344 -0.2931  0.1497  1.1720
  216MOL    H9743527   7.323   2.607   7.378  0.7758 -0.9641  1.1291
  216MOL    H9843528   7.350   2.527   7.236 -1.6846 -1.0936  1.6787
  216MOL    H9943529   7.540   2.515   7.479 -0.6976 -0.8377  0.8029
  216MOL   H10043530   7.387   2.443   7.497 -1.2251 -0.9238 -0.9536
  216MOL   H10143531   7.636   2.364   7.342 -0.3561 -1.5757 -0.1325
  216MOL   C10243532   7.474   2.259   7.295  0.0989  0.3564 -0.3896
  216MOL   O10343533   7.349   2.246   7.293 -0.3786  0.4118  0.3251
  216MOL   C10443534   7.566   2.147   7.246 -0.4576 -0.3408  0.7904
  216MOL   C10543535   7.537   2.091   7.102  0.2296  0.3627  0.4602
  216MOL   N10643536   7.595   1.955   7.086 -0.2486 -0.4986 -0.0533
  216MOL   H10743537   7.542   2.065   7.315 -0.0875 -3.6203 -2.8015
  216MOL   H10843538   7.674   2.166   7.246 -0.6425  0.7726 -0.2454
  216MOL   H10943539   7.431   2.079   7.079  0.3921 -0.6188  0.1964
  216MOL   H11043540   7.575   2.150   7.019  2.9319 -1.5364  0.2445
  216MOL   H11143541   7.603   1.908   7.176  1.4107 -2.1968 -1.0403
  216MOL   C11243542   7.615   1.891   6.977 -0.3772 -0.3941  0.0931
  216MOL   O11343543   7.610   1.949   6.870  0.5340  0.3163  0.3543
  216MOL   C11443544   7.649   1.739   6.979  0.1829 -0.2161  0.7533
  216MOL   C11543545   7.743   1.714   6.867 -0.5156 -0.3938  0.6093
  216MOL   N11643546   7.758   1.576   6.834 -0.0104 -0.0446 -0.0277
  216MOL   H11743547   7.554   1.688   6.971  0.2194 -0.3337  1.0792
  216MOL   H11843548   7.698   1.715   7.073 -0.1713  0.6583  1.1665
  216MOL   H11943549   7.706   1.766   6.779  0.4752  0.4273  0.6674
  216MOL   H12043550   0.060   1.756   6.893  0.7696 -0.6050 -3.6138
  216MOL   H12143551   7.691   1.508   6.867 -0.6765  2.1410  3.3452
  216MOL   C12243552   0.072   1.531   6.747  0.0463  0.8333 -0.7423
  216MOL   O12343553   0.145   1.606   6.688  0.2307 -0.4618  0.2275
  216MOL   C12443554   0.088   1.381   6.720  0.2300  0.1722  0.5788
  216MOL   C12543555   0.053   1.338   6.577  0.1715  0.8860  0.0807
  216MOL   N12643556   0.082   1.198   6.557 -0.4791  0.4528  0.5446
  216MOL   H12743557   0.022   1.330   6.790  0.6620  0.7969  1.4523
  216MOL   H12843558   0.191   1.348   6.730  0.0192 -1.2598 -1.8003
  216MOL   H12943559   7.726   1.353   6.566  0.0645  1.1860  1.4350
  216MOL   H13043560   0.096   1.406   6.503  4.0944 -0.0236  1.3998
  216MOL   H13143561   0.121   1.155   6.640 -0.0267  0.3401  0.2771
  216MOL   C13243562   0.060   1.130   6.442 -0.7361  0.1102 -0.3436
  216MOL   O13343563   0.005   1.177   6.346 -0.1960 -0.2242  0.1875
  216MOL   C13443564   0.098   0.986   6.432 -0.5776  0.0593 -0.0240
  216MOL   C13543565   0.226   0.981   6.340 -0.6140 -0.8781 -0.0557
  216MOL   N13643566   0.326   1.078   6.382  0.0988 -0.4532  0.0969
  216MOL   H13743567   0.014   0.937   6.383 -1.6812  0.0452  1.8120
  216MOL   H13843568   0.122   0.929   6.522  0.5882 -0.2225 -0.5105
  216MOL   H13943569   0.275   0.888   6.315  0.4145 -0.2750 -0.3127
  216MOL   H14043570   0.190   1.011   6.241  0.9836  0.5927 -0.2152
  216MOL   H14143571   0.310   1.178   6.384 -2.1487 -0.7967  1.7697
  216MOL   C14243572   0.433   1.053   6.458  0.0336 -0.4742  0.5162
  216MOL   O14343573   0.481   0.942   6.464  0.2203  0.2728 -0.1304
  216MOL   C14443574   0.506   1.170   6.524  0.0421  0.0091  0.6051
  216MOL   C14543575   0.430   1.217   6.649  0.2207 -0.1387 -0.0767
  216MOL   N14643576   0.377   1.115   6.738  0.1643  0.1990 -0.6416
  216MOL   H14743577   0.522   1.254   6.456 -0.0500 -0.8469 -0.4945
  216MOL   H14843578   0.602   1.128   6.554  1.2232 -0.1055 -3.0301
  216MOL   H14943579   0.495   1.287   6.700  0.7334  0.0493 -0.9681
  216MOL   H15043580   0.344   1.277   6.620 -1.2509 -1.5952  1.1745
  216MOL   H15143581   0.378   1.019   6.707  1.3942  0.8985 -2.8659
  216MOL   C15243582   0.356   1.133   6.868  0.0633 -0.1806 -0.2488
  216MOL   O15343583   0.359   1.243   6.924 -0.4136  0.7796  0.1440
  216MOL   C15443584   0.333   1.011   6.954  0.2469  0.3164  0.8890
  216MOL   C15543585   0.322   1.042   7.100  0.4727  0.3420  0.4467
  216MOL   N15643586   0.297   0.923   7.180 -0.0391  0.7378  0.3503
  216MOL   H15743587   0.417   0.943   6.943 -0.0773  0.0511  0.0324
  216MOL   H15843588   0.242   0.961   6.921  0.4066 -0.6151  1.8325
  216MOL   H15943589   0.418   1.078   7.138  1.1116 -0.6619 -0.1956
  216MOL   H16043590   0.241   1.107   7.131 -1.7773 -0.8989 -2.5956
  216MOL   H16143591   0.377   0.889   7.230  1.5207  1.2690 -1.7282
  216MOL   C16243592   0.191   0.845   7.181  0.3866  0.2562 -0.8636
  216MOL   O16343593   0.092   0.866   7.118 -0.3545  0.9898 -0.2888
  216MOL   C16443594   0.210   0.719   7.272 -0.6288 -0.2013  0.1216
  216MOL   C16543595   0.089   0.615   7.274  0.4408 -0.3775  0.6470
  216MOL   N16643596   0.140   0.478   7.294  0.1338 -0.1536  0.1316
  216MOL   H16743597   0.234   0.748   7.374 -1.8594 -0.3202  0.4419
  216MOL   H16843598   0.301   0.667   7.238  0.5374  0.7418  1.7524
  216MOL   H16943599   0.015   0.645   7.348  0.4144  1.6181 -0.1452
  216MOL   H17043600   0.037   0.627   7.180 -1.7609  0.4240  1.9328
  216MOL   H17143601   0.162   0.420   7.214 -0.8836 -2.1218  1.2475
  216MOL   C17243602   0.171   0.427   7.411  0.2287 -0.5799 -0.4191
  216MOL   O17343603   0.147   0.493   7.509  0.3264 -0.1736  0.0118
  216MOL   C17443604   0.227   0.286   7.431 -0.0767 -0.3776 -0.3999
  216MOL   C17543605   0.378   0.293   7.474  0.4353 -0.8010 -0.5136
  216MOL   N17643606   0.438   0.167   7.487 -0.2129  0.2765 -0.6662
  216MOL   H17743607   0.218   0.217   7.347 -1.2413 -1.5986  0.6926
  216MOL   H17843608   0.169   0.241   7.511  1.3817 -1.6961 -0.0444
  216MOL   H17943609   0.433   0.367   7.416  0.8206 -1.1726 -0.6197
  216MOL   H18043610   0.378   0.344   7.571 -1.6698  2.1877 -1.9999
  216MOL   H18143611   0.517   0.133   7.432 -0.2964  0.0702 -0.6606
  216MOL   C18243612   0.410   0.077   7.583  0.0862  0.6826 -0.3576
  216MOL   O18343613   0.326   0.098   7.671 -0.3342 -0.4783 -0.1507
  216MOL   C18443614   0.467   7.705   7.577 -0.3319  0.3070 -0.1753
  216MOL   C18543615   0.468   7.628   7.705 -0.7578  0.5952 -0.0195
  216MOL   N18643616   0.564   7.693   0.022  0.2706  0.6649 -0.2453
  216MOL   H18743617   0.570   7.714   7.543 -0.2213 -1.0204 -0.2271
  216MOL   H18843618   0.404   7.640   7.515  0.2678  0.7192 -1.2300
  216MOL   H18943619   0.370   7.626   7.753 -1.1717 -1.3208 -0.8836
  216MOL   H19043620   0.498   7.526   7.682  1.2512  1.3067 -0.6208
  216MOL   H19143621   0.527   0.001   0.053  2.7257  1.1139  1.6072
  216MOL   C19243622   0.693   7.672   0.035 -0.0436 -0.2744 -0.0769
  216MOL   O19343623   0.737   7.571   7.761 -0.3982 -0.3680 -0.6859
  216MOL   C19443624   0.788   7.773   0.106 -0.1499  0.3257 -0.2965
  216MOL   C19543625   0.928   0.027   0.042  0.8561  0.1222 -1.1571
  216MOL   N19643626   0.997   0.123   0.128  0.1908  0.3475  0.0059
  216MOL   H19743627   0.726   0.082   0.117  0.1509  0.6496 -1.1792
  216MOL   H19843628   0.789   7.741   0.210  2.2844  2.0712  0.2687
  216MOL   H19943629   0.983   7.715   0.023 -2.3159 -2.1186 -0.0467
  216MOL   H20043630   0.919   0.092   7.735 -1.3715  2.2793  0.6180
  216MOL   H20143631   1.093   0.132   0.099  0.8495 -0.7236  1.7625
  216MOL   H20243632   0.951   0.211   0.109 -1.3020 -0.3783  0.1242
  217MOL     C143633   5.308   4.951   6.583 -0.3166  0.2867 -0.3190
  217MOL     O243634   5.264   4.861   6.656  0.3585  0.0371  0.0250
  217MOL     C343635   5.231   5.005   6.463 -0.8150  0.7085 -0.0958
  217MOL     C443636   5.089   4.955   6.441  0.6930 -0.0302 -0.1505
  217MOL     N543637   4.999   5.011   6.548  0.7855 -0.4179  0.6308
  217MOL     H643638   5.299   4.993   6.378 -0.9554 -0.1063 -0.0916
  217MOL     H743639   5.235   5.114   6.470 -1.3493  0.7384 -0.2492
  217MOL     H843640   5.100   4.846   6.433  0.2675 -0.0616 -0.3091
  217MOL     H943641   5.058   4.987   6.341 -0.4109  1.2954  0.6020
  217MOL    H1043642   5.048   5.066   6.618 -0.5065  1.9601 -0.2823
  217MOL    H1143643   5.400   5.004   6.609 -0.3964 -0.8035  2.3761
  217MOL    C1243644   4.880   4.965   6.589  0.7776 -0.5069  1.0198
  217MOL    O1343645   4.823   4.875   6.519 -0.4694 -0.6029  0.2430
  217MOL    C1443646   4.822   5.034   6.721  0.3254  0.3215  0.9670
  217MOL    C1543647   4.674   5.015   6.741  0.3118 -0.1186 -0.6231
  217MOL    N1643648   4.619   5.108   6.837 -0.4421  0.2786  0.3137
  217MOL    H1743649   4.843   5.140   6.712  1.3646  0.0495  0.0567
  217MOL    H1843650   4.867   4.994   6.812  0.4822  1.9552  1.6196
  217MOL    H1943651   4.642   5.023   6.637  1.0211  1.0183 -0.7586
  217MOL    H2043652   4.663   4.912   6.776 -3.0706  0.1058 -0.8692
  217MOL    H2143653   4.686   5.172   6.877  0.9077 -0.4199 -0.7782
  217MOL    C2243654   4.491   5.097   6.863  0.1202 -0.4134  0.1902
  217MOL    O2343655   4.413   5.022   6.804  0.1401 -0.0063  0.0801
  217MOL    C2443656   4.441   5.203   6.968 -0.3211 -0.0507  0.2669
  217MOL    C2543657   4.292   5.185   6.988 -0.5921  0.3043 -0.5349
  217MOL    N2643658   4.265   5.268   7.103  0.3207 -0.2401  0.2602
  217MOL    H2743659   4.457   5.305   6.934  0.4248 -0.0277  0.6781
  217MOL    H2843660   4.506   5.181   7.052  0.6081  0.7116 -0.2440
  217MOL    H2943661   4.237   5.207   6.897 -0.6771 -0.0695 -0.5765
  217MOL    H3043662   4.265   5.084   7.020  3.3792 -0.4804  0.6593
  217MOL    H3143663   4.265   5.220   7.192  1.4479 -2.1350 -0.7383
  217MOL    C3243664   4.251   5.402   7.105 -0.3293 -0.5585 -0.4310
  217MOL    O3343665   4.222   5.469   7.006 -0.1548  0.1984 -0.1460
  217MOL    C3443666   4.279   5.482   7.234 -0.1729  0.7089 -0.0141
  217MOL    C3543667   4.351   5.613   7.204 -0.6715 -0.1098 -0.2721
  217MOL    N3643668   4.392   5.689   7.322  0.5797  0.0561 -1.0043
  217MOL    H3743669   4.342   5.427   7.303 -0.6875 -0.4519 -0.4672
  217MOL    H3843670   4.179   5.486   7.277  1.1643 -1.1005  3.4639
  217MOL    H3943671   4.427   5.593   7.128  1.1580 -2.0321  1.9873
  217MOL    H4043672   4.283   5.676   7.148 -1.1531  1.6953  2.2708
  217MOL    H4143673   4.328   5.694   7.400  1.7050 -1.3616  0.0496
  217MOL    C4243674   4.517   5.735   7.329  0.0869 -1.1117 -0.8005
  217MOL    O4343675   4.603   5.723   7.239  0.1669 -0.1373 -0.1621
  217MOL    C4443676   4.550   5.805   7.459  0.3454 -0.0015  0.0954
  217MOL    C4543677   4.579   5.712   7.578 -0.0097  0.3099  0.6208
  217MOL    N4643678   4.714   5.644   7.583 -0.1556 -0.1513 -0.0430
  217MOL    H4743679   4.634   5.871   7.440 -0.8776  1.2050 -1.3088
  217MOL    H4843680   4.462   5.863   7.487 -0.0307 -0.4268 -0.1963
  217MOL    H4943681   4.561   5.760   7.674 -2.2394 -0.7483  0.7597
  217MOL    H5043682   4.495   5.642   7.582  1.3879 -1.4155  0.5053
  217MOL    H5143683   4.791   5.708   7.571  0.4301 -1.3811 -3.1527
  217MOL    C5243684   4.730   5.515   7.607  0.2281  0.8083  0.4280
  217MOL    O5343685   4.636   5.438   7.626  0.0247  0.0864  0.2122
  217MOL    C5443686   4.870   5.459   7.605  0.1402  0.7426 -0.0724
  217MOL    C5543687   4.947   5.480   7.736 -0.3627  0.4598  0.6394
  217MOL    N5643688   4.909   5.381   0.067  0.0206  0.6132 -0.6804
  217MOL    H5743689   4.870   5.356   7.572  0.1731  0.8232 -0.3260
  217MOL    H5843690   4.912   5.506   7.516 -0.0620 -2.9301 -2.1930
  217MOL    H5943691   4.947   5.579   0.002 -1.0041  1.1597 -0.8503
  217MOL    H6043692   5.052   5.476   7.707  0.0128  1.0165  1.8910
  217MOL    H6143693   4.864   5.418   0.149  0.8042 -1.9573  0.9793
  217MOL    C6243694   4.901   5.247   0.060 -0.2007  0.0392  0.0307
  217MOL    O6343695   4.965   5.189   7.748  0.0328 -0.0203 -0.3938
  217MOL    C6443696   4.808   5.171   0.144  0.1952 -0.1184 -0.1778
  217MOL    C6543697   4.726   5.064   0.057  0.1280  0.3736 -0.3782
  217MOL    N6643698   4.638   5.126   7.740  0.1146  0.1932  0.0301
  217MOL    H6743699   4.880   5.118   0.207 -0.3875  0.5067  1.0383
  217MOL    H6843700   4.754   5.232   0.217  0.3343 -0.0858 -0.1004
  217MOL    H6943701   4.798   5.006   0.000 -0.5315  0.5354 -1.3909
  217MOL    H7043702   4.678   4.989   0.121 -0.4669  1.1562  0.1030
  217MOL    H7143703   4.655   5.222   7.711 -0.2800  0.4062  0.4914
  217MOL    C7243704   4.563   5.047   7.661 -0.5036  0.3000  0.2074
  217MOL    O7343705   4.572   4.927   7.657 -0.1997  0.4351 -0.0442
  217MOL    C7443706   4.453   5.129   7.588 -0.4562 -0.4171 -1.0275
  217MOL    C7543707   4.307   5.100   7.637 -0.3039  0.0646  0.0790
  217MOL    N7643708   4.211   5.191   7.587  0.5562 -0.2860 -0.2663
  217MOL    H7743709   4.478   5.230   7.621  1.7334 -1.9047  2.1680
  217MOL    H7843710   4.473   5.108   7.483  1.4371  1.0434 -0.9942
  217MOL    H7943711   4.279   4.995   7.625  0.6267 -0.3507  1.4353
  217MOL    H8043712   4.294   5.104   7.745  1.2058  1.2819  0.2390
  217MOL    H8143713   4.152   5.227   7.661  1.3279 -1.9946  1.2117
  217MOL    C8243714   4.160   5.191   7.460 -0.1450 -0.2516 -0.3211
  217MOL    O8343715   4.211   5.133   7.359 -0.5911 -0.4788 -0.3478
  217MOL    C8443716   4.022   5.260   7.445  0.0560  0.3712 -0.3164
  217MOL    C8543717   3.964   5.270   7.305  0.4578  0.8772  0.2492
  217MOL    N8643718   3.847   5.358   7.322  0.9213 -0.3646 -0.4741
  217MOL    H8743719   3.956   5.212   7.517 -1.6936  0.6888 -1.6928
  217MOL    H8843720   4.034   5.353   7.503 -0.1871 -0.4819  1.1325
  217MOL    H8943721   4.031   5.324   7.239  0.0844  3.7134  2.0549
  217MOL    H9043722   3.955   5.166   7.273  0.6952  0.7030  0.7442
  217MOL    H9143723   3.858   5.453   7.291 -0.9979 -0.0795 -0.3478
  217MOL    C9243724   3.722   5.317   7.342 -0.4938  0.7468 -0.1278
  217MOL    O9343725   3.695   5.198   7.365  0.0846 -0.3762 -0.2695
  217MOL    C9443726   3.605   5.422   7.337 -0.3412  0.1637  0.1274
  217MOL    C9543727   3.491   5.387   7.430  0.3878  0.3684  0.4457
  217MOL    N9643728   3.394   5.498   7.444 -0.8049  0.8888 -0.0361
  217MOL    H9743729   3.641   5.521   7.365 -1.8915  0.1865  2.1992
  217MOL    H9843730   3.567   5.435   7.236 -0.1354 -1.4109 -0.1602
  217MOL    H9943731   3.440   5.298   7.392 -2.3713  0.9827  2.5510
  217MOL   H10043732   3.523   5.349   7.527  1.5478 -1.2524 -0.5435
  217MOL   H10143733   3.387   5.562   7.366 -1.2513  0.1780 -0.5874
  217MOL   C10243734   3.339   5.538   7.556  0.7406  0.0255 -0.2577
  217MOL   O10343735   3.364   5.482   7.660 -0.2985  0.5743 -0.0390
  217MOL   C10443736   3.268   5.672   7.556 -0.1030 -0.1882  0.8122
  217MOL   C10543737   3.360   5.787   7.605  0.5314 -0.0270  0.2368
  217MOL   N10643738   3.413   5.773   7.738  0.1349 -0.4237  0.2141
  217MOL   H10743739   3.183   5.668   7.623 -1.1690 -0.3481 -0.5307
  217MOL   H10843740   3.229   5.687   7.456  3.1470  4.2229  0.0443
  217MOL   H10943741   3.447   5.804   7.541 -1.2297  0.5913 -2.0782
  217MOL   H11043742   3.315   5.884   7.585 -0.6553 -0.7270 -0.5869
  217MOL   H11143743   3.501   5.725   7.749  1.4530  2.0386  0.8697
  217MOL   C11243744   3.351   5.811   0.072  0.5761 -0.1853  0.5864
  217MOL   O11343745   3.243   5.870   0.063 -0.0182 -0.0770 -0.0445
  217MOL   C11443746   3.397   5.759   0.215  0.1024 -0.1051  0.9876
  217MOL   C11543747   3.283   5.744   0.314  0.7326  0.2030  0.4585
  217MOL   N11643748   3.262   5.850   0.411  0.2780 -0.3509  0.2829
  217MOL   H11743749   3.463   5.839   0.251 -1.5992  0.6265  2.5502
  217MOL   H11843750   3.465   5.674   0.209 -2.4023 -2.0833 -0.3589
  217MOL   H11943751   3.193   5.713   0.263  0.7374 -0.5910  0.9185
  217MOL   H12043752   3.311   5.653   0.367 -1.2532 -0.4538  0.4103
  217MOL   H12143753   3.182   5.912   0.401  0.5594 -0.3167 -1.8340
  217MOL   C12243754   3.322   5.852   0.533  0.0771 -0.4386  0.5936
  217MOL   O12343755   3.398   5.766   0.569  0.3629 -0.2103  0.1034
  217MOL   C12443756   3.301   5.975   0.628  0.0806 -0.2419  0.1691
  217MOL   C12543757   3.155   5.968   0.687  0.3809 -0.3780 -0.3603
  217MOL   N12643758   3.075   6.075   0.624 -0.2143  0.5129  0.3561
  217MOL   H12743759   3.317   6.064   0.567  1.6013  0.3653  1.4194
  217MOL   H12843760   3.373   5.983   0.709  0.6169 -1.3451 -0.1952
  217MOL   H12943761   3.108   5.870   0.680  0.3725 -0.4343  0.4386
  217MOL   H13043762   3.158   5.982   0.795  3.5758 -3.0666 -0.0118
  217MOL   H13143763   3.091   6.167   0.662  0.0102  0.7151 -0.2103
  217MOL   C13243764   2.960   6.069   0.562 -0.0031  0.0166  0.7321
  217MOL   O13343765   2.902   5.960   0.532  0.6482  0.2059 -0.6112
  217MOL   C13443766   2.899   6.202   0.520  0.5891 -0.2829  0.0161
  217MOL   C13543767   2.751   6.195   0.480 -0.3016 -0.3110  0.1335
  217MOL   N13643768   2.746   6.190   0.329 -0.2378 -0.0118  0.0188
  217MOL   H13743769   2.964   6.248   0.446  0.3607  0.0267  0.0073
  217MOL   H13843770   2.901   6.269   0.606  1.9335 -0.6281  0.2600
  217MOL   H13943771   2.688   6.117   0.523 -2.3326  1.0608 -0.2678
  217MOL   H14043772   2.712   6.292   0.511 -0.2877 -0.0226 -0.7250
  217MOL   H14143773   2.830   6.182   0.274 -0.3049 -0.7535  0.0214
  217MOL   C14243774   2.629   6.184   0.263  0.3115  0.5442 -0.6297
  217MOL   O14343775   2.528   6.178   0.325 -0.1748 -0.3845 -0.5989
  217MOL   C14443776   2.637   6.175   0.111  0.0269 -0.4196 -0.2798
  217MOL   C14543777   2.499   6.172   0.049  0.1242 -0.4883  0.4188
  217MOL   N14643778   2.514   6.218   7.689  0.2246 -0.7216 -0.2025
  217MOL   H14743779   2.680   6.083   0.071 -0.1200 -0.5299 -0.1853
  217MOL   H14843780   2.701   6.253   0.070  2.1398 -1.3427  1.1882
  217MOL   H14943781   2.455   6.073   0.054 -0.0301 -0.5430 -1.5682
  217MOL   H15043782   2.426   6.238   0.096  0.2842  0.4680 -0.6529
  217MOL   H15143783   2.497   6.315   7.667 -1.0820 -0.6067  1.2250
  217MOL   C15243784   2.557   6.132   7.592  0.2720  0.2767  0.0386
  217MOL   O15343785   2.567   6.014   7.618  0.0683  0.0961 -0.0961
  217MOL   C15443786   2.567   6.176   7.442 -0.0477 -0.0817  0.1753
  217MOL   C15543787   2.714   6.198   7.394  0.1220  0.3216  1.4386
  217MOL   N15643788   2.786   6.299   7.480  0.1004  0.3933  0.1396
  217MOL   H15743789   2.500   6.262   7.436  0.2635  0.2903  1.7311
  217MOL   H15843790   2.526   6.091   7.387  0.2249 -0.8152  1.0920
  217MOL   H15943791   2.777   6.110   7.410 -1.4042 -0.7783  1.5751
  217MOL   H16043792   2.718   6.222   7.288 -0.9060 -0.0471  1.3130
  217MOL   H16143793   2.855   6.255   7.539  0.6578  1.5231  0.3468
  217MOL   C16243794   2.753   6.434   7.486  0.0654 -0.2802 -0.6082
  217MOL   O16343795   2.655   6.488   7.428 -0.0819  0.2224  0.8579
  217MOL   C16443796   2.851   6.512   7.571 -0.2330  0.6884 -0.5582
  217MOL   C16543797   2.944   6.596   7.480 -0.3362  0.0139 -0.5180
  217MOL   N16643798   3.070   6.526   7.469 -0.4482 -0.0688 -0.2957
  217MOL   H16743799   2.909   6.443   7.632 -0.7228  0.0622 -0.7927
  217MOL   H16843800   2.792   6.574   7.639  0.0589  0.3344  0.0247
  217MOL   H16943801   2.918   6.620   7.377 -1.3001 -0.3574 -0.3644
  217MOL   H17043802   2.973   6.690   7.527 -1.6432  0.3615 -0.3870
  217MOL   H17143803   3.068   6.429   7.497 -0.3998  0.4052  1.4196
  217MOL   C17243804   3.186   6.572   7.409 -0.0183 -0.2930 -0.3767
  217MOL   O17343805   3.189   6.684   7.364  0.0004 -0.1078 -0.3147
  217MOL   C17443806   3.308   6.476   7.403  0.4334 -0.4754 -0.6995
  217MOL   C17543807   3.443   6.558   7.404 -0.6068 -0.5744 -0.5282
  217MOL   N17643808   3.468   6.658   7.302 -0.0486  0.0440  0.1187
  217MOL   H17743809   3.307   6.416   7.313  0.7281 -0.3219 -0.8050
  217MOL   H17843810   3.306   6.410   7.490 -1.6069 -0.5999 -0.8202
  217MOL   H17943811   3.452   6.612   7.499  1.4156  0.0499 -1.0501
  217MOL   H18043812   3.523   6.483   7.409 -0.2394 -0.1872 -0.5213
  217MOL   H18143813   3.386   6.688   7.253  0.6004 -0.2996 -1.2160
  217MOL   C18243814   3.581   6.718   7.276 -0.4420 -0.4275 -0.1127
  217MOL   O18343815   3.676   6.710   7.346 -0.1588 -0.8312 -0.2922
  217MOL   C18443816   3.585   6.807   7.159 -0.3448 -0.8831 -0.3041
  217MOL   C18543817   3.704   6.791   7.064  0.1258  0.3869 -0.1247
  217MOL   N18643818   3.705   6.664   6.991 -0.6935  0.2013 -0.3828
  217MOL   H18743819   3.578   6.909   7.196 -1.4315 -1.1615  0.2972
  217MOL   H18843820   3.493   6.790   7.103 -0.7320 -3.4026  1.0442
  217MOL   H18943821   3.698   6.874   6.994 -1.3546  0.7619  0.4259
  217MOL   H19043822   3.804   6.795   7.108  0.2287  0.4317 -0.3596
  217MOL   H19143823   3.653   6.587   7.030  0.3832 -0.3622 -0.0360
  217MOL   C19243824   3.791   6.639   6.891 -0.1195 -0.1828 -0.0726
  217MOL   O19343825   3.879   6.718   6.868  0.0109 -0.5429 -0.6080
  217MOL   C19443826   3.787   6.509   6.808 -0.1277  0.0481 -0.2371
  217MOL   C19543827   3.829   6.526   6.654 -0.0729 -0.1406  0.1321
  217MOL   N19643828   3.971   6.567   6.633 -0.5977 -0.0622 -0.0130
  217MOL   H19743829   3.854   6.432   6.845  0.4908 -0.4581 -2.3304
  217MOL   H19843830   3.686   6.468   6.818  0.6004 -2.1879 -1.6412
  217MOL   H19943831   3.814   6.428   6.607  0.5617  0.0299 -0.4304
  217MOL   H20043832   3.769   6.606   6.611 -1.0910 -0.4614  0.9364
  217MOL   H20143833   3.981   6.621   6.548 -2.6388 -0.7711 -0.7284
  217MOL   H20243834   4.005   6.627   6.706  0.4401  0.5690 -1.0031
  218MOL     C143835   7.469   7.134   3.786  0.0403 -0.3881  0.0258
  218MOL     O243836   7.460   7.251   3.753  0.8789 -0.3903  0.2609
  218MOL     C343837   7.349   7.065   3.849  0.7382  0.0196 -0.1830
  218MOL     C443838   7.273   7.141   3.961  0.4108  0.4471  0.4574
  218MOL     N543839   7.208   7.265   3.907  0.0667  0.2004  0.6139
  218MOL     H643840   7.388   6.974   3.894  1.4762  0.8171  0.8188
  218MOL     H743841   7.286   7.024   3.770 -1.0995 -0.0343  1.2832
  218MOL     H843842   7.341   7.172   4.041  2.2393 -2.0845 -0.0628
  218MOL     H943843   7.199   7.076   4.008 -0.5098 -0.5311 -2.2551
  218MOL    H1043844   7.192   7.270   3.807  0.0304  0.3506  0.6261
  218MOL    H1143845   7.554   7.072   3.759  0.6644  0.8008 -0.7745
  218MOL    C1243846   7.173   7.377   3.977  0.3082 -0.1815  0.2629
  218MOL    O1343847   7.187   7.383   4.100 -0.5023  0.1284 -0.3082
  218MOL    C1443848   7.111   7.498   3.905 -0.3385  0.9839 -0.3744
  218MOL    C1543849   7.050   7.472   3.767  1.1055 -0.4131  0.4341
  218MOL    N1643850   6.963   7.577   3.725  0.1378 -0.4855  0.8411
  218MOL    H1743851   7.190   7.573   3.897  1.1770 -0.8243 -3.3438
  218MOL    H1843852   7.031   7.529   3.972 -1.8684 -2.0700 -0.7250
  218MOL    H1943853   7.119   7.476   3.683  0.2667  2.8692 -0.2025
  218MOL    H2043854   6.986   7.384   3.759 -1.6469  1.3824  1.7912
  218MOL    H2143855   6.872   7.565   3.765  0.0620 -2.4107  0.1678
  218MOL    C2243856   6.999   7.699   3.678  0.4762  0.5661  0.0363
  218MOL    O2343857   7.112   7.735   3.640  0.0465 -0.2411  1.0871
  218MOL    C2443858   6.883   0.018   3.679  0.1160 -0.3879 -0.1418
  218MOL    C2543859   6.934   0.164   3.659  0.3598 -0.5834  0.4656
  218MOL    N2643860   6.840   0.256   3.709 -0.1054 -0.1557  0.0366
  218MOL    H2743861   6.835   0.003   3.776  0.1401 -2.1213 -0.3832
  218MOL    H2843862   6.817   7.777   3.595  0.2247  0.9262 -0.5652
  218MOL    H2943863   7.027   0.189   3.709  0.9116 -1.4658 -0.0943
  218MOL    H3043864   6.947   0.176   3.552  0.2162 -2.0467  0.2666
  218MOL    H3143865   6.843   0.273   3.808  3.0252  1.8812 -0.3259
  218MOL    C3243866   6.742   0.308   3.629 -0.8313 -0.3944  0.3764
  218MOL    O3343867   6.724   0.291   3.508  0.4793 -0.8822  0.2264
  218MOL    C3443868   6.643   0.394   3.691  1.0458  0.8082 -0.6159
  218MOL    C3543869   6.494   0.360   3.655 -0.6660 -0.2863  0.3810
  218MOL    N3643870   6.410   0.465   3.731 -0.2669  0.4471 -0.1160
  218MOL    H3743871   6.663   0.499   3.669 -1.5351  1.4306 -0.1388
  218MOL    H3843872   6.655   0.385   3.799 -1.6114 -1.0656 -0.4322
  218MOL    H3943873   6.461   0.363   3.551  1.4971  0.9712 -0.2956
  218MOL    H4043874   6.483   0.255   3.684  1.8061 -0.9136 -0.7746
  218MOL    H4143875   6.416   0.466   3.832  0.0356 -1.0183 -0.1023
  218MOL    C4243876   6.319   0.540   3.672  0.0005  0.1448  0.1283
  218MOL    O4343877   6.303   0.545   3.549  0.6008 -0.0873 -0.8605
  218MOL    C4443878   6.225   0.614   3.768 -0.5552  0.4742 -0.7192
  218MOL    C4543879   6.146   0.724   3.699 -0.9924  0.0558  0.3397
  218MOL    N4643880   6.036   0.772   3.788  0.6704 -0.0952  0.4723
  218MOL    H4743881   6.156   0.540   3.808 -0.1157  0.4455 -0.0159
  218MOL    H4843882   6.282   0.657   3.850 -1.8344  3.6241 -1.3852
  218MOL    H4943883   6.213   0.805   3.671 -1.5915  0.4072 -0.0975
  218MOL    H5043884   6.103   0.687   3.606  0.2165 -0.4213 -0.0421
  218MOL    H5143885   5.999   0.716   3.863  1.1638 -1.9962 -0.6685
  218MOL    C5243886   5.968   0.888   3.762  0.3763  0.8590 -0.6752
  218MOL    O5343887   5.998   0.957   3.662  0.3398  0.1593 -0.5965
  218MOL    C5443888   5.851   0.925   3.854 -0.2192  0.0633 -0.6839
  218MOL    C5543889   5.846   1.080   3.875  0.4889  0.3546 -0.8306
  218MOL    N5643890   5.803   1.111   4.017  0.5828 -0.4055  0.3793
  218MOL    H5743891   5.757   0.887   3.813  0.7683 -0.5808 -2.3918
  218MOL    H5843892   5.864   0.884   3.955  0.3029  1.3405 -0.2305
  218MOL    H5943893   5.776   1.118   3.802 -3.1769 -0.6682  1.9831
  218MOL    H6043894   5.935   1.139   3.857 -0.9060  2.7000 -0.2504
  218MOL    H6143895   5.858   1.079   4.095  2.7548  0.4219 -0.7721
  218MOL    C6243896   5.692   1.174   4.050  0.1046 -0.2429  0.1739
  218MOL    O6343897   5.617   1.217   3.968  0.3905  0.0695  0.0325
  218MOL    C6443898   5.661   1.164   4.207  0.4170 -0.0076 -0.0727
  218MOL    C6543899   5.540   1.082   4.251  0.1377  0.6560  0.1485
  218MOL    N6643900   5.411   1.116   4.193  0.2455  0.4415 -0.3093
  218MOL    H6743901   5.746   1.114   4.253 -0.9687 -4.1365 -1.7025
  218MOL    H6843902   5.643   1.262   4.251  0.7924  0.4745 -0.9712
  218MOL    H6943903   5.569   0.981   4.224  1.0498  1.1566 -0.7656
  218MOL    H7043904   5.542   1.084   4.360 -1.4451  2.3592  0.1614
  218MOL    H7143905   5.367   1.058   4.123  0.2929 -0.6095  0.5216
  218MOL    C7243906   5.336   1.227   4.225 -0.3057 -0.2590  0.0572
  218MOL    O7343907   5.378   1.311   4.300 -0.1599 -0.3176 -0.2794
  218MOL    C7443908   5.197   1.241   4.156 -0.2122 -0.3909 -0.3739
  218MOL    C7543909   5.095   1.325   4.245 -0.0033  0.2034 -0.0036
  218MOL    N7643910   4.963   1.261   4.247  0.3022  0.5660 -0.0144
  218MOL    H7743911   5.204   1.276   4.053  0.4433  0.1576 -0.1476
  218MOL    H7843912   5.149   1.144   4.148  2.5087 -1.6855 -1.4284
  218MOL    H7943913   5.129   1.340   4.347  2.4560  0.6800 -0.8634
  218MOL    H8043914   5.093   1.427   4.208 -0.6386  0.0656 -0.3616
  218MOL    H8143915   4.932   1.203   4.324  0.1545  0.5365 -0.0938
  218MOL    C8243916   4.864   1.257   4.154  0.6598  0.5540  0.1420
  218MOL    O8343917   4.865   1.330   4.052 -0.3797 -0.1030 -0.1434
  218MOL    C8443918   4.743   1.172   4.191  0.1716  0.4403 -0.0098
  218MOL    C8543919   4.664   1.126   4.068  0.0331  0.0664 -0.4232
  218MOL    N8643920   4.740   1.045   3.975  0.0697 -0.2314  0.4751
  218MOL    H8743921   4.761   1.087   4.257 -0.0187  0.7728  0.4745
  218MOL    H8843922   4.676   1.229   4.255 -1.4721 -0.5249 -0.8268
  218MOL    H8943923   4.570   1.074   4.089 -0.3223  1.3190  1.1842
  218MOL    H9043924   4.638   1.206   4.000 -0.2548 -1.1821 -1.8073
  218MOL    H9143925   4.771   1.094   3.892  0.2475 -2.1803 -0.6263
  218MOL    C9243926   4.760   0.914   3.981  0.3593 -0.0526 -0.6850
  218MOL    O9343927   4.747   0.857   4.091 -0.4661  0.2878  0.5599
  218MOL    C9443928   4.798   0.827   3.860  0.1251  0.0815  0.5256
  218MOL    C9543929   4.820   0.683   3.897  0.1287  0.0919  0.2069
  218MOL    N9643930   4.845   0.602   3.775  0.4981 -0.0986 -1.3599
  218MOL    H9743931   4.722   0.830   3.782  0.0887  3.3567  0.6248
  218MOL    H9843932   4.882   0.878   3.814 -0.9765  2.3156  0.9003
  218MOL    H9943933   4.902   0.670   3.968  0.4464 -1.7563 -0.4763
  218MOL   H10043934   4.728   0.639   3.937  1.0741 -2.1178  0.0593
  218MOL   H10143935   4.765   0.550   3.744  0.0846  1.2145 -2.5043
  218MOL   C10243936   4.971   0.576   3.731  0.1708 -0.6813  0.0619
  218MOL   O10343937   5.068   0.626   3.783  0.0990 -0.0012  0.1983
  218MOL   C10443938   4.985   0.472   3.620  0.1503 -0.3668 -0.1097
  218MOL   C10543939   5.023   0.533   3.492 -0.5191  0.1418  0.2393
  218MOL   N10643940   5.056   0.431   3.398  0.5364  0.4009  0.1125
  218MOL   H10743941   4.891   0.419   3.601 -0.0454 -0.8066  2.0484
  218MOL   H10843942   5.065   0.402   3.643 -1.4825 -2.0961  0.4432
  218MOL   H10943943   4.942   0.593   3.451  0.5002  2.2225  1.2255
  218MOL   H11043944   5.110   0.597   3.494  1.2079 -2.1725  2.0919
  218MOL   H11143945   5.009   0.345   3.420  1.3213 -0.3980 -1.3239
  218MOL   C11243946   5.140   0.438   3.298 -0.2901  0.4328 -0.1128
  218MOL   O11343947   5.197   0.539   3.274 -0.0318 -0.5055 -0.4725
  218MOL   C11443948   5.154   0.314   3.214  0.4862  0.0832 -0.3199
  218MOL   C11543949   5.209   0.339   3.070  0.9114  0.6790  0.1430
  218MOL   N11643950   5.134   0.284   2.961  0.0444  0.0320  0.4189
  218MOL   H11743951   5.064   0.252   3.213 -0.7548  1.8361  0.1370
  218MOL   H11843952   5.217   0.254   3.280 -2.0249 -0.4811  1.6499
  218MOL   H11943953   5.226   0.445   3.048 -0.3930  0.5720 -1.5215
  218MOL   H12043954   5.310   0.302   3.060  1.5880  2.7957 -1.1752
  218MOL   H12143955   5.053   0.230   2.986  0.1021 -0.9827 -1.5002
  218MOL   C12243956   5.159   0.316   2.833 -0.4986 -0.1652 -0.0321
  218MOL   O12343957   5.259   0.382   2.801  0.5461  0.0643  0.4205
  218MOL   C12443958   5.071   0.255   2.728 -0.8493 -0.4397  0.3346
  218MOL   C12543959   4.915   0.269   2.753 -0.3710 -0.3250  0.1889
  218MOL   N12643960   4.872   0.405   2.728  0.5264 -0.4687 -0.4665
  218MOL   H12743961   5.091   0.148   2.732 -0.9922 -0.4061  2.4031
  218MOL   H12843962   5.101   0.275   2.625  1.1899 -0.7026  0.8556
  218MOL   H12943963   4.849   0.200   2.700 -0.2194 -0.8275  0.6583
  218MOL   H13043964   4.888   0.240   2.855 -1.6642 -0.3892 -0.1580
  218MOL   H13143965   4.827   0.461   2.798  0.0069 -0.6286 -0.6710
  218MOL   C13243966   4.864   0.461   2.609 -0.3894  0.5554  0.4618
  218MOL   O13343967   4.913   0.410   2.509  0.5062  0.2052  0.7408
  218MOL   C13443968   4.790   0.592   2.599  0.5559  0.7515 -0.1582
  218MOL   C13543969   4.711   0.617   2.470 -0.4290 -0.8888  0.0925
  218MOL   N13643970   4.587   0.687   2.477  0.5853 -0.0357  0.7467
  218MOL   H13743971   4.872   0.663   2.613  2.3513 -1.2720 -0.1329
  218MOL   H13843972   4.722   0.609   2.682  0.8973  0.0927  0.2566
  218MOL   H13943973   4.780   0.651   2.393  1.1971 -1.2697  1.3598
  218MOL   H14043974   4.697   0.514   2.437  0.9164 -0.0092 -3.4744
  218MOL   H14143975   4.538   0.707   2.563 -0.6510 -0.5494  0.1862
  218MOL   C14243976   4.508   0.711   2.374 -0.3050 -0.1404  0.9749
  218MOL   O14343977   4.549   0.672   2.263 -0.0551 -0.5237 -0.2519
  218MOL   C14443978   4.379   0.787   2.395  0.2362 -0.1810  0.1695
  218MOL   C14543979   4.260   0.698   2.367  0.6374  0.6841  0.3435
  218MOL   N14643980   4.217   0.623   2.485  0.4032 -0.1909 -0.0709
  218MOL   H14743981   4.382   0.881   2.338  1.5309  1.1902  2.4242
  218MOL   H14843982   4.364   0.825   2.496 -0.6093 -0.0369 -0.0011
  218MOL   H14943983   4.178   0.757   2.327  1.1690  0.6697 -0.7870
  218MOL   H15043984   4.281   0.619   2.294  0.0722 -0.4009  1.3508
  218MOL   H15143985   4.217   0.674   2.572 -0.8297 -0.3456  0.0343
  218MOL   C15243986   4.157   0.505   2.483 -0.4001  0.3621  0.2759
  218MOL   O15343987   4.138   0.446   2.375  0.0554 -0.9369  0.5092
  218MOL   C15443988   4.110   0.434   2.611 -0.8506  0.2993  0.3232
  218MOL   C15543989   3.958   0.465   2.641 -0.6420 -0.4668 -0.3565
  218MOL   N15643990   3.909   0.369   2.740  0.3550  0.8554 -0.2424
  218MOL   H15743991   4.173   0.470   2.693 -0.7651  0.0821  0.3538
  218MOL   H15843992   4.129   0.327   2.605 -2.8180 -0.0322 -0.2924
  218MOL   H15943993   3.960   0.567   2.679  0.1498 -0.7667  0.4244
  218MOL   H16043994   3.898   0.462   2.550  1.0167  0.6588 -1.5294
  218MOL   H16143995   3.919   0.392   2.837  1.5677 -0.5701  0.0043
  218MOL   C16243996   3.849   0.249   2.718 -0.4512 -0.0103  0.2922
  218MOL   O16343997   3.809   0.210   2.610 -0.3413  0.1139  0.1692
  218MOL   C16443998   3.827   0.167   2.836 -0.4540  0.3853 -0.1345
  218MOL   C16543999   3.688   0.199   2.897 -0.6252 -0.3982  0.0789
  218MOL   N16644000   3.570   0.151   2.816  0.9943  0.1991  0.1894
  218MOL   H16744001   3.906   0.186   2.908  0.9335 -2.1369 -0.9073
  218MOL   H16844002   3.834   0.059   2.819 -0.9719  0.3639 -0.2202
  218MOL   H16944003   3.683   0.162   2.999 -0.4456 -0.1901  0.1638
  218MOL   H17044004   3.680   0.306   2.919  0.8636 -0.2828  0.1029
  218MOL   H17144005   3.559   0.195   2.726  2.1315 -1.3776 -0.7547
  218MOL   C17244006   3.515   0.026   2.827  0.7968 -0.2282  0.2058
  218MOL   O17344007   3.532   7.737   2.926  0.5678  0.0081  0.0706
  218MOL   C17444008   3.438   7.744   2.709  0.4009 -0.1855  0.1347
  218MOL   C17544009   3.287   7.716   2.734 -0.7094  0.3154  0.2056
  218MOL   N17644010   3.215   7.683   2.610  0.1360  0.5770 -0.5087
  218MOL   H17744011   3.490   7.658   2.667 -0.3087 -0.5249 -0.0692
  218MOL   H17844012   3.441   0.031   2.623 -1.6431  0.9366  0.9152
  218MOL   H17944013   3.284   7.627   2.798  2.0234 -1.4766 -2.0056
  218MOL   H18044014   3.246   0.021   2.788 -1.6149 -0.0723  0.1417
  218MOL   H18144015   3.135   7.742   2.596 -1.4822 -1.7526 -1.3823
  218MOL   C18244016   3.230   7.576   2.529 -0.1019 -0.2625 -0.0018
  218MOL   O18344017   3.327   7.503   2.533 -0.5269 -0.9834  0.1268
  218MOL   C18444018   3.115   7.546   2.435  0.1123 -0.4260  0.0765
  218MOL   C18544019   3.074   7.402   2.408 -0.4793 -0.3533 -0.2351
  218MOL   N18644020   2.933   7.386   2.365 -1.1636 -0.0265  0.2408
  218MOL   H18744021   3.138   7.589   2.338 -1.9462 -2.1947 -1.2496
  218MOL   H18844022   3.026   7.601   2.466 -0.0287 -0.6408  0.0570
  218MOL   H18944023   3.146   7.352   2.343 -0.7722 -2.5357  1.0401
  218MOL   H19044024   3.087   7.343   2.499  2.8392 -1.1201 -1.1622
  218MOL   H19144025   2.867   7.364   2.438 -1.3058 -0.0880  0.0952
  218MOL   C19244026   2.887   7.420   2.245 -0.4066  0.9564  0.2355
  218MOL   O19344027   2.962   7.469   2.157  0.1218 -0.4936  0.2494
  218MOL   C19444028   2.737   7.418   2.224 -0.5405 -0.1564 -0.2217
  218MOL   C19544029   2.683   7.324   2.114 -0.2989 -0.3716  0.2991
  218MOL   N19644030   2.703   7.378   1.974  0.6386  0.0751  0.0872
  218MOL   H19744031   2.686   7.403   2.319 -2.2943 -0.6687 -1.2170
  218MOL   H19844032   2.708   7.522   2.211 -1.8191 -0.5355 -0.4067
  218MOL   H19944033   2.732   7.230   2.089  1.8012  1.0231 -0.9679
  218MOL   H20044034   2.584   7.284   2.134 -0.4346 -0.6810 -0.9638
  218MOL   H20144035   2.642   7.336   1.906  0.3150 -0.6111  0.7840
  218MOL   H20244036   2.794   7.347   1.942  0.9304  2.1603 -1.1643
  219MOL     C144037   5.504   5.856   6.076 -0.3987 -0.4653  0.5184
  219MOL     O244038   5.539   5.834   5.963 -0.5598  0.0065  0.3026
  219MOL     C344039   5.607   5.842   6.190  0.3437 -0.5296  0.4571
  219MOL     C444040   5.671   5.704   6.207  0.6462 -0.3994 -0.0266
  219MOL     N544041   5.756   5.661   6.096  0.3279  0.5081  0.1942
  219MOL     H644042   5.555   5.885   6.275  1.1971 -1.7062  1.5889
  219MOL     H744043   5.698   5.902   6.185  0.6434 -1.0031  0.1678
  219MOL     H844044   5.586   5.639   6.226 -1.0305  1.5790 -0.6248
  219MOL     H944045   5.723   5.709   6.303  2.4187 -1.9602 -0.8548
  219MOL    H1044046   5.794   5.730   6.033  1.3376  1.5420  1.8942
  219MOL    H1144047   5.410   5.891   6.119 -1.1644 -1.3070 -0.4552
  219MOL    C1244048   5.791   5.535   6.071 -0.2873 -0.3151  0.2462
  219MOL    O1344049   5.760   5.444   6.148  0.7723 -0.2168 -0.3922
  219MOL    C1444050   5.869   5.506   5.943  0.1700 -0.1474 -0.2138
  219MOL    C1544051   6.020   5.492   5.963 -0.3441 -0.3633 -0.1152
  219MOL    N1644052   6.078   5.622   5.994  0.2790  0.8897  0.9889
  219MOL    H1744053   5.856   5.590   5.875  1.9214 -0.9101 -1.5302
  219MOL    H1844054   5.823   5.424   5.889 -2.3266  1.1781 -0.1782
  219MOL    H1944055   6.054   5.416   6.033  1.3854  0.5150  0.0336
  219MOL    H2044056   6.074   5.459   5.875  0.5287 -2.1117  1.0429
  219MOL    H2144057   6.051   5.695   5.930 -1.4360  1.1662  2.0067
  219MOL    C2244058   6.161   5.646   6.099 -0.3739 -0.0945  0.2761
  219MOL    O2344059   6.192   5.559   6.172 -0.4809  0.1850  0.5056
  219MOL    C2444060   6.221   5.783   6.115 -0.3858  0.9127 -0.4859
  219MOL    C2544061   6.254   5.824   6.262  0.0289 -0.9501 -0.8720
  219MOL    N2644062   6.139   5.847   6.350 -0.7124  0.2076  0.4065
  219MOL    H2744063   6.151   5.854   6.071 -1.5963 -0.7819 -1.3479
  219MOL    H2844064   6.319   5.797   6.067  0.7255  1.3593  1.8524
  219MOL    H2944065   6.321   5.755   6.313 -0.4548 -1.1789 -0.5457
  219MOL    H3044066   6.303   5.920   6.244  0.2902 -0.7425  0.9285
  219MOL    H3144067   6.050   5.869   6.308  0.3617 -1.5516 -2.9659
  219MOL    C3244068   6.131   5.842   6.482 -0.3587 -0.1340 -0.2498
  219MOL    O3344069   6.234   5.813   6.539  0.4671 -0.2053 -0.1281
  219MOL    C3444070   5.995   5.849   6.554 -0.0156 -0.1004 -0.3186
  219MOL    C3544071   5.955   5.996   6.606 -0.7312 -0.4884  0.5209
  219MOL    N3644072   5.853   5.999   6.709  0.3808  0.1703 -0.0911
  219MOL    H3744073   5.988   5.791   6.645 -0.6740  0.9845  0.3344
  219MOL    H3844074   5.923   5.807   6.483 -1.3147 -0.6109  1.2851
  219MOL    H3944075   6.045   6.047   6.640  0.5161 -0.8851 -2.0308
  219MOL    H4044076   5.923   6.068   6.530 -0.2306  1.1484  1.8261
  219MOL    H4144077   5.814   5.911   6.738  0.8564 -0.1437 -0.3961
  219MOL    C4244078   5.791   6.109   6.755 -0.6113 -0.6727 -0.7813
  219MOL    O4344079   5.823   6.232   6.731  0.8567  0.3636  0.1969
  219MOL    C4444080   5.674   6.087   6.847  0.1274 -0.3549  0.2818
  219MOL    C4544081   5.535   6.136   6.789 -0.2353 -0.4415 -0.0636
  219MOL    N4644082   5.472   6.013   6.746  0.1688 -0.8458 -0.1501
  219MOL    H4744083   5.674   5.990   6.896 -1.3074 -0.5926 -0.1695
  219MOL    H4844084   5.700   6.163   6.920 -1.3829 -0.6668  1.1449
  219MOL    H4944085   5.481   6.180   6.873 -0.2635  1.0793 -0.8480
  219MOL    H5044086   5.539   6.209   6.707  0.3916 -0.8074 -0.3558
  219MOL    H5144087   5.394   5.980   6.801  0.4620 -0.6411  0.3969
  219MOL    C5244088   5.471   5.966   6.624  0.6691 -0.3548 -0.0580
  219MOL    O5344089   5.549   6.002   6.535  0.1292  0.0312 -0.1115
  219MOL    C5444090   5.361   5.863   6.606 -0.2949  0.5692  0.4034
  219MOL    C5544091   5.287   5.878   6.470 -0.3462  0.7617  0.7766
  219MOL    N5644092   5.189   5.772   6.441 -0.0322  0.4531  0.0189
  219MOL    H5744093   5.411   5.766   6.610  0.3808  0.9123  0.3915
  219MOL    H5844094   5.293   5.855   6.691 -0.8061 -0.5157 -0.0910
  219MOL    H5944095   5.365   5.885   6.394 -2.2230  1.9130 -1.1109
  219MOL    H6044096   5.252   5.982   6.472  1.6199  1.4728 -0.1174
  219MOL    H6144097   5.092   5.794   6.460 -0.1139  0.3852 -0.3266
  219MOL    C6244098   5.223   5.647   6.409 -0.3316 -0.1697 -0.3437
  219MOL    O6344099   5.339   5.605   6.394  0.2087  0.7666  0.3065
  219MOL    C6444100   5.111   5.543   6.424  0.0305  0.3923 -0.5484
  219MOL    C6544101   5.139   5.405   6.362  0.0392 -0.2234  0.8690
  219MOL    N6644102   5.157   5.425   6.219  0.3834  0.3632  0.3800
  219MOL    H6744103   5.073   5.538   6.526  0.3163 -1.5780 -0.5179
  219MOL    H6844104   5.021   5.579   6.375  0.1093  1.3742  0.0165
  219MOL    H6944105   5.234   5.364   6.397  1.4263  0.8354 -1.4885
  219MOL    H7044106   5.057   5.338   6.388  0.2792 -1.7077 -1.9259
  219MOL    H7144107   5.155   5.522   6.190 -2.8920 -0.3232 -1.9682
  219MOL    C7244108   5.198   5.326   6.141 -0.3200  0.1333 -0.4401
  219MOL    O7344109   5.192   5.205   6.167 -0.0251 -0.1663 -0.0031
  219MOL    C7444110   5.237   5.367   6.007  0.6019  0.2041 -0.2104
  219MOL    C7544111   5.369   5.442   6.008  0.1582  0.3546 -0.2312
  219MOL    N7644112   5.431   5.440   5.876  0.0530 -0.1699  0.3895
  219MOL    H7744113   5.236   5.276   5.947 -0.3238 -0.9444  1.5012
  219MOL    H7844114   5.152   5.420   5.966  1.3124 -0.7190 -3.0004
  219MOL    H7944115   5.351   5.546   6.037 -1.7693  0.6627 -2.3701
  219MOL    H8044116   5.439   5.395   6.077  0.3174  0.3265 -0.4126
  219MOL    H8144117   5.516   5.386   5.875  0.6884  0.8225 -0.2225
  219MOL    C8244118   5.395   5.508   5.769  0.5183 -0.0088  0.1017
  219MOL    O8344119   5.306   5.593   5.766  0.5081  0.1339  0.1289
  219MOL    C8444120   5.477   5.482   5.640 -0.7994 -0.1164 -0.0344
  219MOL    C8544121   5.389   5.402   5.546  0.3719  0.0947 -0.1535
  219MOL    N8644122   5.446   5.376   5.413  0.6428  1.3105  0.7289
  219MOL    H8744123   5.495   5.586   5.611  0.3827 -0.6746 -1.3420
  219MOL    H8844124   5.573   5.431   5.643  0.9100  2.8836 -0.8670
  219MOL    H8944125   5.368   5.312   5.604  0.8984  0.5519  0.7547
  219MOL    H9044126   5.294   5.454   5.534  0.6018  0.4390 -0.4786
  219MOL    H9144127   5.435   5.282   5.378  0.8689  1.5583 -0.0208
  219MOL    C9244128   5.514   5.466   5.337  0.2015 -0.3080  0.6786
  219MOL    O9344129   5.555   5.572   5.378  0.1371  0.0789  0.6677
  219MOL    C9444130   5.550   5.420   5.194  0.1210  0.1005 -0.2141
  219MOL    C9544131   5.481   5.499   5.080 -0.4958  0.9142 -0.2755
  219MOL    N9644132   5.557   5.615   5.040  0.7807  0.5682 -0.1194
  219MOL    H9744133   5.657   5.427   5.178 -0.1174  1.3951 -1.3527
  219MOL    H9844134   5.515   5.316   5.196  0.0046  0.1579  2.3216
  219MOL    H9944135   5.459   5.439   4.992  0.4232  0.6337 -0.3146
  219MOL   H10044136   5.383   5.532   5.113 -0.3722  2.0330 -1.0010
  219MOL   H10144137   5.538   5.707   5.078  3.6875  0.8739  0.7283
  219MOL   C10244138   5.666   5.605   4.959  0.7919  0.5352  0.9341
  219MOL   O10344139   5.712   5.494   4.934  0.3655  0.2963 -0.1152
  219MOL   C10444140   5.734   5.736   4.913 -0.3461  0.4765 -0.5574
  219MOL   C10544141   5.789   5.731   4.770  0.6312 -0.0973 -0.8892
  219MOL   N10644142   5.822   5.867   4.736  0.4986 -0.2704 -0.3453
  219MOL   H10744143   5.818   5.758   4.979 -0.7411 -0.2955  0.2091
  219MOL   H10844144   5.672   5.824   4.927 -1.0577 -0.0176 -0.5880
  219MOL   H10944145   5.870   5.659   4.756  1.1413  0.4094 -0.5672
  219MOL   H11044146   5.718   5.685   4.702 -0.0985 -1.7415  0.9261
  219MOL   H11144147   5.757   5.918   4.678 -0.6431 -2.6271 -1.1973
  219MOL   C11244148   5.948   5.911   4.724 -0.5561 -0.2350  0.4129
  219MOL   O11344149   6.050   5.854   4.767  0.0901 -0.1678 -0.0091
  219MOL   C11444150   5.970   6.046   4.657  0.2647  0.4847  0.0664
  219MOL   C11544151   6.117   6.106   4.657  0.0521 -0.2734  0.2517
  219MOL   N11644152   6.198   6.088   4.531 -0.0715  0.3758  0.2738
  219MOL   H11744153   5.899   6.109   4.712 -1.1816 -2.0108  1.1586
  219MOL   H11844154   5.932   6.036   4.555 -1.8204  1.6629  0.6798
  219MOL   H11944155   6.102   6.211   4.683 -1.2201 -0.5391  0.6278
  219MOL   H12044156   6.174   6.064   4.739  0.6470 -0.7891 -0.4154
  219MOL   H12144157   6.167   6.024   4.459 -0.3148  0.1854  0.5456
  219MOL   C12244158   6.317   6.146   4.514 -0.3165 -0.2098 -0.2185
  219MOL   O12344159   6.354   6.239   4.582 -0.1805  0.0007  0.2501
  219MOL   C12444160   6.408   6.100   4.403  0.1400  0.8848 -0.0819
  219MOL   C12544161   6.555   6.143   4.418  0.4154  0.1100 -0.5463
  219MOL   N12644162   6.631   6.063   4.515  0.4706 -0.0811  0.6711
  219MOL   H12744163   6.367   6.135   4.308  0.0805  1.1672  0.0467
  219MOL   H12844164   6.396   5.992   4.403 -1.6069  1.0590 -2.4493
  219MOL   H12944165   6.611   6.148   4.324 -0.2939 -0.4482 -1.0038
  219MOL   H13044166   6.568   6.242   4.461 -0.3737  0.5345 -1.2812
  219MOL   H13144167   6.632   6.106   4.606  1.1235  0.7437  0.2850
  219MOL   C13244168   6.729   5.983   4.477 -0.6447 -0.4872  0.2538
  219MOL   O13344169   6.736   5.927   4.368 -0.5165  0.0364 -0.0086
  219MOL   C13444170   6.852   5.964   4.578  0.1992  0.4229 -0.7403
  219MOL   C13544171   6.849   5.825   4.651  0.6565  0.6683 -0.7274
  219MOL   N13644172   6.717   5.803   4.708 -0.1544 -0.2607  0.3195
  219MOL   H13744173   6.851   6.048   4.647 -0.6903  0.2369 -0.5237
  219MOL   H13844174   6.942   5.968   4.516  0.3004 -0.5153 -0.6659
  219MOL   H13944175   6.882   5.739   4.593  1.0265  0.8815 -0.8400
  219MOL   H14044176   6.926   5.829   4.728  1.2760 -0.0814 -1.2921
  219MOL   H14144177   6.641   5.764   4.655 -1.0586  0.1498  1.2995
  219MOL   C14244178   6.684   5.835   4.833  0.0180 -0.5742  0.3702
  219MOL   O14344179   6.772   5.881   4.920  0.2727  0.2616  0.0755
  219MOL   C14444180   6.540   5.805   4.878  0.2976 -0.5062 -0.2389
  219MOL   C14544181   6.428   5.911   4.840 -0.0079  0.5655  0.5976
  219MOL   N14644182   6.436   6.031   4.917 -0.5263  0.2007 -0.3116
  219MOL   H14744183   6.553   5.783   4.984 -1.4177 -2.1368 -0.3487
  219MOL   H14844184   6.509   5.713   4.829 -0.0253 -0.4819 -0.0803
  219MOL   H14944185   6.418   5.926   4.733 -0.0767 -0.1516  0.4978
  219MOL   H15044186   6.334   5.868   4.876  0.6447 -1.4529 -0.0327
  219MOL   H15144187   6.389   6.044   5.006  2.3272  1.4088  1.1065
  219MOL   C15244188   6.515   6.134   4.889  0.6408 -0.1147  0.2049
  219MOL   O15344189   6.594   6.134   4.797  0.3136  0.4351 -0.4345
  219MOL   C15444190   6.519   6.241   4.996 -0.2923 -0.6501 -0.0305
  219MOL   C15544191   6.493   6.387   4.936 -0.2615 -0.1010 -0.6459
  219MOL   N15644192   6.366   6.399   4.864 -0.1719 -0.4946  0.5908
  219MOL   H15744193   6.616   6.238   5.045  0.2183  3.0737 -0.6205
  219MOL   H15844194   6.448   6.219   5.076 -2.1907  0.7755 -1.2659
  219MOL   H15944195   6.514   6.463   5.011 -0.5740 -1.8289  1.2356
  219MOL   H16044196   6.564   6.406   4.855  1.1993  2.3359  1.1403
  219MOL   H16144197   6.352   6.351   4.776 -0.3025  0.4336  0.0961
  219MOL   C16244198   6.266   6.483   4.891 -0.0377 -0.7814  0.1598
  219MOL   O16344199   6.275   6.566   4.987 -0.1709  0.2907 -0.1643
  219MOL   C16444200   6.141   6.475   4.802  0.0418 -0.8097 -0.1681
  219MOL   C16544201   6.039   6.583   4.826  0.5419 -0.3843  0.0240
  219MOL   N16644202   6.079   6.713   4.765  0.0953 -0.6268 -0.2978
  219MOL   H16744203   6.094   6.384   4.837 -0.3676 -0.1613  0.9825
  219MOL   H16844204   6.164   6.457   4.697 -0.8252 -0.7692 -0.3614
  219MOL   H16944205   5.938   6.560   4.793  0.1711  1.0176  0.1668
  219MOL   H17044206   6.025   6.590   4.933  1.2803  0.8001  0.0525
  219MOL   H17144207   6.119   6.776   4.833  1.8628 -2.6197  0.5824
  219MOL   C17244208   6.095   6.738   4.636  0.2055  0.0299  0.1672
  219MOL   O17344209   6.076   6.653   4.551  0.7270  0.1160  0.3661
  219MOL   C17444210   6.135   6.881   4.593 -0.3434  0.3127 -0.0862
  219MOL   C17544211   6.023   6.981   4.554 -0.2007 -0.3020  0.1990
  219MOL   N17644212   6.084   7.089   4.471 -0.6730  0.5562  0.1159
  219MOL   H17744213   6.177   6.858   4.495 -1.6751 -1.3856 -0.2746
  219MOL   H17844214   6.220   6.920   4.650  0.2245 -3.3898  1.8057
  219MOL   H17944215   5.936   6.933   4.509 -0.1398 -0.1993 -0.0272
  219MOL   H18044216   5.997   7.024   4.651  2.1666  1.6770  0.0201
  219MOL   H18144217   6.184   7.084   4.455 -1.1826 -2.2874 -2.6046
  219MOL   C18244218   6.025   7.207   4.441  0.9566  0.0230 -0.5044
  219MOL   O18344219   5.907   7.241   4.471 -0.1716  0.0220  0.5888
  219MOL   C18444220   6.113   7.309   4.366 -0.2066 -0.4304  0.6538
  219MOL   C18544221   6.053   7.361   4.235 -0.4784  0.4744  0.6952
  219MOL   N18644222   6.058   7.271   4.117 -0.3654  0.2626 -0.0714
  219MOL   H18744223   6.211   7.267   4.343 -1.0182 -1.2780 -1.4421
  219MOL   H18844224   6.121   7.393   4.434 -1.3956  0.0126  0.2632
  219MOL   H18944225   5.952   7.397   4.250 -0.3325  1.4450 -0.5465
  219MOL   H19044226   6.106   7.444   4.188 -1.5310  1.9317  1.9953
  219MOL   H19144227   6.140   7.256   4.061  0.0803 -0.6819  0.8157
  219MOL   C19244228   5.952   7.205   4.075 -0.6992 -0.4708  0.9315
  219MOL   O19344229   5.839   7.210   4.125 -0.4255 -0.1508  1.2609
  219MOL   C19444230   5.980   7.120   3.958  0.4918 -0.3680  0.7512
  219MOL   C19544231   5.961   7.190   3.822  0.6766  0.0854 -0.5048
  219MOL   N19644232   5.826   7.227   3.788 -0.1233 -0.8037 -0.4563
  219MOL   H19744233   6.084   7.091   3.969 -0.0760 -2.1263  1.7316
  219MOL   H19844234   5.910   7.038   3.976  1.7192 -1.7679 -0.7703
  219MOL   H19944235   6.016   7.284   3.824 -1.1264  1.1252  1.6434
  219MOL   H20044236   6.002   7.131   3.740  1.7470  1.2843 -0.8522
  219MOL   H20144237   5.771   7.244   3.871 -1.7689  0.4310 -1.7528
  219MOL   H20244238   5.766   7.165   3.735 -2.0216  0.7556 -0.2094
  220MOL     C144239   5.964   6.086   6.137  0.0704 -0.5991  0.5067
  220MOL     O244240   5.927   6.018   6.227  0.5375  0.6211 -0.0351
  220MOL     C344241   5.990   6.238   6.155  0.2250 -0.0247 -0.3556
  220MOL     C444242   6.129   6.282   6.105  0.7852  0.0332 -0.9265
  220MOL     N544243   6.241   6.258   6.204 -0.0125  0.2305 -0.1852
  220MOL     H644244   5.965   6.281   6.252  0.9795 -1.7740  0.6405
  220MOL     H744245   5.910   6.283   6.095 -0.8477 -2.9342 -1.1907
  220MOL     H844246   6.122   6.389   6.086  1.0848  0.5501  1.7691
  220MOL     H944247   6.151   6.249   6.003  3.1397 -2.5585  0.3527
  220MOL    H1044248   6.254   6.331   6.272  1.1348 -0.7158  0.6427
  220MOL    H1144249   5.977   6.050   6.035  0.8648  1.5662 -0.1895
  220MOL    C1244250   6.350   6.174   6.202 -0.0925  0.7870 -0.6812
  220MOL    O1344251   6.377   6.096   6.110  0.1780 -0.4461  0.1997
  220MOL    C1444252   6.446   6.177   6.323 -0.2891  0.4654 -0.0557
  220MOL    C1544253   6.593   6.152   6.289  0.2891 -0.1066 -0.6497
  220MOL    N1644254   6.653   6.264   6.216  0.3726  0.1239 -0.4433
  220MOL    H1744255   6.415   6.101   6.395  2.6888 -0.0961  0.6695
  220MOL    H1844256   6.440   6.266   6.385  0.3709  0.1674  0.4385
  220MOL    H1944257   6.652   6.152   6.380  1.2294  3.1084 -1.1844
  220MOL    H2044258   6.609   6.059   6.234 -1.0732 -0.3472 -0.6672
  220MOL    H2144259   6.599   6.334   6.167 -0.1142 -0.2118 -0.3884
  220MOL    C2244260   6.786   6.287   6.202  0.4566  0.6897 -0.3772
  220MOL    O2344261   6.872   6.215   6.244  0.2039 -0.6453  0.8297
  220MOL    C2444262   6.827   6.419   6.123  0.5335 -0.8585  0.0770
  220MOL    C2544263   6.947   6.388   6.021  0.2336 -0.0230  0.4059
  220MOL    N2644264   6.905   6.342   5.887  0.5000 -0.4153  0.2575
  220MOL    H2744265   6.877   6.477   6.201 -1.2082 -3.3698  3.1312
  220MOL    H2844266   6.742   6.473   6.081  0.6699 -1.1202 -0.5351
  220MOL    H2944267   7.016   6.473   6.014  0.8689 -0.4918  0.9023
  220MOL    H3044268   7.020   6.313   6.050  0.4758 -0.2235 -0.7141
  220MOL    H3144269   6.863   6.251   5.875 -1.0472  0.1919  0.8007
  220MOL    C3244270   6.937   6.409   5.774 -0.1443 -0.9812  0.2961
  220MOL    O3344271   6.975   6.529   5.772  0.1598 -0.2568 -0.4647
  220MOL    C3444272   6.906   6.328   5.640 -0.3804  0.7067  0.3928
  220MOL    C3544273   6.819   6.411   5.543 -0.0982  0.4540 -0.1301
  220MOL    N3644274   6.867   6.544   5.505  0.1848 -0.6344  0.2410
  220MOL    H3744275   6.857   6.232   5.656 -1.0264  0.9085 -0.3939
  220MOL    H3844276   7.002   6.299   5.597 -1.9683 -0.5667 -2.4098
  220MOL    H3944277   6.813   6.345   5.457 -1.8147 -0.1411  0.4177
  220MOL    H4044278   6.715   6.423   5.575 -0.6147 -2.6245 -0.4627
  220MOL    H4144279   6.945   6.575   5.561  0.0622  1.1309 -0.5260
  220MOL    C4244280   6.829   6.624   5.404  0.1089  0.4553  0.4822
  220MOL    O4344281   6.729   6.600   5.341  0.6236 -0.2207 -0.1368
  220MOL    C4444282   6.915   6.754   5.390  1.3070 -0.0044  0.1969
  220MOL    C4544283   6.863   6.849   5.287  0.1162  0.1752 -0.1373
  220MOL    N4644284   6.894   6.988   5.325 -0.1245  0.4022  0.0134
  220MOL    H4744285   6.934   6.802   5.486  1.1549 -0.7343  0.5933
  220MOL    H4844286   7.007   6.711   5.349  1.0911 -2.1863  1.9248
  220MOL    H4944287   6.902   6.837   5.186  0.1893  0.6681 -0.1674
  220MOL    H5044288   6.755   6.842   5.274  0.4526 -1.2547 -2.5469
  220MOL    H5144289   6.989   7.021   5.332 -0.6210  1.9949 -0.5187
  220MOL    C5244290   6.802   7.077   5.363 -0.4134 -0.5107 -0.4304
  220MOL    O5344291   6.682   7.062   5.351  0.3096 -0.1638 -0.0542
  220MOL    C5444292   6.858   7.205   5.414 -0.2084  0.2439  0.6948
  220MOL    C5544293   6.810   7.334   5.342  0.2704  0.0035 -0.7189
  220MOL    N5644294   6.881   7.448   5.398 -0.1332  0.2523  0.5591
  220MOL    H5744295   6.830   7.206   5.519 -0.0437 -0.1661  0.7415
  220MOL    H5844296   6.967   7.203   5.419 -0.2111 -0.4180  0.5049
  220MOL    H5944297   6.703   7.353   5.352  0.3868 -0.3906  1.5898
  220MOL    H6044298   6.841   7.329   5.238  0.0138 -2.1255 -0.7140
  220MOL    H6144299   6.916   7.430   5.491 -0.5216 -1.8979  0.3158
  220MOL    C6244300   6.906   7.566   5.337  0.7635 -0.0019  0.8166
  220MOL    O6344301   6.878   7.586   5.214  0.1776  0.8386  1.1432
  220MOL    C6444302   6.974   7.674   5.421  1.0464  0.5151  0.9310
  220MOL    C6544303   6.988   0.030   5.345  0.3239  0.2852 -0.2751
  220MOL    N6644304   6.969   0.139   5.434  0.6479  0.5964 -0.5117
  220MOL    H6744305   6.913   7.681   5.512  1.2358  1.7144  0.9630
  220MOL    H6844306   7.074   7.637   5.443  0.5227 -1.8053 -0.4604
  220MOL    H6944307   7.093   0.031   5.316  0.4250 -0.0809  0.0750
  220MOL    H7044308   6.911   0.049   5.269 -1.6900  0.0030  1.6419
  220MOL    H7144309   7.050   0.163   5.488  1.3590  1.8225 -2.1124
  220MOL    C7244310   6.856   0.211   5.444 -0.5199  0.7544 -0.0702
  220MOL    O7344311   6.743   0.176   5.395 -0.7230  0.0401  0.3231
  220MOL    C7444312   6.870   0.341   5.526  0.5612  0.9165 -0.1908
  220MOL    C7544313   6.753   0.441   5.528 -0.2145 -0.7387 -0.1735
  220MOL    N7644314   6.768   0.539   5.640  0.4062  0.8005 -0.3663
  220MOL    H7744315   6.883   0.307   5.629  1.3055  0.2899 -0.4841
  220MOL    H7844316   6.964   0.395   5.511 -0.6297  2.6970 -1.5092
  220MOL    H7944317   6.759   0.492   5.432  0.1169  0.6461  0.5725
  220MOL    H8044318   6.664   0.379   5.542 -1.1982  0.7847  0.4104
  220MOL    H8144319   6.782   0.635   5.612  4.1928 -0.2649 -2.5213
  220MOL    C8244320   6.742   0.516   5.772 -0.0400  0.0179  0.5113
  220MOL    O8344321   6.701   0.405   5.810 -0.2424  0.2927  0.1130
  220MOL    C8444322   6.755   0.626   5.872  0.4804 -0.0123 -0.3154
  220MOL    C8544323   6.628   0.662   5.959  1.1213 -0.8767  0.8128
  220MOL    N8644324   6.568   0.551   6.025 -0.3282  0.4470  0.4928
  220MOL    H8744325   6.842   0.592   5.929 -0.3443 -1.1206  0.3145
  220MOL    H8844326   6.782   0.718   5.821  0.1567  0.9520  1.2524
  220MOL    H8944327   6.658   0.739   6.030  1.2849 -0.1197 -0.0746
  220MOL    H9044328   6.556   0.708   5.892  2.5773  1.5521  0.8693
  220MOL    H9144329   6.510   0.485   5.974 -1.0247  0.5886  1.0987
  220MOL    C9244330   6.601   0.505   6.147  1.2767 -0.8150  0.1665
  220MOL    O9344331   6.681   0.567   6.217 -0.0498  0.1285  0.0708
  220MOL    C9444332   6.540   0.371   6.180 -0.4813  0.7547 -0.0428
  220MOL    C9544333   6.639   0.251   6.149  0.3987 -0.1803 -0.0991
  220MOL    N9644334   6.626   0.211   6.009  0.1318 -0.0973 -0.2158
  220MOL    H9744335   6.517   0.379   6.286 -0.1312  0.7187  0.0372
  220MOL    H9844336   6.442   0.359   6.134 -0.8457  4.4697 -0.4202
  220MOL    H9944337   6.742   0.273   6.176  0.8390  0.0435 -1.8601
  220MOL   H10044338   6.601   0.172   6.214  1.3023  1.0131  1.8974
  220MOL   H10144339   6.653   0.278   5.939 -2.0497  0.4209 -0.6062
  220MOL   C10244340   6.609   0.091   5.961  0.3630 -0.5224  0.7623
  220MOL   O10344341   6.600   7.770   6.026  0.7171  0.6868 -0.2678
  220MOL   C10444342   6.596   0.092   5.809  0.1444 -0.3910  0.3892
  220MOL   C10544343   6.493   7.777   5.756 -0.4240  0.7757  0.0704
  220MOL   N10644344   6.541   7.709   5.640 -0.1264  0.2240 -0.0350
  220MOL   H10744345   6.694   0.052   5.783  0.0916 -0.3199  0.0760
  220MOL   H10844346   6.588   0.187   5.756  2.5485 -1.5303 -2.1393
  220MOL   H10944347   6.483   7.700   5.832 -0.1786  0.3989 -0.2790
  220MOL   H11044348   6.393   0.040   5.751 -1.3711 -0.9500  2.6652
  220MOL   H11144349   6.625   7.655   5.658 -0.2841 -0.0599 -0.1548
  220MOL   C11244350   6.481   7.726   5.522 -0.7412  0.1022  0.9015
  220MOL   O11344351   6.375   7.779   5.520 -0.1299 -0.2163  0.8058
  220MOL   C11444352   6.552   7.674   5.392 -0.4874 -0.1146 -0.2359
  220MOL   C11544353   6.474   7.674   5.267 -0.2769  0.6386 -0.6790
  220MOL   N11644354   6.372   7.569   5.276 -0.1450 -0.8925 -0.2510
  220MOL   H11744355   6.590   7.578   5.426 -0.8878 -0.3173 -0.3639
  220MOL   H11844356   6.640   7.732   5.364 -1.8192  1.6221 -0.9277
  220MOL   H11944357   6.430   7.770   5.240 -0.3114  0.6974 -0.4142
  220MOL   H12044358   6.527   7.651   5.175 -0.2354 -0.5821 -0.3527
  220MOL   H12144359   6.397   7.493   5.337 -3.4731 -0.6030  1.6240
  220MOL   C12244360   6.243   7.582   5.226 -0.3731  0.8247 -0.1640
  220MOL   O12344361   6.208   7.676   5.157 -0.1088 -0.2637  0.5536
  220MOL   C12444362   6.152   7.460   5.261  1.0576 -0.1528  0.4395
  220MOL   C12544363   6.003   7.482   5.217  0.4387  0.1807 -0.7099
  220MOL   N12644364   5.900   7.394   5.283  0.0311  0.4020 -0.5424
  220MOL   H12744365   6.164   7.455   5.369 -2.2154  1.0211  0.8992
  220MOL   H12844366   6.193   7.367   5.221  1.6654 -1.3744  3.6933
  220MOL   H12944367   5.965   7.583   5.230  0.3057 -0.0171  0.4762
  220MOL   H13044368   5.998   7.462   5.110 -0.4386  0.7730 -0.7872
  220MOL   H13144369   5.892   7.296   5.258  0.6178  0.1076  0.4002
  220MOL   C13244370   5.820   7.436   5.382  0.7341 -0.1378  0.4330
  220MOL   O13344371   5.814   7.552   5.426  0.3091 -0.0948 -0.4003
  220MOL   C13444372   5.724   7.329   5.435  0.2436  0.7005  0.0914
  220MOL   C13544373   5.786   7.226   5.534  0.0433  0.0087  0.1626
  220MOL   N13644374   5.860   7.275   5.645 -0.2004  0.5448  0.0301
  220MOL   H13744375   5.680   7.271   5.354 -0.2172  0.9722  0.1449
  220MOL   H13844376   5.645   7.381   5.489 -0.0114  1.2158 -0.7723
  220MOL   H13944377   5.705   7.159   5.563 -0.9736  1.8008  1.5832
  220MOL   H14044378   5.843   7.149   5.483  0.4111 -0.3023  1.0368
  220MOL   H14144379   5.885   7.373   5.653  1.7789  0.3626 -3.1080
  220MOL   C14244380   5.899   7.199   5.748 -0.1635  0.7981 -0.2743
  220MOL   O14344381   5.885   7.074   5.743  0.1208  0.9342  0.2944
  220MOL   C14444382   5.970   7.255   5.869 -0.4164 -0.0890 -0.3239
  220MOL   C14544383   5.979   7.396   5.904 -0.3216 -0.9894 -0.4432
  220MOL   N14644384   6.068   7.472   5.818  1.1412  0.2680 -0.3757
  220MOL   H14744385   6.071   7.214   5.861 -0.9383 -1.3174 -0.7193
  220MOL   H14844386   5.930   7.206   5.958 -0.5357  0.3705 -0.1232
  220MOL   H14944387   5.880   7.443   5.903  0.0020 -0.3182 -1.0120
  220MOL   H15044388   6.018   7.402   6.005 -1.2834  1.0127 -0.1535
  220MOL   H15144389   6.166   7.481   5.840  0.8537 -2.2862  2.2380
  220MOL   C15244390   6.032   7.561   5.726  0.1665 -0.2237  0.6449
  220MOL   O15344391   5.912   7.580   5.702 -0.1365 -0.6658  0.3358
  220MOL   C15444392   6.135   7.639   5.653  0.2929  0.8135  0.1567
  220MOL   C15544393   6.094   0.003   5.634 -0.0458 -0.0719 -0.0329
  220MOL   N15644394   6.009   0.031   5.522  0.4112  0.0263  0.2137
  220MOL   H15744395   6.135   7.594   5.554 -1.1019  0.5477  0.2670
  220MOL   H15844396   6.232   7.643   5.703  0.0183 -0.3326  0.7848
  220MOL   H15944397   6.046   0.030   5.728  0.7929 -0.9185  0.6408
  220MOL   H16044398   6.180   0.069   5.627  0.5359 -0.8257  0.0114
  220MOL   H16144399   5.993   7.738   5.454  0.5747  1.0618 -0.9803
  220MOL   C16244400   5.964   0.155   5.493  0.6338 -0.2181  0.0244
  220MOL   O16344401   5.979   0.259   5.565  0.2058  0.1932 -0.2037
  220MOL   C16444402   5.891   0.163   5.360  0.0692 -0.0699  0.7274
  220MOL   C16544403   5.946   0.273   5.278  0.2865 -0.2311  0.3343
  220MOL   N16644404   6.091   0.242   5.242 -0.1517  0.2856  0.4817
  220MOL   H16744405   5.787   0.184   5.385 -0.3678 -1.0327 -0.2676
  220MOL   H16844406   5.898   0.067   5.309  2.5927  1.6936 -2.3777
  220MOL   H16944407   5.885   0.291   5.189 -1.6469 -0.1799  1.6365
  220MOL   H17044408   5.934   0.367   5.331  0.8764  0.1673 -0.2352
  220MOL   H17144409   6.127   0.155   5.279  0.3783 -0.0010 -0.6590
  220MOL   C17244410   6.169   0.346   5.201  0.0456  0.3633  0.4199
  220MOL   O17344411   6.125   0.460   5.181  0.1181  0.0466 -0.1857
  220MOL   C17444412   6.314   0.300   5.190 -0.8359 -0.3806  0.2609
  220MOL   C17544413   6.421   0.340   5.299 -0.0496 -0.5609 -0.0080
  220MOL   N17644414   6.376   0.297   5.434 -0.2530 -0.1944 -0.0979
  220MOL   H17744415   6.356   0.339   5.098  1.5101  1.1664  1.9467
  220MOL   H17844416   6.318   0.193   5.169 -1.4005 -0.6308  1.3646
  220MOL   H17944417   6.520   0.296   5.282 -0.1154 -0.2752 -1.1976
  220MOL   H18044418   6.439   0.447   5.291 -2.6677 -0.0005  1.1691
  220MOL   H18144419   6.411   0.208   5.466 -0.8747 -0.6993 -0.8143
  220MOL   C18244420   6.317   0.386   5.517 -0.3681 -0.6017  0.7407
  220MOL   O18344421   6.286   0.498   5.480 -0.2444  0.2537 -0.1797
  220MOL   C18444422   6.294   0.346   5.659 -0.1062 -0.5149 -0.4138
  220MOL   C18544423   6.377   0.444   5.755 -0.0472 -0.2657  0.3167
  220MOL   N18644424   6.293   0.508   5.861  0.1067  0.2447 -0.1534
  220MOL   H18744425   6.336   0.245   5.666  1.2470 -0.0537 -1.5713
  220MOL   H18844426   6.191   0.355   5.691 -0.4108  0.0034 -1.5276
  220MOL   H18944427   6.444   0.389   5.821 -1.3694  0.4660  2.3438
  220MOL   H19044428   6.439   0.520   5.708 -0.7216 -0.2437 -0.5520
  220MOL   H19144429   6.252   0.436   5.920  1.2931 -0.9151 -0.7163
  220MOL   C19244430   6.257   0.634   5.872  0.2119 -0.1241 -0.5795
  220MOL   O19344431   6.295   0.724   5.794  0.4640  0.4058  0.1703
  220MOL   C19444432   6.171   0.667   5.994 -0.7264  0.4182  0.2211
  220MOL   C19544433   6.075   0.781   5.984  0.8423  0.2052  0.6303
  220MOL   N19644434   6.126   0.913   6.011  0.1028 -0.3077 -0.0373
  220MOL   H19744435   6.101   0.583   5.989 -1.0909  0.8441 -1.8850
  220MOL   H19844436   6.226   0.665   6.089 -1.2199 -0.0028  0.4985
  220MOL   H19944437   6.015   0.785   5.893  3.0058  3.0730 -0.7592
  220MOL   H20044438   6.001   0.756   6.060 -1.3229  3.0875 -0.4106
  220MOL   H20144439   6.050   0.979   5.999 -1.4509 -1.8203  1.2606
  220MOL   H20244440   6.183   0.933   5.931 -0.5021  2.3848  0.1550
  221MOL     C144441   1.435   4.887   2.223 -0.2443 -0.5136  0.0232
  221MOL     O244442   1.382   4.884   2.111  0.7707  0.4140 -0.2175
  221MOL     C344443   1.415   5.001   2.323 -0.1167  0.4159  0.1196
  221MOL     C444444   1.547   5.054   2.383 -0.3849  0.5349  0.5302
  221MOL     N544445   1.600   4.968   2.490 -0.1932  0.1513  0.3726
  221MOL     H644446   1.344   4.974   2.402 -1.2640  0.6718 -0.8232
  221MOL     H744447   1.365   5.080   2.268 -0.9856 -2.1373 -2.9089
  221MOL     H844448   1.523   5.146   2.435  0.4549  2.1074 -1.7884
  221MOL     H944449   1.623   5.085   2.311 -1.0683 -0.3837 -0.5997
  221MOL    H1044450   1.550   4.980   2.577  0.8425  1.3976  0.8091
  221MOL    H1144451   1.505   4.813   2.261  2.1085  1.4968 -0.2635
  221MOL    C1244452   1.712   4.892   2.487 -0.0475  0.2848 -0.6648
  221MOL    O1344453   1.788   4.877   2.388  0.1903  0.3320 -0.4715
  221MOL    C1444454   1.751   4.823   2.625  0.3557 -0.7126  0.1464
  221MOL    C1544455   1.890   4.873   2.675 -1.0240 -0.0655 -0.5421
  221MOL    N1644456   1.951   4.793   2.780  0.0745 -0.6539 -0.1464
  221MOL    H1744457   1.744   4.715   2.609 -1.0508 -0.7624  1.0311
  221MOL    H1844458   1.676   4.846   2.700  0.8859  0.1090  0.4297
  221MOL    H1944459   1.963   4.896   2.597 -0.8076 -0.5363 -0.4790
  221MOL    H2044460   1.877   4.972   2.719  2.3494  0.1101  0.1191
  221MOL    H2144461   1.883   4.737   2.831  0.1245  0.3917  1.1093
  221MOL    C2244462   2.077   4.793   2.835  1.2097 -0.3636  0.4412
  221MOL    O2344463   2.163   4.858   2.779 -0.1637 -0.7082 -0.2149
  221MOL    C2444464   2.105   4.702   2.953 -0.0697  0.2832 -0.0702
  221MOL    C2544465   2.137   4.785   3.077  0.3739 -0.5029  0.2763
  221MOL    N2644466   2.016   4.849   3.127 -0.5923 -0.4192  1.0034
  221MOL    H2744467   2.182   4.631   2.926 -1.9411 -1.9913  0.4151
  221MOL    H2844468   2.019   4.637   2.969  1.2620 -1.3026  0.8387
  221MOL    H2944469   2.198   4.729   3.148  0.8672  1.3561  1.3463
  221MOL    H3044470   2.209   4.861   3.046  1.1877 -0.6722  1.7045
  221MOL    H3144471   1.979   4.913   3.059  0.0920 -0.9611  0.1147
  221MOL    C3244472   1.944   4.805   3.228  0.0587  0.2187  0.5647
  221MOL    O3344473   1.981   4.716   3.300 -0.1499 -0.3621 -0.2780
  221MOL    C3444474   1.793   4.845   3.234  1.2811  0.0588 -0.2161
  221MOL    C3544475   1.777   4.972   3.319 -0.1306 -0.1253  0.1786
  221MOL    N3644476   1.640   5.003   3.364  0.2473 -0.0399 -0.0681
  221MOL    H3744477   1.749   4.759   3.285 -0.1657  0.4463 -0.7769
  221MOL    H3844478   1.740   4.855   3.139  0.6719 -2.9998 -0.2483
  221MOL    H3944479   1.840   4.982   3.406 -0.8732  1.3678  0.5650
  221MOL    H4044480   1.807   5.053   3.253  1.2660 -1.4801 -0.8819
  221MOL    H4144481   1.618   5.028   3.459 -0.1979  1.9610 -0.6739
  221MOL    C4244482   1.543   5.032   3.275  0.5742 -0.6002 -0.6431
  221MOL    O4344483   1.555   5.030   3.153  0.5846  0.3405  0.0979
  221MOL    C4444484   1.401   5.056   3.321  0.4467  0.7259  0.8894
  221MOL    C4544485   1.343   4.926   3.387  0.4997 -0.1547  0.5711
  221MOL    N4644486   1.196   4.933   3.405  0.5899  0.4221 -0.2250
  221MOL    H4744487   1.386   5.145   3.383  0.6158  1.0911  0.4167
  221MOL    H4844488   1.350   5.087   3.230 -0.3707  0.2888  1.1962
  221MOL    H4944489   1.368   4.836   3.330  0.0334  1.2268 -1.9017
  221MOL    H5044490   1.387   4.908   3.485  1.8468 -1.7273 -0.2868
  221MOL    H5144491   1.159   4.936   3.499 -1.2948  0.2883 -0.9604
  221MOL    C5244492   1.121   4.904   3.298 -0.5503 -0.9567 -0.9963
  221MOL    O5344493   1.165   4.897   3.180 -0.1541 -0.1924  0.5988
  221MOL    C5444494   0.972   4.895   3.324 -0.0505  0.4752 -0.0837
  221MOL    C5544495   0.874   4.885   3.209  0.2499 -0.0433 -0.3221
  221MOL    N5644496   0.858   5.020   3.156  0.0526 -0.1428 -0.0795
  221MOL    H5744497   0.953   4.813   3.393  2.5236  0.0372  0.1343
  221MOL    H5844498   0.944   4.977   3.390  1.3005  0.9075 -0.0350
  221MOL    H5944499   0.778   4.850   3.246  1.1018  0.0533  2.0811
  221MOL    H6044500   0.904   4.810   3.136 -0.0813 -0.9620  0.4703
  221MOL    H6144501   0.870   5.097   3.220  1.1384  0.6332 -1.2052
  221MOL    C6244502   0.834   5.053   3.021 -0.6945 -0.0946 -0.6248
  221MOL    O6344503   0.832   4.974   2.927 -0.1305 -0.4015 -0.3487
  221MOL    C6444504   0.809   5.201   2.991 -0.3405 -0.0471 -0.0886
  221MOL    C6544505   0.915   5.270   2.915  0.1900 -0.0974 -0.2458
  221MOL    N6644506   0.912   5.414   2.914  0.0924  0.4380 -0.1240
  221MOL    H6744507   0.717   5.199   2.933 -0.5358 -1.2694  0.2680
  221MOL    H6844508   0.775   5.260   3.076 -2.0585 -0.7768 -0.2689
  221MOL    H6944509   1.010   5.233   2.953  1.1827  0.7469 -1.8006
  221MOL    H7044510   0.901   5.239   2.811  1.3744  0.0595 -0.4687
  221MOL    H7144511   0.822   5.455   2.935 -0.4103 -0.2405 -0.8966
  221MOL    C7244512   0.992   5.476   2.834  0.7525  0.0138  0.3364
  221MOL    O7344513   1.084   5.420   2.770 -0.3847  0.3223  0.0854
  221MOL    C7444514   0.970   5.621   2.821 -0.1414  0.0044 -0.0999
  221MOL    C7544515   1.080   5.699   2.754 -0.0210  0.2682 -0.5731
  221MOL    N7644516   1.063   5.722   2.616  0.5899  0.4317  0.9105
  221MOL    H7744517   0.879   5.659   2.775  1.2267  1.1725 -1.9109
  221MOL    H7844518   0.968   5.653   2.925 -1.2756  0.6699 -0.3272
  221MOL    H7944519   1.096   5.794   2.803  1.7220  1.7334 -3.8148
  221MOL    H8044520   1.176   5.649   2.768 -0.1796 -0.1320 -0.8767
  221MOL    H8144521   0.970   5.723   2.576  0.7345  0.8759  0.5865
  221MOL    C8244522   1.156   5.756   2.526 -0.4766  0.2486 -0.2847
  221MOL    O8344523   1.279   5.747   2.551  0.0546 -0.3889  0.0510
  221MOL    C8444524   1.112   5.775   2.380 -0.9934  0.6523 -0.0882
  221MOL    C8544525   1.205   5.710   2.277 -0.1529  0.7394  0.5255
  221MOL    N8644526   1.143   5.726   2.147  0.3601 -0.0704 -0.5680
  221MOL    H8744527   1.007   5.746   2.370 -0.8190  0.0487 -0.2149
  221MOL    H8844528   1.116   5.882   2.361  2.3118  0.2216 -2.1358
  221MOL    H8944529   1.307   5.744   2.263  0.0941 -1.2461 -2.7999
  221MOL    H9044530   1.204   5.603   2.296 -1.5392  0.4801 -0.8714
  221MOL    H9144531   1.180   5.801   2.090  1.7995  0.1530  0.6431
  221MOL    C9244532   1.053   5.649   2.080  0.2126 -0.3049  0.3020
  221MOL    O9344533   1.007   5.543   2.126  0.4583 -0.4861  0.3745
  221MOL    C9444534   1.021   5.689   1.939  0.6874  0.3875 -0.1370
  221MOL    C9544535   0.975   5.566   1.862 -0.3545  0.2315 -0.4784
  221MOL    N9644536   0.910   5.627   1.747  0.4408  0.7514 -0.1051
  221MOL    H9744537   0.950   5.770   1.952  1.2267  0.8603 -0.0731
  221MOL    H9844538   1.111   5.727   1.889 -0.1025 -0.2219 -2.0600
  221MOL    H9944539   1.064   5.516   1.824  0.0064  0.2344  0.3617
  221MOL   H10044540   0.914   5.492   1.915  0.2007 -0.9575 -1.4487
  221MOL   H10144541   0.959   5.626   1.659 -0.1841 -0.3556 -0.4373
  221MOL   C10244542   0.783   5.669   1.740  0.6582 -0.2635 -0.3244
  221MOL   O10344543   0.702   5.656   1.833 -0.0648  0.4304 -0.2143
  221MOL   C10444544   0.741   5.735   1.610  0.9251 -0.2961  0.0103
  221MOL   C10544545   0.684   5.882   1.624  0.4459  0.1225 -0.4824
  221MOL   N10644546   0.572   5.892   1.717 -0.2040  0.3911 -0.1923
  221MOL   H10744547   0.663   5.668   1.573 -0.2764  0.9812  0.2044
  221MOL   H10844548   0.818   5.725   1.533 -1.7704  0.0306 -2.8186
  221MOL   H10944549   0.759   5.948   1.668 -0.4791  0.2675  0.9112
  221MOL   H11044550   0.663   5.932   1.529 -0.0064  2.2652  0.7243
  221MOL   H11144551   0.582   5.845   1.806  0.0675  0.9391  0.0732
  221MOL   C11244552   0.455   5.958   1.711 -0.3944  0.2800  0.7231
  221MOL   O11344553   0.418   6.023   1.615  0.4051 -0.3804 -0.5929
  221MOL   C11444554   0.358   5.948   1.829 -1.2881  0.0519 -0.0891
  221MOL   C11544555   0.215   5.929   1.780  0.2433  0.1980 -0.1635
  221MOL   N11644556   0.119   5.894   1.885  0.1944  0.3532  0.6371
  221MOL   H11744557   0.369   6.035   1.893 -0.2119  2.1467 -3.0160
  221MOL   H11844558   0.388   5.856   1.880  2.5403 -0.1062 -2.4452
  221MOL   H11944559   0.176   6.010   1.719  0.7615 -1.4360 -2.7618
  221MOL   H12044560   0.209   5.841   1.716 -0.0783 -0.9384  1.3889
  221MOL   H12144561   0.066   5.809   1.871 -1.3295  1.0847  1.8091
  221MOL   C12244562   0.076   5.977   1.982  0.4978  0.3917  0.8398
  221MOL   O12344563   0.114   6.093   1.985  0.1637 -0.0700 -0.7511
  221MOL   C12444564   7.750   5.931   2.075  0.6021  0.1469  0.1507
  221MOL   C12544565   7.685   6.044   2.160 -0.0189  0.1932  0.0834
  221MOL   N12644566   7.577   6.103   2.085 -0.0408  0.2120 -0.4639
  221MOL   H12744567   0.024   5.872   2.149  1.2155  1.4634  0.7666
  221MOL   H12844568   7.679   5.864   2.027 -1.2473  1.5037  0.9366
  221MOL   H12944569   7.641   5.989   2.243 -0.8894 -0.2041 -0.6416
  221MOL   H13044570   7.754   6.121   2.198 -2.1725  3.0107 -1.5238
  221MOL   H13144571   7.574   6.086   1.985  0.0449 -0.7920 -0.2963
  221MOL   C13244572   7.461   6.145   2.145  0.2858 -0.1910  0.2569
  221MOL   O13344573   7.465   6.178   2.261  0.0303 -0.5765 -0.0984
  221MOL   C13444574   7.324   6.122   2.071 -0.2575 -0.6715  0.2853
  221MOL   C13544575   7.249   6.003   2.136 -0.2254  0.9338 -0.3653
  221MOL   N13644576   7.310   5.871   2.119 -0.2270  0.7576 -0.5293
  221MOL   H13744577   7.348   6.113   1.965 -0.3646 -0.2631  0.2283
  221MOL   H13844578   7.255   6.204   2.085 -1.0347 -1.3443  0.4425
  221MOL   H13944579   7.250   6.021   2.243  0.8031  2.2037 -0.5802
  221MOL   H14044580   7.147   6.001   2.097  0.3901  0.1279 -1.9952
  221MOL   H14144581   7.327   5.825   2.208 -3.0920 -0.7489 -0.6875
  221MOL   C14244582   7.317   5.807   1.997 -0.2102 -0.0534  0.1009
  221MOL   O14344583   7.266   5.845   1.891 -0.2212 -0.3562  0.0349
  221MOL   C14444584   7.379   5.675   1.997 -0.9846  0.6259  0.0144
  221MOL   C14544585   7.494   5.658   1.892  0.1403 -0.6682 -0.1452
  221MOL   N14644586   7.591   5.554   1.922  0.0041  0.6359 -0.3328
  221MOL   H14744587   7.303   5.598   1.984  0.8574 -1.0146 -1.4102
  221MOL   H14844588   7.415   5.661   2.099 -2.3573  1.0669  0.5716
  221MOL   H14944589   7.443   5.644   1.796  1.3499 -2.1892 -0.5807
  221MOL   H15044590   7.545   5.754   1.890  1.2851 -1.2824 -2.4658
  221MOL   H15144591   7.559   5.473   1.973  0.3910  1.3560  1.0938
  221MOL   C15244592   7.720   5.568   1.887 -0.0393  0.1725 -0.3923
  221MOL   O15344593   7.763   5.666   1.827 -0.5038 -0.0200  0.0072
  221MOL   C15444594   0.032   5.458   1.929  0.2097  0.2009 -0.2383
  221MOL   C15544595   0.177   5.511   1.959 -0.2290 -0.4986 -0.4057
  221MOL   N15644596   0.191   5.590   2.084 -0.4411  0.2049 -0.0102
  221MOL   H15744597   0.041   5.391   1.843  4.0180  0.9496 -0.5124
  221MOL   H15844598   7.776   5.395   2.009  0.4853  0.3390 -0.0017
  221MOL   H15944599   0.244   5.425   1.955  1.0771  0.4559  0.5808
  221MOL   H16044600   0.204   5.578   1.877  0.4576  0.0618  0.2754
  221MOL   H16144601   0.209   5.689   2.072  0.4462 -0.1284 -1.4850
  221MOL   C16244602   0.202   5.539   2.207  0.7332 -0.4733 -0.0451
  221MOL   O16344603   0.188   5.416   2.228 -0.0009  0.5660  0.0717
  221MOL   C16444604   0.222   5.641   2.317  0.5858  0.6373  0.7405
  221MOL   C16544605   0.224   5.585   2.455 -0.6459  0.4825  0.4402
  221MOL   N16644606   0.344   5.517   2.479  0.1568  0.5261 -0.0041
  221MOL   H16744607   0.134   5.705   2.310 -1.4590 -2.1873 -0.0316
  221MOL   H16844608   0.315   5.696   2.302 -0.0186  1.6436  0.6273
  221MOL   H16944609   0.208   5.666   2.526  1.1036 -1.2952  2.9374
  221MOL   H17044610   0.143   5.517   2.482  1.1919 -2.0546 -0.2560
  221MOL   H17144611   0.347   5.416   2.474 -0.5497  0.4248  1.3297
  221MOL   C17244612   0.456   5.581   2.514  0.6615  0.3350 -0.6079
  221MOL   O17344613   0.458   5.705   2.518 -0.2922  0.2929 -0.1115
  221MOL   C17444614   0.557   5.505   2.600  0.0185 -0.3543 -0.2649
  221MOL   C17544615   0.590   5.581   2.730 -0.4049  0.0409  0.9071
  221MOL   N17644616   0.487   5.566   2.836 -0.0954 -0.1964  0.3611
  221MOL   H17744617   0.647   5.488   2.541 -0.9582 -0.6410 -1.6812
  221MOL   H17844618   0.524   5.404   2.621 -1.1453  0.2981  1.2007
  221MOL   H17944619   0.684   5.534   2.760  0.3721  0.9170 -0.0957
  221MOL   H18044620   0.624   5.681   2.702 -3.7921  0.6310 -1.2439
  221MOL   H18144621   0.400   5.614   2.817  0.3557 -0.4333 -2.5522
  221MOL   C18244622   0.487   5.479   2.938  0.0179  0.3094 -0.7193
  221MOL   O18344623   0.591   5.417   2.980 -0.0228 -0.2933 -0.1465
  221MOL   C18444624   0.354   5.458   3.013  0.2494 -0.7050 -0.5097
  221MOL   C18544625   0.333   5.332   3.097  1.2296  0.0086  0.1770
  221MOL   N18644626   0.196   5.315   3.140 -0.1294  0.2687  0.4234
  221MOL   H18744627   0.271   5.475   2.944  2.1708  1.6722 -2.3108
  221MOL   H18844628   0.342   5.543   3.081 -1.0911 -0.9411 -0.4274
  221MOL   H18944629   0.369   5.244   3.043 -1.5588 -1.1937  0.2117
  221MOL   H19044630   0.393   5.343   3.187  2.4330  0.4229 -0.6576
  221MOL   H19144631   0.132   5.260   3.083  0.0626 -1.7562  2.1095
  221MOL   C19244632   0.139   5.363   3.251  0.1659 -0.1537 -0.2330
  221MOL   O19344633   0.202   5.429   3.332  0.3991 -0.7146  0.1147
  221MOL   C19444634   0.000   5.325   3.271  0.2361 -0.2871 -0.2722
  221MOL   C19544635   7.680   5.440   3.300  0.2389 -0.4442  0.4139
  221MOL   N19644636   7.659   5.513   3.174  0.3516  0.1599 -1.0597
  221MOL   H19744637   7.746   5.270   3.184 -2.3290  0.5867  0.1421
  221MOL   H19844638   0.002   5.252   3.352  2.9397  0.6529  0.5876
  221MOL   H19944639   7.583   5.404   3.334 -0.3918  0.2829 -0.6025
  221MOL   H20044640   7.718   5.512   3.373 -3.8092  1.8630  0.4140
  221MOL   H20144641   7.586   5.580   3.190 -0.0769 -0.8065  1.3346
  221MOL   H20244642   7.742   5.565   3.148  1.2047 -1.7659 -2.3558
  222MOL     C144643   5.187   0.486   7.242  0.1489  0.0030 -0.6498
  222MOL     O244644   5.291   0.534   7.199 -0.4806 -0.3049 -0.3985
  222MOL     C344645   5.063   0.573   7.250  0.2954 -0.3143 -0.0740
  222MOL     C444646   4.970   0.528   7.361  1.1862  0.1130  0.2858
  222MOL     N544647   5.032   0.552   7.488  0.4108 -0.2765 -0.2219
  222MOL     H644648   5.004   0.557   7.160  1.0919  1.9717 -1.0397
  222MOL     H744649   5.074   0.681   7.253  0.3947 -0.3486  0.8831
  222MOL     H844650   4.944   0.422   7.363  0.6286  0.2643  2.9034
  222MOL     H944651   4.884   0.594   7.363  0.0320 -1.3419 -0.2951
  222MOL    H1044652   5.101   0.626   7.488 -0.3279  0.4118 -0.3602
  222MOL    H1144653   5.167   0.382   7.270  0.1954 -0.1776 -1.2859
  222MOL    C1244654   4.978   0.504   7.601 -0.1961 -0.0830 -0.1849
  222MOL    O1344655   4.881   0.435   7.600 -0.1958 -0.1061 -0.0579
  222MOL    C1444656   5.044   0.551   7.736 -0.1754  0.3833  0.2234
  222MOL    C1544657   5.129   0.445   0.032  1.1868  0.3446  0.3187
  222MOL    N1644658   5.044   0.322   0.062  0.4004  0.0053  0.0121
  222MOL    H1744659   4.953   0.574   0.012 -1.5421 -1.5861 -1.1002
  222MOL    H1844660   5.091   0.650   7.727  1.8211 -0.5680 -0.0713
  222MOL    H1944661   5.214   0.420   7.750  0.1655  0.3341 -1.0900
  222MOL    H2044662   5.170   0.485   0.125  0.4451 -0.5580  1.0435
  222MOL    H2144663   4.971   0.317   0.132  2.2011  2.7717  2.2135
  222MOL    C2244664   5.053   0.206   7.768 -0.0722 -0.8534  0.1984
  222MOL    O2344665   5.129   0.196   7.674  0.0100  0.3816  0.4274
  222MOL    C2444666   4.954   0.099   0.020 -0.4055  0.0925 -0.2099
  222MOL    C2544667   4.845   0.086   7.692  0.0354 -0.0636  0.0075
  222MOL    N2644668   4.883   0.080   7.549  0.0548  0.5299 -0.7320
  222MOL    H2744669   4.909   0.104   0.120  0.2880  0.4000  0.0896
  222MOL    H2844670   5.005   0.003   0.028 -1.1190 -0.2274  0.6035
  222MOL    H2944671   4.778   0.004   7.721 -0.7899  0.3648 -0.6541
  222MOL    H3044672   4.779   0.172   7.697  0.7374  0.4834 -0.1881
  222MOL    H3144673   4.983   0.080   7.539  0.3133 -1.0814  1.4999
  222MOL    C3244674   4.813   0.094   7.440  0.7195  0.6869  0.5556
  222MOL    O3344675   4.689   0.083   7.440  0.1385 -0.5007  0.3834
  222MOL    C3444676   4.905   0.111   7.317  0.5733 -0.2209 -0.0805
  222MOL    C3544677   4.836   0.084   7.185  0.0756 -0.2685  0.1789
  222MOL    N3644678   4.766   0.206   7.139 -0.0102  0.0246 -0.2542
  222MOL    H3744679   4.982   0.034   7.331 -2.7299 -3.6286  0.1133
  222MOL    H3844680   4.961   0.204   7.316  0.2002  0.0488  1.8221
  222MOL    H3944681   4.906   0.039   7.114 -1.2352 -0.5290 -0.9732
  222MOL    H4044682   4.760   0.006   7.189 -0.4160  0.2082  0.3000
  222MOL    H4144683   4.668   0.214   7.165 -0.0361 -0.0960 -0.3154
  222MOL    C4244684   4.825   0.307   7.081  0.4049 -0.4545  0.6465
  222MOL    O4344685   4.948   0.309   7.070 -0.0391  0.2044 -0.1160
  222MOL    C4444686   4.744   0.425   7.029  0.5985 -0.0610 -0.3470
  222MOL    C4544687   4.807   0.492   6.908 -0.2088 -0.1833 -0.3890
  222MOL    N4644688   4.726   0.608   6.878  0.2977  0.3923  0.0697
  222MOL    H4744689   4.650   0.372   7.014 -0.0799  0.5623  1.5339
  222MOL    H4844690   4.740   0.494   7.113  0.3065  0.3932 -0.7294
  222MOL    H4944691   4.911   0.521   6.929 -0.5852  0.0044  1.2747
  222MOL    H5044692   4.801   0.427   6.821  0.3542  0.2662 -0.7735
  222MOL    H5144693   4.627   0.587   6.885  0.1614  1.0482  0.1098
  222MOL    C5244694   4.774   0.730   6.864  0.0095 -0.2272 -0.3888
  222MOL    O5344695   4.896   0.747   6.870  0.3192  0.1211  0.5670
  222MOL    C5444696   4.681   0.844   6.822  0.0914 -0.0212  0.1811
  222MOL    C5544697   4.669   0.952   6.923  0.0241 -0.3405  0.0109
  222MOL    N5644698   4.788   1.005   6.991  0.2919  0.1148  0.0670
  222MOL    H5744699   4.719   0.880   6.726  3.9583 -2.1441  0.7976
  222MOL    H5844700   4.586   0.799   6.793 -0.0278  1.1435 -1.3094
  222MOL    H5944701   4.601   0.915   7.000  0.5886  0.3643  0.8656
  222MOL    H6044702   4.617   1.036   6.877 -0.1718 -0.4906 -0.0401
  222MOL    H6144703   4.792   0.960   7.081 -1.1046  0.7229  0.4487
  222MOL    C6244704   4.891   1.070   6.939  0.2419 -0.2014  0.0091
  222MOL    O6344705   4.873   1.117   6.831  0.3437  0.0884  0.4627
  222MOL    C6444706   5.014   1.085   7.020 -0.2734 -0.3026  0.0120
  222MOL    C6544707   5.144   1.037   6.953 -0.9779  0.8664 -0.5426
  222MOL    N6644708   5.141   0.895   6.924 -0.3858 -0.0823  0.6223
  222MOL    H6744709   5.019   1.189   7.051  0.1288 -0.3887  0.2464
  222MOL    H6844710   5.010   1.032   7.115  0.0523  1.3971  1.0062
  222MOL    H6944711   5.162   1.099   6.865 -0.6664 -0.1046 -1.1723
  222MOL    H7044712   5.223   1.048   7.027 -0.4534 -2.9960 -0.4431
  222MOL    H7144713   5.050   0.856   6.903 -0.3200 -0.9248  1.8449
  222MOL    C7244714   5.244   0.810   6.900 -0.2422  0.4970  0.2503
  222MOL    O7344715   5.359   0.854   6.898 -0.3931  0.1011  0.6659
  222MOL    C7444716   5.219   0.660   6.872  0.0774 -0.2886  0.1023
  222MOL    C7544717   5.347   0.581   6.837  0.2867 -0.2727  0.1516
  222MOL    N7644718   5.347   0.453   6.907 -0.0261  0.1512  0.0134
  222MOL    H7744719   5.170   0.627   6.963 -2.2342  1.4715 -0.4729
  222MOL    H7844720   5.152   0.651   6.787 -1.0546 -1.0515  1.0686
  222MOL    H7944721   5.346   0.557   6.731  2.2357  1.6991 -0.3441
  222MOL    H8044722   5.443   0.627   6.859 -0.1750  0.9139 -0.2822
  222MOL    H8144723   5.329   0.446   7.006 -0.2755 -0.4609 -0.0718
  222MOL    C8244724   5.375   0.334   6.853  0.5408  0.1464 -1.2855
  222MOL    O8344725   5.378   0.308   6.732  0.0568  0.4897  0.3543
  222MOL    C8444726   5.408   0.221   6.952 -0.3862  0.3913  0.1767
  222MOL    C8544727   5.410   0.079   6.883 -0.3737  0.0292  0.8303
  222MOL    N8644728   5.272   0.045   6.849  0.3472 -0.5216 -0.0286
  222MOL    H8744729   5.508   0.252   6.984 -0.5412 -0.0989  1.1478
  222MOL    H8844730   5.336   0.226   7.033  0.7382  3.6263  1.0182
  222MOL    H8944731   5.487   0.071   6.806 -0.3989  0.9682  0.6928
  222MOL    H9044732   5.454   0.009   6.954 -1.5763 -1.3539  0.2288
  222MOL    H9144733   5.229   0.089   6.769 -1.3722  0.1275  1.2213
  222MOL    C9244734   5.203   7.728   6.916  0.8262 -0.4226 -0.1427
  222MOL    O9344735   5.249   7.657   7.005  0.0090  0.2748  0.1591
  222MOL    C9444736   5.066   7.696   6.859 -0.2253  0.8584 -0.1021
  222MOL    C9544737   5.032   7.550   6.884 -0.0417 -0.1424  0.2383
  222MOL    N9644738   4.902   7.513   6.825  0.0571  0.6706  0.1803
  222MOL    H9744739   4.993   7.761   6.908 -1.6755 -0.5555 -0.3775
  222MOL    H9844740   5.055   7.719   6.753 -0.2767  3.5968  0.4364
  222MOL    H9944741   5.111   7.495   6.832 -1.0837 -0.6939 -0.8155
  222MOL   H10044742   5.033   7.538   6.992 -0.5165 -0.7277  0.1869
  222MOL   H10144743   4.828   7.576   6.849 -0.2041  0.2383  0.5219
  222MOL   C10244744   4.877   7.390   6.788 -0.1688  0.6501 -0.4260
  222MOL   O10344745   4.967   7.315   6.771 -0.1069  0.5150  0.2458
  222MOL   C10444746   4.736   7.349   6.749  0.2393 -0.1909  0.1700
  222MOL   C10544747   4.731   7.248   6.630  0.3160  0.5570  0.6417
  222MOL   N10644748   4.761   7.109   6.665  0.3404 -0.2495 -0.2498
  222MOL   H10744749   4.687   7.446   6.734 -1.2963 -0.9821  0.0023
  222MOL   H10844750   4.684   7.314   6.839  0.4153  1.2545  0.8594
  222MOL   H10944751   4.624   7.243   6.610  0.9562 -2.1875 -2.4367
  222MOL   H11044752   4.783   7.294   6.546 -1.1703 -0.3340 -0.7731
  222MOL   H11144753   4.834   7.058   6.619  2.2000  1.2024  0.9938
  222MOL   C11244754   4.702   7.029   6.758 -0.0849 -0.1185  0.8158
  222MOL   O11344755   4.602   7.069   6.820 -0.4587  0.1274  0.4477
  222MOL   C11444756   4.751   6.888   6.778 -0.1506  0.2824 -0.3505
  222MOL   C11544757   4.854   6.870   6.892  0.4802  0.1052 -0.2996
  222MOL   N11644758   4.801   6.856   7.021  0.1786 -0.6867  0.1734
  222MOL   H11744759   4.787   6.835   6.689  0.2406  1.9534 -1.2047
  222MOL   H11844760   4.663   6.829   6.805  1.3898 -1.3234  1.3328
  222MOL   H11944761   4.902   6.773   6.872 -0.2580 -1.0005  2.9940
  222MOL   H12044762   4.940   6.935   6.877 -0.2637  1.1746  0.0944
  222MOL   H12144763   4.737   6.781   7.042 -1.2406  0.6698  0.8143
  222MOL   C12244764   4.818   6.949   7.113 -0.6457 -0.3297  0.0268
  222MOL   O12344765   4.899   7.045   7.091 -0.6966  0.0652 -0.0823
  222MOL   C12444766   4.753   6.933   7.251  0.9076 -0.1244  0.3750
  222MOL   C12544767   4.739   7.062   7.330  0.9112  0.2573  0.0669
  222MOL   N12644768   4.635   7.067   7.432  0.1645  0.5151  0.0125
  222MOL   H12744769   4.793   6.854   7.314 -1.4337  0.1883  2.3329
  222MOL   H12844770   4.654   6.898   7.223  0.2478  1.5213  0.5494
  222MOL   H12944771   4.831   7.078   7.386  0.6482  0.9761  0.2999
  222MOL   H13044772   4.714   7.145   7.264  0.5139 -0.6638 -0.9599
  222MOL   H13144773   4.645   7.008   7.513  0.1759 -0.4410 -0.6778
  222MOL   C13244774   4.541   7.149   7.443  0.9547 -0.1862 -0.8124
  222MOL   O13344775   4.520   7.237   7.356  0.2148 -0.0493  0.2589
  222MOL   C13444776   4.453   7.150   7.570  0.0524  0.2403  0.1695
  222MOL   C13544777   4.449   7.281   7.651  0.2940 -0.0293 -0.3904
  222MOL   N13644778   4.394   7.396   7.576 -0.3239 -0.2685  0.7615
  222MOL   H13744779   4.492   7.069   7.632  1.0075  0.4039 -0.2056
  222MOL   H13844780   4.350   7.134   7.539  0.1019  0.7264 -0.2412
  222MOL   H13944781   4.371   7.257   7.723 -1.8387 -0.5633 -2.8501
  222MOL   H14044782   4.534   7.302   7.717  1.7940 -2.6814 -1.3708
  222MOL   H14144783   4.403   7.398   7.476 -1.5838 -0.2915  0.6305
  222MOL   C14244784   4.343   7.507   7.625 -0.6372  0.1159 -0.1833
  222MOL   O14344785   4.337   7.529   7.748  0.0139  0.5906  0.7302
  222MOL   C14444786   4.305   7.620   7.533 -0.4835 -0.0913  0.1184
  222MOL   C14544787   4.412   7.740   7.535 -0.5824 -0.0817 -0.6891
  222MOL   N14644788   4.395   0.046   7.653 -0.4921  0.2241 -0.2741
  222MOL   H14744789   4.209   7.647   7.576 -0.2416 -1.3692  1.5209
  222MOL   H14844790   4.299   7.580   7.431 -2.3213 -0.2122  0.2581
  222MOL   H14944791   4.513   7.699   7.540 -1.1485 -1.2344  2.2298
  222MOL   H15044792   4.412   0.015   7.441  1.6869 -0.8483 -1.1616
  222MOL   H15144793   4.440   0.009   7.736 -3.3148  1.5810  1.9750
  222MOL   C15244794   4.298   0.142   7.671  0.1818  0.2943 -0.4660
  222MOL   O15344795   4.226   0.181   7.583 -0.3429  0.4322 -0.4282
  222MOL   C15444796   4.286   0.201   0.037 -0.3059 -0.5368  0.0452
  222MOL   C15544797   4.195   0.124   0.136 -0.3622  0.6096 -0.0760
  222MOL   N15644798   4.256   7.779   0.166 -0.0530 -0.1608 -0.4645
  222MOL   H15744799   4.251   0.302   0.016  1.5497 -0.1521 -1.3199
  222MOL   H15844800   4.389   0.201   0.072 -0.4383  0.9031  0.4790
  222MOL   H15944801   4.194   0.189   0.224  0.1913 -2.7411  2.5353
  222MOL   H16044802   4.095   0.118   0.095 -0.7469 -2.7744  1.1634
  222MOL   H16144803   4.351   7.755   0.140  0.1592 -0.1834  0.3151
  222MOL   C16244804   4.204   7.684   0.245  0.0313 -0.1563  0.3349
  222MOL   O16344805   4.084   7.682   0.265  0.3587  0.1123 -0.1053
  222MOL   C16444806   4.294   7.562   0.280  0.2205  1.1749 -0.8589
  222MOL   C16544807   4.218   7.430   0.280  0.2983  0.4614 -0.1294
  222MOL   N16644808   4.176   7.386   0.149  0.1014 -0.1466 -0.3671
  222MOL   H16744809   4.348   7.567   0.375  2.1678 -1.2437 -1.7599
  222MOL   H16844810   4.382   7.556   0.216  0.7465  0.9897 -0.1259
  222MOL   H16944811   4.295   7.354   0.297  0.4743  0.6066 -0.2791
  222MOL   H17044812   4.142   7.434   0.358  1.5260 -0.3863  1.1358
  222MOL   H17144813   4.215   7.447   0.079 -2.7857  0.8312 -1.1756
  222MOL   C17244814   4.078   7.295   0.117 -0.1064  0.1482 -0.1982
  222MOL   O17344815   4.027   7.216   0.200 -0.5335 -0.3243 -0.1294
  222MOL   C17444816   4.037   7.278   7.744  0.2294 -0.0127 -0.4734
  222MOL   C17544817   3.922   7.180   7.716 -0.2791 -0.6652 -0.1162
  222MOL   N17644818   3.871   7.192   7.580 -0.2566 -0.2259  0.5916
  222MOL   H17744819   4.124   7.236   7.694  0.1276 -0.4285 -0.2995
  222MOL   H17844820   4.020   7.380   7.708  0.2650  0.3565  0.5399
  222MOL   H17944821   3.940   7.073   7.729 -0.2785 -0.9847 -2.4316
  222MOL   H18044822   3.847   7.205   0.011  1.2684  0.3745  1.1033
  222MOL   H18144823   3.770   7.202   7.574 -0.1364  0.7596  0.2523
  222MOL   C18244824   3.912   7.151   7.466 -0.3306 -0.5040  0.1063
  222MOL   O18344825   4.027   7.103   7.446 -0.2325  0.7013 -0.5239
  222MOL   C18444826   3.816   7.170   7.352  1.4763 -0.1782  0.7205
  222MOL   C18544827   3.878   7.165   7.216 -0.0807  0.8496  0.1671
  222MOL   N18644828   3.976   7.270   7.180 -0.4406 -0.5342 -0.0038
  222MOL   H18744829   3.777   7.271   7.357  1.2757 -0.1303 -1.6571
  222MOL   H18844830   3.742   7.090   7.351  1.8342 -0.5544 -2.7040
  222MOL   H18944831   3.933   7.073   7.193 -1.1555  0.4293 -0.7656
  222MOL   H19044832   3.796   7.167   7.144 -0.5054  0.6307  0.6490
  222MOL   H19144833   4.071   7.238   7.173 -0.8027 -1.1699 -2.4737
  222MOL   C19244834   3.932   7.391   7.147 -0.0818 -0.1163 -0.1358
  222MOL   O19344835   3.817   7.433   7.142 -0.0401 -0.0203  0.2320
  222MOL   C19444836   4.043   7.479   7.082 -0.1451 -0.0528  0.0358
  222MOL   C19544837   4.024   7.625   7.123  0.4190 -0.7327  0.8686
  222MOL   N19644838   4.112   7.721   7.047 -0.3191  0.3712  0.0302
  222MOL   H19744839   4.139   7.433   7.107 -2.4384 -4.5435  1.0297
  222MOL   H19844840   4.025   7.461   6.976 -2.5072 -1.6218  0.6804
  222MOL   H19944841   3.922   7.664   7.116  0.2634 -0.9242  1.9700
  222MOL   H20044842   4.044   7.646   7.228  2.5894  0.4018  0.2552
  222MOL   H20144843   4.143   7.667   6.967  0.0348 -1.8678  1.6282
  222MOL   H20244844   4.047   0.008   7.010 -0.4178 -0.9963 -2.3846
  223MOL     C144845   5.243   7.426   2.337 -0.9058 -0.0365  0.7472
  223MOL     O244846   5.138   7.464   2.291  0.0949 -0.0520  0.2203
  223MOL     C344847   5.309   7.300   2.272 -0.1297 -0.4023  0.8968
  223MOL     C444848   5.387   7.341   2.145  0.3492  0.0469  0.4717
  223MOL     N544849   5.475   7.233   2.099  0.0026  0.0189  0.6018
  223MOL     H644850   5.236   7.226   2.239 -0.8560  0.5786  0.2890
  223MOL     H744851   5.372   7.253   2.348 -0.4696 -2.2175  0.0843
  223MOL     H844852   5.457   7.424   2.159 -0.3001  0.2959  2.4800
  223MOL     H944853   5.323   7.380   2.066 -1.6807 -1.5864  1.2648
  223MOL    H1044854   5.533   7.189   2.169  0.2677 -2.3408 -1.0487
  223MOL    H1144855   5.299   7.476   2.416  0.4514 -0.0009 -0.2244
  223MOL    C1244856   5.483   7.192   1.978  0.1080 -0.3089  0.6847
  223MOL    O1344857   5.428   7.254   1.887 -0.3166  0.0570 -0.5037
  223MOL    C1444858   5.554   7.057   1.948  0.0110  0.1049 -0.3332
  223MOL    C1544859   5.474   6.951   1.875  0.0131 -0.3154  0.3220
  223MOL    N1644860   5.374   6.884   1.956  0.1435 -0.7453 -0.4837
  223MOL    H1744861   5.588   7.010   2.040  0.4672 -0.5723 -0.8414
  223MOL    H1844862   5.645   7.080   1.893  0.0721 -1.1647 -0.7928
  223MOL    H1944863   5.432   6.990   1.782 -3.3169 -1.1803  1.3610
  223MOL    H2044864   5.540   6.869   1.848  0.4061 -1.1792  3.6173
  223MOL    H2144865   5.281   6.923   1.956 -0.1990 -1.5591 -0.5080
  223MOL    C2244866   5.390   6.781   2.035  0.0133  0.3625  0.3527
  223MOL    O2344867   5.501   6.736   2.052  0.0369  0.3049  0.7297
  223MOL    C2444868   5.285   6.741   2.136  0.4568 -0.5078  0.0496
  223MOL    C2544869   5.205   6.617   2.101  0.0028 -0.0221  0.0526
  223MOL    N2644870   5.116   6.636   1.988  0.1227 -0.1692  0.0615
  223MOL    H2744871   5.223   6.831   2.140  0.4152 -0.6173  2.3376
  223MOL    H2844872   5.337   6.725   2.230  3.0851  0.8845 -1.1252
  223MOL    H2944873   5.278   6.537   2.096  2.1041  1.8092  1.0277
  223MOL    H3044874   5.156   6.590   2.194  1.1683 -0.3752  0.5727
  223MOL    H3144875   5.042   6.703   2.006 -2.1275 -1.9213 -2.1885
  223MOL    C3244876   5.088   6.545   1.896 -0.6642  0.4953  0.3967
  223MOL    O3344877   5.172   6.463   1.859  0.3097  0.3115 -0.6890
  223MOL    C3444878   4.958   6.550   1.826 -0.0892  0.2041 -0.0280
  223MOL    C3544879   4.833   6.508   1.913 -0.8083 -0.1972 -0.0696
  223MOL    N3644880   4.813   6.595   2.031 -0.3051  0.4808 -0.2335
  223MOL    H3744881   4.972   6.488   1.738  1.7794  0.4689  0.0498
  223MOL    H3844882   4.946   6.652   1.788  1.3056  0.9493  1.4614
  223MOL    H3944883   4.739   6.489   1.861 -0.6101 -0.0436 -0.4909
  223MOL    H4044884   4.849   6.416   1.969 -0.9202  0.0922  0.4378
  223MOL    H4144885   4.832   6.551   2.120 -1.8110 -2.7441 -1.4282
  223MOL    C4244886   4.737   6.700   2.041  0.0488  0.8387 -0.0090
  223MOL    O4344887   4.684   6.742   1.939 -0.2348 -0.6280  0.3752
  223MOL    C4444888   4.703   6.762   2.176  0.9074 -0.0788 -0.2560
  223MOL    C4544889   4.796   6.881   2.218 -0.3622  0.2999  0.0568
  223MOL    N4644890   4.912   6.855   2.294 -0.6159  0.0020  0.1095
  223MOL    H4744891   4.609   6.811   2.149  1.5293 -0.3262 -3.0742
  223MOL    H4844892   4.674   6.697   2.258  0.4026  1.4459  0.7937
  223MOL    H4944893   4.810   6.943   2.130 -0.5381  0.1099 -0.1058
  223MOL    H5044894   4.732   6.940   2.284 -2.2372 -1.1930 -0.3890
  223MOL    H5144895   4.939   6.758   2.305  1.2795  0.1775 -2.5177
  223MOL    C5244896   4.987   6.946   2.349 -0.5182  0.5374 -0.5977
  223MOL    O5344897   4.972   7.067   2.330  0.0043 -1.1314 -0.1203
  223MOL    C5444898   5.109   6.888   2.431 -0.0474  0.0806  0.5959
  223MOL    C5544899   5.206   6.999   2.455  0.2469 -0.3349 -0.1139
  223MOL    N5644900   5.338   6.955   2.507  0.1274  0.0509  0.1186
  223MOL    H5744901   5.078   6.837   2.523  1.0185  0.6583  1.2870
  223MOL    H5844902   5.162   6.826   2.359  1.6685  1.9269  0.2140
  223MOL    H5944903   5.171   7.081   2.518  0.1964 -0.4323 -0.0158
  223MOL    H6044904   5.232   7.040   2.357  0.7587 -0.0839  0.1267
  223MOL    H6144905   5.340   6.931   2.605 -0.3749  2.1326  0.6762
  223MOL    C6244906   5.442   6.923   2.428  0.2466 -0.4135  0.4454
  223MOL    O6344907   5.452   6.968   2.312  0.0307 -0.1683  0.1472
  223MOL    C6444908   5.546   6.821   2.484 -0.0168  0.5286 -0.1982
  223MOL    C6544909   5.686   6.838   2.425  0.1337 -0.3623 -0.0007
  223MOL    N6644910   5.705   6.791   2.291 -0.1965 -0.2276  0.1967
  223MOL    H6744911   5.548   6.820   2.593 -0.4988 -4.2170 -0.1257
  223MOL    H6844912   5.506   6.724   2.457 -0.1650  0.4379  0.3430
  223MOL    H6944913   5.705   6.945   2.416 -1.2376  0.0044  1.2189
  223MOL    H7044914   5.767   6.785   2.475  0.3310  0.0907  0.1611
  223MOL    H7144915   5.623   6.771   2.234  2.4133 -1.9279 -3.1306
  223MOL    C7244916   5.823   6.794   2.226  0.2447  0.1799  0.2198
  223MOL    O7344917   5.926   6.841   2.275 -0.4494 -0.2175  0.0963
  223MOL    C7444918   5.832   6.742   2.088 -0.1249 -0.4059  0.0981
  223MOL    C7544919   5.837   6.589   2.087 -0.0214  0.6908 -0.0815
  223MOL    N7644920   5.706   6.542   2.087  0.0824 -0.3187  0.4007
  223MOL    H7744921   5.754   6.776   2.020  1.3900  0.2716 -1.3172
  223MOL    H7844922   5.920   6.778   2.036  1.3971 -3.0523  0.7791
  223MOL    H7944923   5.885   6.540   2.003 -0.3271 -0.7290  0.5472
  223MOL    H8044924   5.886   6.538   2.170 -0.9187  1.3920  0.9073
  223MOL    H8144925   5.629   6.605   2.067  1.7838  1.9206  0.8035
  223MOL    C8244926   5.667   6.425   2.134  0.2301 -0.4746  0.2423
  223MOL    O8344927   5.740   6.334   2.168 -0.1171  0.4162 -0.3829
  223MOL    C8444928   5.520   6.404   2.144  0.9512  0.1527  0.0476
  223MOL    C8544929   5.466   6.260   2.135  0.3895 -0.7983  0.0100
  223MOL    N8644930   5.498   6.195   2.007  0.0523 -0.3007 -0.2679
  223MOL    H8744931   5.496   6.449   2.240  0.9063  1.2845 -0.4795
  223MOL    H8844932   5.466   6.456   2.064 -1.0062 -3.4551 -1.0949
  223MOL    H8944933   5.491   6.191   2.215 -0.8943  0.5733  1.6249
  223MOL    H9044934   5.358   6.266   2.144  0.3471  0.2970 -1.0192
  223MOL    H9144935   5.572   6.229   1.947  0.9247 -1.1540  0.3068
  223MOL    C9244936   5.452   6.070   1.986  0.1981  0.3401  0.5947
  223MOL    O9344937   5.359   6.019   2.044  0.1934 -0.1005 -0.1562
  223MOL    C9444938   5.536   5.980   1.896  0.4075 -0.5021  0.2658
  223MOL    C9544939   5.465   5.851   1.846  0.3517 -0.4668 -0.4922
  223MOL    N9644940   5.445   5.747   1.950 -0.2853  0.0720 -0.0978
  223MOL    H9744941   5.562   6.037   1.807  1.3446 -0.6722  0.4256
  223MOL    H9844942   5.631   5.966   1.947  0.5536 -0.2863  0.0581
  223MOL    H9944943   5.371   5.865   1.792  0.2749 -2.0865 -0.8012
  223MOL   H10044944   5.524   5.811   1.764 -0.3447  1.5291 -2.0016
  223MOL   H10144945   5.408   5.767   2.042 -0.7731 -3.1138  0.4916
  223MOL   C10244946   5.458   5.613   1.931  0.6518  0.3388  0.0865
  223MOL   O10344947   5.490   5.567   1.824  0.0999  0.5430 -0.1086
  223MOL   C10444948   5.446   5.524   2.053 -0.3051  0.2054 -0.7928
  223MOL   C10544949   5.345   5.408   2.038  0.3302 -0.2719 -0.1118
  223MOL   N10644950   5.358   5.311   2.145  0.2639 -0.1450  0.8728
  223MOL   H10744951   5.431   5.589   2.139  0.8379  1.8602 -1.8251
  223MOL   H10844952   5.541   5.470   2.053 -1.3439 -1.6447 -1.7605
  223MOL   H10944953   5.243   5.443   2.024  0.0557 -0.6777  0.8361
  223MOL   H11044954   5.366   5.353   1.946  1.2165  0.8264 -0.5911
  223MOL   H11144955   5.447   5.264   2.155  0.1955 -0.2831  0.8412
  223MOL   C11244956   5.264   5.296   2.237 -0.7264 -0.0603 -0.2129
  223MOL   O11344957   5.171   5.377   2.253 -0.2598  0.0466 -0.2949
  223MOL   C11444958   5.292   5.189   2.344 -0.2623 -0.5364 -0.4038
  223MOL   C11544959   5.316   5.053   2.283  0.3620  0.4352 -0.1532
  223MOL   N11644960   5.454   4.999   2.301  0.0064  0.7117 -0.0014
  223MOL   H11744961   5.203   5.175   2.406 -0.2198 -0.4743 -0.3280
  223MOL   H11844962   5.371   5.217   2.414 -2.4367 -1.5194  2.5944
  223MOL   H11944963   5.229   4.990   2.299  2.1956 -1.7896  1.3807
  223MOL   H12044964   5.307   5.055   2.174 -0.4495  1.9449 -0.0670
  223MOL   H12144965   5.533   5.054   2.272  0.8420 -0.5481 -0.1685
  223MOL   C12244966   5.471   4.881   2.356  0.5110  0.1410 -0.4560
  223MOL   O12344967   5.369   4.816   2.386 -0.4253 -0.3469 -0.2514
  223MOL   C12444968   5.605   4.829   2.383 -0.5722 -0.1263  0.3331
  223MOL   C12544969   5.624   4.739   2.510 -0.4794 -0.0238 -0.5423
  223MOL   N12644970   5.765   4.721   2.538 -0.4802  0.5612  0.2814
  223MOL   H12744971   5.668   4.917   2.378 -0.7425  0.0422  1.0990
  223MOL   H12844972   5.642   4.765   2.303  0.7950 -0.9573  1.6035
  223MOL   H12944973   5.567   4.777   2.594  0.1576  1.7820 -0.8988
  223MOL   H13044974   5.576   4.645   2.481 -2.1410  0.4847  0.5084
  223MOL   H13144975   5.784   4.625   2.565 -4.3656 -1.1844 -2.5917
  223MOL   C13244976   5.856   4.819   2.552  0.6988 -0.0879 -0.4192
  223MOL   O13344977   5.834   4.938   2.541 -0.3374  0.2520  0.0300
  223MOL   C13444978   5.991   4.766   2.607  0.5260 -0.4517 -0.1192
  223MOL   C13544979   6.108   4.863   2.625  0.8042  0.2378 -0.4070
  223MOL   N13644980   6.087   4.952   2.742 -0.1064  0.5192 -0.7142
  223MOL   H13744981   6.020   4.681   2.546 -0.8519 -0.6091 -0.5639
  223MOL   H13844982   5.971   4.721   2.705 -2.8269  3.3679  1.0719
  223MOL   H13944983   6.199   4.803   2.630  1.0393  0.6370  0.1642
  223MOL   H14044984   6.116   4.931   2.540 -0.1908 -0.1021 -0.7829
  223MOL   H14144985   6.004   4.954   2.799  0.3581 -0.7511  0.0250
  223MOL   C14244986   6.170   5.055   2.782 -0.3487  0.7327  0.2808
  223MOL   O14344987   6.281   5.072   2.733 -0.3636  0.1123 -0.1325
  223MOL   C14444988   6.113   5.150   2.890 -0.2184  0.8124  0.6704
  223MOL   C14544989   6.204   5.271   2.920  0.2283 -0.0283 -0.0367
  223MOL   N14644990   6.162   5.346   3.048  0.2705  0.0818 -0.2803
  223MOL   H14744991   6.092   5.079   2.969  0.5472  0.0608  0.2052
  223MOL   H14844992   6.014   5.193   2.873 -0.1922  1.4957  2.1783
  223MOL   H14944993   6.310   5.248   2.933  0.0402  0.6491  3.2426
  223MOL   H15044994   6.194   5.340   2.836 -0.5786 -0.0139  0.0665
  223MOL   H15144995   6.134   5.295   3.130 -0.6893  1.9633  0.5994
  223MOL   C15244996   6.201   5.471   3.075  0.1556 -0.4300  0.6848
  223MOL   O15344997   6.276   5.540   3.001  0.6863 -0.7429 -0.1603
  223MOL   C15444998   6.143   5.534   3.199 -0.1698  0.7956 -0.1896
  223MOL   C15544999   6.239   5.507   3.320 -0.4441 -0.9862 -0.0860
  223MOL   N15645000   6.191   5.419   3.423 -0.3765  0.0922  0.1551
  223MOL   H15745001   6.046   5.487   3.216  0.4241  0.3826  2.2094
  223MOL   H15845002   6.129   5.642   3.186 -1.2724  0.7234  0.3847
  223MOL   H15945003   6.339   5.483   3.285  0.0634 -1.5961  1.7654
  223MOL   H16045004   6.251   5.603   3.371  1.3963 -0.9340 -0.5768
  223MOL   H16145005   6.139   5.463   3.498 -1.5350 -0.6170 -0.2142
  223MOL   C16245006   6.179   5.287   3.414  1.2375  0.1946 -0.3294
  223MOL   O16345007   6.216   5.219   3.321 -0.6706 -0.8588 -0.3039
  223MOL   C16445008   6.115   5.218   3.537 -0.2070 -0.0653 -0.6600
  223MOL   C16545009   6.214   5.186   3.651 -0.5977  0.0473  0.3788
  223MOL   N16645010   6.210   5.280   3.767  0.2541  0.2688 -0.5712
  223MOL   H16745011   6.064   5.128   3.502 -1.6089  0.7250 -0.6654
  223MOL   H16845012   6.030   5.276   3.572  0.0253  0.0170 -0.2348
  223MOL   H16945013   6.209   5.082   3.682  2.0550 -1.1469 -2.9423
  223MOL   H17045014   6.315   5.186   3.610 -0.2420  0.1473  1.2373
  223MOL   H17145015   6.266   5.363   3.753  1.4016 -0.6411 -1.4306
  223MOL   C17245016   6.161   5.250   3.892 -0.5014  0.4447  0.1509
  223MOL   O17345017   6.113   5.143   3.919  0.4723  0.2726  0.1699
  223MOL   C17445018   6.186   5.354   4.009  0.0734 -0.4993  0.2766
  223MOL   C17545019   6.297   5.319   4.105 -0.8684  0.3736 -0.0554
  223MOL   N17645020   6.354   5.430   4.181 -0.3135 -0.1040  0.8890
  223MOL   H17745021   6.101   5.379   4.072 -0.7120  1.0702 -1.3818
  223MOL   H17845022   6.189   5.448   3.953 -0.6104 -1.0266 -0.6531
  223MOL   H17945023   6.272   5.245   4.181 -1.8148 -0.9663 -1.6369
  223MOL   H18045024   6.390   5.286   4.058  0.3224  0.3049  2.2787
  223MOL   H18145025   6.327   5.451   4.276 -4.5809  2.2425 -0.7200
  223MOL   C18245026   6.438   5.519   4.123 -0.1604 -0.4114 -0.5194
  223MOL   O18345027   6.460   5.524   4.003 -0.4879 -0.4153  0.9056
  223MOL   C18445028   6.497   5.622   4.215  0.3388 -0.2317 -0.2130
  223MOL   C18545029   6.465   5.772   4.176  0.5965  0.2814 -0.9860
  223MOL   N18645030   6.564   5.814   4.081 -0.0411 -0.1024  0.1527
  223MOL   H18745031   6.605   5.610   4.223  0.3845  0.9619  1.1696
  223MOL   H18845032   6.459   5.604   4.316 -1.6601  0.4596 -0.8212
  223MOL   H18945033   6.361   5.788   4.150  0.9519  1.7620 -1.5241
  223MOL   H19045034   6.465   5.823   4.272  0.2354  1.5384 -1.6575
  223MOL   H19145035   6.618   5.738   4.043 -2.0873 -1.4830 -0.0695
  223MOL   C19245036   6.583   5.943   4.060 -0.5155  0.4623  0.4327
  223MOL   O19345037   6.513   6.031   4.104 -0.0890  0.0950  0.1243
  223MOL   C19445038   6.705   5.972   3.965 -0.1063 -0.1261  0.3217
  223MOL   C19545039   6.813   6.047   4.045  0.3055  0.0364 -0.1859
  223MOL   N19645040   6.900   5.972   4.134 -0.7100  0.2773 -0.4150
  223MOL   H19745041   6.750   5.882   3.924 -1.8265 -2.3048  2.9953
  223MOL   H19845042   6.679   6.052   3.897  0.2930  0.0692  0.3958
  223MOL   H19945043   6.873   6.098   3.971  0.0468  2.8725  1.4794
  223MOL   H20045044   6.779   6.129   4.108 -0.6801 -1.3996  1.2011
  223MOL   H20145045   6.926   5.879   4.106 -0.4851  0.3846 -0.5640
  223MOL   H20245046   6.853   5.936   4.215  1.5669 -1.3590  0.2507
  224MOL     C145047   5.666   1.747   0.106  0.3826  0.3299 -0.7789
  224MOL     O245048   5.564   1.810   0.073 -0.1621  0.1672 -0.2105
  224MOL     C345049   5.784   1.830   0.146 -0.3089  0.4149  0.4712
  224MOL     C445050   5.754   1.939   0.256  0.2276  0.0275  1.0030
  224MOL     N545051   5.712   1.876   0.385  0.3313  0.1262  0.2088
  224MOL     H645052   5.813   1.886   0.057  0.0875  0.6920  0.7753
  224MOL     H745053   5.865   1.761   0.172 -1.5853 -1.7565 -1.1384
  224MOL     H845054   5.667   1.997   0.223  0.4383  0.3004  0.9258
  224MOL     H945055   5.846   1.992   0.282  1.1041 -0.9343 -0.1254
  224MOL    H1045056   5.652   1.795   0.381  2.2940 -1.4607  2.1973
  224MOL    H1145057   5.673   1.638   0.104  0.7419  0.2603  1.9795
  224MOL    C1245058   5.709   1.937   0.510  0.1331  0.7160 -0.6339
  224MOL    O1345059   5.746   2.048   0.526 -0.0468  0.3854 -0.1048
  224MOL    C1445060   5.640   1.860   0.621 -0.7014  0.2084  0.2846
  224MOL    C1545061   5.714   1.860   0.757 -0.3022  0.0551  0.2650
  224MOL    N1645062   5.840   1.787   0.760  0.0255 -0.0882  0.3485
  224MOL    H1745063   5.584   1.769   0.595 -0.1563  0.2126 -0.9321
  224MOL    H1845064   5.556   1.925   0.645  0.4447  1.5542  0.6389
  224MOL    H1945065   5.739   1.964   0.779 -0.0826 -0.2206  1.3893
  224MOL    H2045066   5.648   1.814   0.830 -2.0287 -1.2834 -2.0864
  224MOL    H2145067   5.927   1.837   0.744  0.8992 -2.0167 -1.1900
  224MOL    C2245068   5.858   1.657   0.774 -0.3623  0.4467  0.8914
  224MOL    O2345069   5.761   1.581   0.780  0.3171 -0.4070 -0.3485
  224MOL    C2445070   6.003   1.598   0.772  0.1878  0.0367  0.8695
  224MOL    C2545071   6.020   1.460   0.700 -0.1543 -0.3334 -0.1732
  224MOL    N2645072   6.078   1.360   0.782 -0.0761  0.2520  0.1027
  224MOL    H2745073   6.026   1.600   0.878  1.8604  0.1961  0.5209
  224MOL    H2845074   6.081   1.662   0.732  0.1809 -0.9470 -0.7912
  224MOL    H2945075   5.923   1.413   0.679  0.3984 -0.8818 -1.5354
  224MOL    H3045076   6.061   1.476   0.601  0.7630 -1.1527  0.0598
  224MOL    H3145077   6.017   1.279   0.783  0.9804 -0.6182  4.4188
  224MOL    C3245078   6.208   1.355   0.817 -0.1711 -1.0543  0.2429
  224MOL    O3345079   6.290   1.445   0.799  0.3320  0.1952 -0.0025
  224MOL    C3445080   6.244   1.238   0.897 -0.3657 -0.3892  0.0145
  224MOL    C3545081   6.384   1.175   0.882 -0.2529  0.0800 -0.0010
  224MOL    N3645082   6.393   1.061   0.780  0.0028 -0.2467 -0.1754
  224MOL    H3745083   6.170   1.159   0.892 -2.7402  1.7294  0.8141
  224MOL    H3845084   6.255   1.281   0.997  2.1294  1.0907 -0.8268
  224MOL    H3945085   6.468   1.243   0.867  1.0451 -1.5303 -0.1388
  224MOL    H4045086   6.419   1.133   0.976  2.9849 -0.9798 -1.6058
  224MOL    H4145087   6.330   0.984   0.791 -0.9610  0.1722 -2.5602
  224MOL    C4245088   6.486   1.048   0.682 -0.1398 -0.3931 -0.2494
  224MOL    O4345089   6.571   1.132   0.668 -0.1595 -0.2303  0.0555
  224MOL    C4445090   6.493   0.909   0.614  0.2838  0.4670 -0.2244
  224MOL    C4545091   6.615   0.887   0.519  0.4170  0.0291 -0.3953
  224MOL    N4645092   6.593   0.932   0.383  0.2739 -0.3917  0.7478
  224MOL    H4745093   6.492   0.848   0.704 -1.2508  0.8067  0.0154
  224MOL    H4845094   6.399   0.898   0.559 -0.3766 -1.2902  1.2141
  224MOL    H4945095   6.695   0.941   0.569 -0.0746  0.1257  0.2905
  224MOL    H5045096   6.640   0.781   0.521  0.0254 -0.0553  0.5100
  224MOL    H5145097   6.520   1.001   0.367 -0.2754 -0.9508  0.8010
  224MOL    C5245098   6.671   0.898   0.280 -0.2942 -0.1161 -0.1986
  224MOL    O5345099   6.766   0.820   0.289  0.7013  0.2813 -0.1113
  224MOL    C5445100   6.632   0.969   0.148  0.4088  0.4181 -0.0513
  224MOL    C5545101   6.571   0.862   0.049  0.2448 -0.9309  0.3255
  224MOL    N5645102   6.578   0.923   7.695 -0.7140 -0.5448  0.5138
  224MOL    H5745103   6.551   1.040   0.165 -0.3414 -0.2437 -0.8607
  224MOL    H5845104   6.719   1.012   0.100  0.4772  2.2253  1.6069
  224MOL    H5945105   6.469   0.825   0.065 -0.4903  2.0913  3.2675
  224MOL    H6045106   6.640   0.778   0.047  0.7179 -0.5904  1.8786
  224MOL    H6145107   6.496   0.968   7.657  0.2440  0.8923  0.0832
  224MOL    C6245108   6.690   0.921   7.618 -0.0419 -0.6724 -0.5103
  224MOL    O6345109   6.796   0.858   7.654  0.0171  0.2498 -0.1093
  224MOL    C6445110   6.686   0.999   7.487  0.4860 -0.2944 -0.2470
  224MOL    C6545111   6.709   0.899   7.365  0.6301 -0.0253  0.0593
  224MOL    N6645112   6.644   0.951   7.245 -0.6243  0.0450 -0.0151
  224MOL    H6745113   6.596   1.059   7.472  1.0656  0.9091  0.9327
  224MOL    H6845114   6.766   1.073   7.495 -0.2368  0.3027  1.6665
  224MOL    H6945115   6.816   0.887   7.347  0.6742 -0.4733  0.6323
  224MOL    H7045116   6.669   0.802   7.392  0.4365  0.1768  0.4977
  224MOL    H7145117   6.674   1.045   7.224  1.0891 -0.5534 -0.3294
  224MOL    C7245118   6.542   0.899   7.182 -0.2294  0.3871  0.3112
  224MOL    O7345119   6.508   0.785   7.215 -0.6833  0.5089  0.9165
  224MOL    C7445120   6.455   0.986   7.092  0.0661  0.8542  0.1120
  224MOL    C7545121   6.306   0.992   7.126 -0.3930  0.5040 -0.5380
  224MOL    N7645122   6.283   1.068   7.247 -0.0902  0.2581  0.0586
  224MOL    H7745123   6.500   1.082   7.068  1.4640  0.2301  0.2308
  224MOL    H7845124   6.466   0.928   7.000 -1.0003 -2.2412  1.8328
  224MOL    H7945125   6.248   1.042   7.048  1.1711  1.4317 -1.1265
  224MOL    H8045126   6.255   0.896   7.120 -0.2274  0.1833  2.4157
  224MOL    H8145127   6.310   1.015   7.329 -0.3721 -0.7807 -0.5047
  224MOL    C8245128   6.284   1.202   7.255  0.9078  0.2873 -0.7260
  224MOL    O8345129   6.255   1.276   7.162  0.1529  0.3758  0.3660
  224MOL    C8445130   6.325   1.266   7.389  0.1041  1.2787 -0.2536
  224MOL    C8545131   6.467   1.330   7.391 -0.1580  0.0966 -0.2047
  224MOL    N8645132   6.488   1.426   7.497 -0.0765  0.1163 -0.0476
  224MOL    H8745133   6.252   1.345   7.405 -1.8719 -0.7110  0.9333
  224MOL    H8845134   6.322   1.195   7.472  0.3438  1.7289  0.1421
  224MOL    H8945135   6.550   1.259   7.390  1.1789  1.6359  0.6313
  224MOL    H9045136   6.475   1.376   7.293 -1.8601 -0.1785 -0.4893
  224MOL    H9145137   6.512   1.382   7.584 -2.3324 -0.7747  0.1483
  224MOL    C9245138   6.462   1.554   7.496  0.3924 -0.7260 -0.1659
  224MOL    O9345139   6.441   1.624   7.391  0.0846 -0.8046 -0.1415
  224MOL    C9445140   6.477   1.632   7.626  0.1923  0.1657  0.1467
  224MOL    C9545141   6.587   1.745   7.617  0.2458  0.0378  0.0932
  224MOL    N9645142   6.615   1.813   7.734  0.6306 -0.4800 -0.5107
  224MOL    H9745143   6.380   1.681   7.642  0.7309  1.8359 -1.5237
  224MOL    H9845144   6.492   1.554   7.700 -0.2836  0.4717  0.5731
  224MOL    H9945145   6.677   1.700   7.576  0.2260 -1.2468  1.4310
  224MOL   H10045146   6.558   1.820   7.543  1.3329 -0.5888 -0.9949
  224MOL   H10145147   6.605   1.914   7.732  2.7262 -0.2697 -1.7878
  224MOL   C10245148   6.678   1.767   0.068 -0.5782  0.4997 -0.4479
  224MOL   O10345149   6.726   1.651   0.061 -0.1707  0.1296 -0.3017
  224MOL   C10445150   6.672   1.851   0.192  0.1608  0.1850 -0.5756
  224MOL   C10545151   6.584   1.803   0.311 -0.2838  0.0814  0.6365
  224MOL   N10645152   6.440   1.841   0.290 -0.5831  0.4029  1.0905
  224MOL   H10745153   6.646   1.952   0.163 -2.6925 -0.6581 -1.1261
  224MOL   H10845154   6.772   1.855   0.237 -0.5233  0.7586  0.9449
  224MOL   H10945155   6.592   1.695   0.324 -0.2770  0.0536  0.4020
  224MOL   H11045156   6.604   1.839   0.412 -0.7368 -1.9618  1.4907
  224MOL   H11145157   6.405   1.935   0.303 -3.0020 -0.3084  0.0810
  224MOL   C11245158   6.344   1.753   0.296  0.0597  0.5785 -0.2083
  224MOL   O11345159   6.363   1.630   0.297  0.1762 -0.8108  0.1719
  224MOL   C11445160   6.201   1.813   0.305  0.2514  0.4868 -0.8821
  224MOL   C11545161   6.135   1.811   0.443 -0.5370  0.2313  0.0983
  224MOL   N11645162   6.226   1.860   0.545 -0.1639  0.4589  0.3750
  224MOL   H11745163   6.134   1.763   0.235 -1.0345 -0.8244  1.2572
  224MOL   H11845164   6.200   1.916   0.267 -0.6921 -0.0711 -2.4233
  224MOL   H11945165   6.047   1.875   0.452 -0.9788 -0.2856 -0.5978
  224MOL   H12045166   6.092   1.714   0.470  0.0145 -0.0807 -0.1476
  224MOL   H12145167   6.325   1.846   0.532 -0.2648  0.5699 -0.5568
  224MOL   C12245168   6.194   1.906   0.666 -0.4260 -0.4396  0.1240
  224MOL   O12345169   6.075   1.915   0.697 -0.4884  0.0398 -0.8030
  224MOL   C12445170   6.305   1.930   0.773  0.4000 -0.1316 -0.9981
  224MOL   C12545171   6.343   1.807   0.857  0.1408 -0.3941  0.1545
  224MOL   N12645172   6.403   1.693   0.792  0.1359  0.1932 -0.0214
  224MOL   H12745173   6.254   2.003   0.837 -1.0419 -1.0217 -1.1063
  224MOL   H12845174   6.389   1.989   0.737  0.4833  0.8488  0.7757
  224MOL   H12945175   6.426   1.833   0.922  2.5226  1.4938 -3.4812
  224MOL   H13045176   6.261   1.760   0.912  0.0165 -0.4583 -0.0840
  224MOL   H13145177   6.370   1.602   0.822 -1.1498 -0.0167 -1.9872
  224MOL   C13245178   6.504   1.684   0.701  0.6569  0.3441  0.7140
  224MOL   O13345179   6.558   1.780   0.650  0.0746  0.2661  0.0172
  224MOL   C13445180   6.555   1.542   0.675  0.4385 -0.0180 -0.4806
  224MOL   C13545181   6.696   1.525   0.611 -0.5703 -0.5827  0.4300
  224MOL   N13645182   6.733   1.381   0.581 -0.0945 -0.7777 -0.6567
  224MOL   H13745183   6.482   1.486   0.617  0.6699 -1.1010  0.2662
  224MOL   H13845184   6.565   1.502   0.776 -1.3040 -0.9158 -0.6544
  224MOL   H13945185   6.691   1.584   0.520 -0.4683  1.3875  1.6679
  224MOL   H14045186   6.782   1.567   0.663 -0.8627  0.8547 -0.2524
  224MOL   H14145187   6.690   1.307   0.635  0.3120 -1.1248 -0.8045
  224MOL   C14245188   6.819   1.347   0.479  1.0609 -0.2281 -0.1619
  224MOL   O14345189   6.879   1.432   0.416 -0.1245 -0.0169 -0.1441
  224MOL   C14445190   6.837   1.201   0.446 -0.4690 -0.7160 -0.1879
  224MOL   C14545191   6.985   1.169   0.437  0.8183  0.3686 -0.3758
  224MOL   N14645192   7.013   1.024   0.449 -0.5247 -0.2933 -0.5822
  224MOL   H14745193   6.796   1.171   0.350 -0.3773  0.5302 -0.6218
  224MOL   H14845194   6.775   1.155   0.524  0.9664 -0.5678  1.0611
  224MOL   H14945195   7.030   1.225   0.355  0.9713  1.0394  0.1645
  224MOL   H15045196   7.031   1.207   0.528  0.2835 -0.2383  0.1499
  224MOL   H15145197   7.042   0.972   0.367  1.8613 -0.7816  0.5508
  224MOL   C15245198   7.001   0.948   0.558  0.3825 -0.3121 -0.3996
  224MOL   O15345199   6.970   0.994   0.667  0.8332 -0.1792 -0.4031
  224MOL   C15445200   7.021   0.799   0.534  0.1749 -0.9003 -0.1781
  224MOL   C15545201   7.005   0.717   0.655  1.0918 -0.1852  0.4845
  224MOL   N15645202   7.005   0.579   0.623  0.1800  0.5794  0.1797
  224MOL   H15745203   7.116   0.788   0.480 -0.1321  1.5000 -1.2804
  224MOL   H15845204   6.942   0.770   0.465 -1.0282  1.7014  0.0551
  224MOL   H15945205   7.088   0.743   0.720  0.4625  2.1109  0.4162
  224MOL   H16045206   6.911   0.747   0.703 -0.4767 -1.3663 -1.7413
  224MOL   H16145207   7.103   0.554   0.614  0.7583  2.9089 -0.3241
  224MOL   C16245208   6.897   0.498   0.605  0.0827  0.3532 -0.4185
  224MOL   O16345209   6.785   0.547   0.627 -0.1543 -0.4425 -0.4191
  224MOL   C16445210   6.916   0.357   0.563  0.4559  0.5367  0.4094
  224MOL   C16545211   6.880   0.257   0.677 -0.1856 -0.1501  0.6740
  224MOL   N16645212   6.993   0.220   0.759  0.0327 -0.0263 -0.6088
  224MOL   H16745213   7.020   0.339   0.538  0.1601 -0.0471 -0.4042
  224MOL   H16845214   6.856   0.326   0.478  0.1206 -0.8178  1.1334
  224MOL   H16945215   6.803   0.298   0.742 -0.6771  1.1742 -0.7054
  224MOL   H17045216   6.831   0.171   0.631 -0.0675 -0.5284  1.2656
  224MOL   H17145217   7.039   0.287   0.819  0.5220 -1.3448  0.5143
  224MOL   C17245218   7.058   0.099   0.749 -0.3486 -0.1628 -0.1005
  224MOL   O17345219   7.017   7.780   0.684 -0.0323 -0.1038  0.1227
  224MOL   C17445220   7.187   0.092   0.829  0.1199 -0.2799  0.0266
  224MOL   C17545221   7.186   7.775   0.950  0.7084  1.4253 -0.9849
  224MOL   N17645222   7.227   0.070   1.068 -0.5094 -0.7027 -0.4666
  224MOL   H17745223   7.199   0.191   0.873 -0.5429 -0.2010  0.0466
  224MOL   H17845224   7.270   0.056   0.769  0.1341 -0.1353 -0.0389
  224MOL   H17945225   7.091   7.723   0.962  1.9992 -1.1985 -1.8359
  224MOL   H18045226   7.260   7.696   0.936  0.5944  1.2442 -0.5929
  224MOL   H18145227   7.323   0.100   1.080 -1.0127  0.5840  0.4847
  224MOL   C18245228   7.151   0.143   1.154  0.4551 -0.3400  0.4295
  224MOL   O18345229   7.029   0.147   1.147  0.0432  0.6446 -0.7680
  224MOL   C18445230   7.226   0.243   1.243  0.1503  0.4115 -0.0285
  224MOL   C18545231   7.254   0.373   1.160  0.1618  0.3137 -0.1850
  224MOL   N18645232   7.141   0.460   1.146  0.0769 -0.8608 -0.1771
  224MOL   H18745233   7.318   0.197   1.277  0.5938 -0.2339 -2.0363
  224MOL   H18845234   7.164   0.267   1.329  0.0423 -3.6290  1.1029
  224MOL   H18945235   7.333   0.424   1.216 -0.1515  2.3494 -1.5712
  224MOL   H19045236   7.306   0.351   1.067 -0.7741  2.2470 -1.1843
  224MOL   H19145237   7.095   0.499   1.226  0.4763 -0.0373 -0.3396
  224MOL   C19245238   7.080   0.479   1.030  0.2942  0.1960  0.9151
  224MOL   O19345239   7.125   0.432   0.926  0.0814 -0.0446  0.1248
  224MOL   C19445240   6.950   0.557   1.029  0.3007 -0.0484 -0.2208
  224MOL   C19545241   6.830   0.486   0.979  0.0514  0.2550 -0.3096
  224MOL   N19645242   6.792   0.376   1.070 -0.5475  0.3640  0.0809
  224MOL   H19745243   6.928   0.591   1.130 -0.5756 -0.3384 -0.3126
  224MOL   H19845244   6.964   0.644   0.964  2.0025 -1.0316 -1.2262
  224MOL   H19945245   6.748   0.558   0.983  0.0348  0.3031 -1.2532
  224MOL   H20045246   6.843   0.440   0.881 -0.3842 -1.4095  0.4078
  224MOL   H20145247   6.867   0.310   1.085  0.6112  1.2447 -1.6414
  224MOL   H20245248   6.779   0.415   1.162 -0.7083  1.4073 -0.3834
  225MOL     C145249   7.141   3.540   4.851  0.1296 -0.3929 -0.0220
  225MOL     O245250   7.094   3.637   4.793 -0.0020  0.6632 -0.5235
  225MOL     C345251   7.278   3.492   4.806 -0.3117 -0.1885 -0.2629
  225MOL     C445252   7.368   3.591   4.724 -1.1324 -0.8090  0.2536
  225MOL     N545253   7.503   3.547   4.726 -0.5831  0.7357  0.3508
  225MOL     H645254   7.256   3.411   4.737  1.4945 -0.0342 -1.0422
  225MOL     H745255   7.319   3.448   4.896 -0.3577 -1.7083 -0.9714
  225MOL     H845256   7.373   3.698   4.743 -0.5545 -0.7894 -0.0033
  225MOL     H945257   7.325   3.596   4.623  0.4864  0.9616 -0.3846
  225MOL    H1045258   7.573   3.596   4.779  0.9538  0.8545 -1.7266
  225MOL    H1145259   7.102   3.490   4.941 -0.4188  1.8280  0.9974
  225MOL    C1245260   7.558   3.449   4.652  0.5660 -0.2001  0.1847
  225MOL    O1345261   7.491   3.389   4.566 -0.8126  0.5079 -0.5313
  225MOL    C1445262   7.711   3.429   4.660  0.6548 -0.3130  0.4686
  225MOL    C1545263   7.730   3.311   4.749 -0.1884 -0.1541 -0.6307
  225MOL    N1645264   0.091   3.306   4.781  0.1677 -0.0354 -0.0102
  225MOL    H1745265   7.745   3.522   4.705 -1.5354  0.5280  0.4386
  225MOL    H1845266   7.756   3.425   4.560 -0.2937 -0.9335  0.0604
  225MOL    H1945267   7.670   3.318   4.840  1.4162 -3.1168  0.7383
  225MOL    H2045268   7.701   3.219   4.698  1.2506 -0.0941 -1.5776
  225MOL    H2145269   0.159   3.303   4.707  2.7262  1.0296  2.2224
  225MOL    C2245270   0.146   3.311   4.903 -0.4031  0.1093  0.1090
  225MOL    O2345271   0.089   3.304   5.011 -0.2408 -0.1026  0.3155
  225MOL    C2445272   0.301   3.317   4.899  0.8975 -0.2840  0.2492
  225MOL    C2545273   0.351   3.458   4.923 -0.3380  0.7778  0.2066
  225MOL    N2645274   0.502   3.467   4.923 -0.3079  0.3339 -0.2695
  225MOL    H2745275   0.335   3.272   4.805 -0.1805  0.6034 -0.5771
  225MOL    H2845276   0.341   3.263   4.985 -1.5140  1.8846  2.8373
  225MOL    H2945277   0.301   3.523   4.850  1.7084  1.7619 -0.3506
  225MOL    H3045278   0.320   3.486   5.023 -0.4935  1.3336  0.0038
  225MOL    H3145279   0.546   3.406   4.991 -1.6126 -1.0997 -0.6943
  225MOL    C3245280   0.581   3.517   4.829 -0.0064 -0.4360  0.5827
  225MOL    O3345281   0.535   3.577   4.727  0.1778 -0.1971  0.0158
  225MOL    C3445282   0.733   3.500   4.844 -0.1058 -0.0035 -0.5481
  225MOL    C3545283   0.781   3.358   4.847 -0.2309 -0.8748 -0.2991
  225MOL    N3645284   0.920   3.354   4.888  0.7207  0.2717 -0.3748
  225MOL    H3745285   0.744   3.541   4.944 -0.4702 -0.4555 -0.3176
  225MOL    H3845286   0.782   3.561   4.768  0.1565 -1.2846 -1.4201
  225MOL    H3945287   0.725   3.302   4.923  0.3506 -1.2855 -0.1684
  225MOL    H4045288   0.760   3.304   4.755  2.2779  0.2368 -1.5669
  225MOL    H4145289   0.972   3.441   4.886  2.5430 -0.7830  0.1045
  225MOL    C4245290   0.987   3.239   4.893  0.3442  0.8015 -0.1300
  225MOL    O4345291   0.941   3.130   4.871  0.4239 -0.0240 -0.0750
  225MOL    C4445292   1.137   3.261   4.918 -0.3590 -0.1554  0.4609
  225MOL    C4545293   1.169   3.292   5.069 -1.2723 -0.3359 -0.0386
  225MOL    N4645294   1.252   3.411   5.082 -0.2564  0.3964  0.1839
  225MOL    H4745295   1.190   3.168   4.894  1.4413  1.0198 -0.2054
  225MOL    H4845296   1.178   3.346   4.864  0.0320 -0.3229  0.4843
  225MOL    H4945297   1.081   3.299   5.133 -0.5928 -1.8861  1.1112
  225MOL    H5045298   1.220   3.205   5.111 -2.2708  0.1412  2.2342
  225MOL    H5145299   1.350   3.397   5.065  0.2826  4.3478 -0.3629
  225MOL    C5245300   1.203   3.530   5.111  0.7414  0.2490  0.0459
  225MOL    O5345301   1.084   3.557   5.127 -0.0850  0.0681 -0.5336
  225MOL    C5445302   1.302   3.644   5.132  0.5375  0.2506  0.6932
  225MOL    C5545303   1.276   3.731   5.256 -0.4336 -0.3694 -0.8223
  225MOL    N5645304   1.374   3.840   5.280  0.6507  0.2206  0.6895
  225MOL    H5745305   1.404   3.608   5.140  1.0190  1.5206  0.3303
  225MOL    H5845306   1.305   3.706   5.043 -1.4347  1.0779  1.1744
  225MOL    H5945307   1.253   3.671   5.345  0.8357 -0.6876 -0.6935
  225MOL    H6045308   1.186   3.790   5.241  0.2161  0.8116 -0.1313
  225MOL    H6145309   1.336   3.931   5.263 -2.0134 -0.5151  2.4683
  225MOL    C6245310   1.493   3.820   5.339 -0.6232  0.2680  0.4050
  225MOL    O6345311   1.535   3.709   5.370  0.3373  0.1221  0.0625
  225MOL    C6445312   1.569   3.944   5.379 -0.6675  0.8475  0.2334
  225MOL    C6545313   1.558   3.972   5.528  0.2586 -0.8822  0.6298
  225MOL    N6645314   1.619   4.103   5.554  0.0191  0.0414  0.3535
  225MOL    H6745315   1.673   3.920   5.357 -0.7103 -1.2918  2.1231
  225MOL    H6845316   1.540   4.027   5.314 -1.5364 -0.0269 -0.5011
  225MOL    H6945317   1.451   3.968   5.551  0.0004  0.6157 -0.2372
  225MOL    H7045318   1.614   3.885   5.562 -0.2676 -0.9185  1.4395
  225MOL    H7145319   1.563   4.186   5.544 -0.7834 -0.5096  0.1743
  225MOL    C7245320   1.750   4.119   5.572 -0.5556 -0.8338 -0.0449
  225MOL    O7345321   1.830   4.028   5.594  0.6339  0.5985 -0.3858
  225MOL    C7445322   1.791   4.266   5.588  0.0228 -0.5875 -0.2601
  225MOL    C7545323   1.880   4.325   5.473 -0.0097  1.0151  0.4066
  225MOL    N7645324   1.811   4.380   5.366  0.0743  0.3429 -0.1196
  225MOL    H7745325   1.711   4.334   5.616  0.8263  0.1160  0.3670
  225MOL    H7845326   1.862   4.262   5.670 -0.4073 -0.4306  0.1176
  225MOL    H7945327   1.946   4.399   5.518 -0.0239  2.4365 -1.8656
  225MOL    H8045328   1.952   4.252   5.436  1.5902  2.0199  1.4447
  225MOL    H8145329   1.768   4.472   5.367 -1.9977 -0.6137  0.8537
  225MOL    C8245330   1.769   4.311   5.263  0.4256  0.2416  0.0022
  225MOL    O8345331   1.779   4.190   5.248 -0.2419  0.1952 -0.3050
  225MOL    C8445332   1.679   4.390   5.167 -0.0899  0.3210 -0.0801
  225MOL    C8545333   1.523   4.356   5.160  0.5349  0.2905  0.6515
  225MOL    N8645334   1.501   4.217   5.116 -0.0708 -0.4636  0.9321
  225MOL    H8745335   1.696   4.496   5.188  2.0449  0.2542 -1.3713
  225MOL    H8845336   1.727   4.375   5.071 -2.2642  1.8292 -1.4681
  225MOL    H8945337   1.480   4.381   5.257  1.3111  0.8301  0.8611
  225MOL    H9045338   1.484   4.420   5.081  0.3015  1.1913  1.4776
  225MOL    H9145339   1.449   4.159   5.180 -0.2433 -1.1345  0.1914
  225MOL    C9245340   1.518   4.163   4.989  1.3854  0.7433  0.1210
  225MOL    O9345341   1.560   4.221   4.893 -0.1839  0.0465  0.1257
  225MOL    C9445342   1.454   4.021   4.973 -0.3477  0.6695 -0.6328
  225MOL    C9545343   1.381   4.005   4.839 -0.2979  0.0632  1.1376
  225MOL    N9645344   1.468   3.960   4.729  0.0575 -0.7116 -0.3493
  225MOL    H9745345   1.519   3.941   5.009 -1.7128  1.2191  3.3038
  225MOL    H9845346   1.371   4.015   5.043  1.0395 -0.5386  0.9496
  225MOL    H9945347   1.285   3.955   4.848  0.7593 -2.1028  0.6989
  225MOL   H10045348   1.345   4.102   4.806 -0.4647  0.5456  2.7037
  225MOL   H10145349   1.559   3.923   4.753  1.7092  2.2515 -1.7106
  225MOL   C10245350   1.422   3.943   4.610 -0.5310 -0.1152  0.3598
  225MOL   O10345351   1.305   3.968   4.580  0.1053 -0.2383 -0.2221
  225MOL   C10445352   1.523   3.889   4.504  0.2739  0.3591  0.3814
  225MOL   C10545353   1.505   3.941   4.360 -0.4988 -0.1650  0.1931
  225MOL   N10645354   1.594   4.058   4.331  0.7528  0.2309  0.4561
  225MOL   H10745355   1.512   3.781   4.503  0.7781  0.3151 -0.8451
  225MOL   H10845356   1.624   3.897   4.543  0.6416 -0.6273 -0.3664
  225MOL   H10945357   1.527   3.857   4.295 -0.0884  0.3740 -0.3712
  225MOL   H11045358   1.401   3.967   4.339  0.1172  1.3402 -1.1311
  225MOL   H11145359   1.666   4.083   4.397  0.0701  1.7122  0.6601
  225MOL   C11245360   1.609   4.103   4.208  0.0053 -0.5815  0.8822
  225MOL   O11345361   1.533   4.081   4.110 -0.5756  0.3771  0.3199
  225MOL   C11445362   1.732   4.190   4.184 -0.5413  0.4012 -0.0054
  225MOL   C11545363   1.866   4.108   4.194  0.1847 -0.1033  0.6218
  225MOL   N11645364   1.858   3.981   4.121 -0.0020 -0.3775 -0.7707
  225MOL   H11745365   1.750   4.266   4.260 -0.9241  0.2700  0.2138
  225MOL   H11845366   1.729   4.232   4.084  2.1318 -2.8069 -1.5190
  225MOL   H11945367   1.936   4.178   4.148  1.0204 -1.5126 -0.2884
  225MOL   H12045368   1.899   4.098   4.297 -1.1827  1.2379  1.2130
  225MOL   H12145369   1.847   3.901   4.182  0.4254  0.7791  0.8648
  225MOL   C12245370   1.867   3.968   3.988 -0.8730 -1.0158  0.1116
  225MOL   O12345371   1.884   4.064   3.909  0.0173  0.0878  0.2804
  225MOL   C12445372   1.845   3.827   3.930 -0.3876  0.1384 -0.3407
  225MOL   C12545373   1.706   3.811   3.861  0.6368 -0.5196  0.4859
  225MOL   N12645374   1.593   3.836   3.950  0.3073  0.2278 -0.6197
  225MOL   H12745375   1.869   3.750   4.002 -0.2787 -0.1023 -0.6315
  225MOL   H12845376   1.924   3.815   3.856  0.7550  0.8868  0.7519
  225MOL   H12945377   1.712   3.868   3.768  1.1379 -2.7514 -0.8710
  225MOL   H13045378   1.695   3.707   3.831 -0.2709 -0.7697  1.6814
  225MOL   H13145379   1.600   3.917   4.010 -1.4312  0.5268 -0.8056
  225MOL   C13245380   1.470   3.789   3.926 -0.4840  0.0779 -0.6639
  225MOL   O13345381   1.451   3.712   3.834 -0.0505  0.3775 -0.4078
  225MOL   C13445382   1.360   3.851   4.008 -0.2078  0.2269 -1.0869
  225MOL   C13545383   1.245   3.759   4.036 -0.6759  0.0062 -0.6093
  225MOL   N13645384   1.187   3.771   4.174 -0.1149 -0.0592 -0.1907
  225MOL   H13745385   1.332   3.948   3.966  0.9567  1.2916  0.5450
  225MOL   H13845386   1.385   3.885   4.108 -2.6154  3.0859 -1.3780
  225MOL   H13945387   1.170   3.769   3.958 -0.4876 -0.6972 -0.8845
  225MOL   H14045388   1.284   3.657   4.033  0.9639  0.5752  0.6695
  225MOL   H14145389   1.230   3.707   4.240 -0.6389  0.2580  0.4693
  225MOL   C14245390   1.089   3.855   4.201  0.2355 -0.5728  0.1379
  225MOL   O14345391   1.037   3.924   4.118  0.2281 -0.4287 -0.0048
  225MOL   C14445392   1.062   3.877   4.352  0.0297  0.2135  0.3600
  225MOL   C14545393   1.004   4.016   4.394  0.0285 -0.8490  0.0519
  225MOL   N14645394   1.108   4.121   4.402  0.0941 -0.4440  0.4471
  225MOL   H14745395   1.155   3.869   4.409 -0.0507 -0.4347  0.3970
  225MOL   H14845396   1.000   3.794   4.386 -1.3752  0.9638 -0.3267
  225MOL   H14945397   0.923   4.049   4.329  2.0152  0.8961 -1.6372
  225MOL   H15045398   0.953   4.006   4.490 -1.4462  1.0270 -0.4834
  225MOL   H15145399   1.195   4.109   4.452  0.6306  2.4957  0.3058
  225MOL   C15245400   1.091   4.239   4.339 -0.1092 -0.5595 -0.4349
  225MOL   O15345401   0.986   4.283   4.311 -0.2792 -0.3295  0.0097
  225MOL   C15445402   1.218   4.326   4.317  0.3580  0.6215 -0.3359
  225MOL   C15545403   1.248   4.428   4.429  0.1677  0.3697 -0.0826
  225MOL   N15645404   1.342   4.376   4.530  0.9033 -1.0579  0.7521
  225MOL   H15745405   1.208   4.391   4.230 -0.2287  0.1910 -0.5885
  225MOL   H15845406   1.295   4.251   4.299  1.0239  1.2587 -0.2133
  225MOL   H15945407   1.286   4.516   4.377 -2.8874  2.8140  1.6456
  225MOL   H16045408   1.158   4.462   4.481  0.8714  0.1210  1.3056
  225MOL   H16145409   1.299   4.360   4.620 -1.1795 -2.4170 -0.4402
  225MOL   C16245410   1.475   4.357   4.502 -0.4756  0.4454 -1.2099
  225MOL   O16345411   1.527   4.374   4.394  0.4292 -0.5310  0.4219
  225MOL   C16445412   1.558   4.326   4.628 -0.6312 -0.9075  0.3320
  225MOL   C16545413   1.704   4.373   4.601 -0.5110 -0.0202  0.1143
  225MOL   N16645414   1.779   4.332   4.720  0.3380 -0.8170 -0.0062
  225MOL   H16745415   1.547   4.220   4.651  0.8431 -1.6615 -2.2322
  225MOL   H16845416   1.517   4.386   4.709 -1.7205  0.2596 -1.0463
  225MOL   H16945417   1.750   4.329   4.513  0.2131 -0.6749  0.8156
  225MOL   H17045418   1.716   4.480   4.589 -0.1038 -0.0947 -0.1176
  225MOL   H17145419   1.725   4.339   4.805 -1.7522  2.4211 -1.5044
  225MOL   C17245420   1.892   4.260   4.721 -0.7318 -0.3418  0.2237
  225MOL   O17345421   1.955   4.236   4.616  0.5278  0.1264 -0.1452
  225MOL   C17445422   1.928   4.183   4.846  0.5065  0.9026 -0.0741
  225MOL   C17545423   2.056   4.242   4.909  0.9779 -0.3958  0.0045
  225MOL   N17645424   2.062   4.185   5.041 -0.3954 -0.3512  0.3892
  225MOL   H17745425   1.926   4.074   4.836 -2.6720  0.6363  2.3818
  225MOL   H17845426   1.840   4.192   4.910  0.2179  0.6065 -0.4300
  225MOL   H17945427   2.151   4.207   4.868  1.4770  0.0778  0.7572
  225MOL   H18045428   2.063   4.351   4.908 -1.1266 -0.2382 -1.7620
  225MOL   H18145429   2.048   4.257   5.110 -2.0361 -0.3398  0.0754
  225MOL   C18245430   2.088   4.056   5.074  0.1032 -0.4831 -0.5002
  225MOL   O18345431   2.105   3.965   4.991  0.3169 -0.2401 -0.1364
  225MOL   C18445432   2.095   4.024   5.231 -0.7237  0.3671 -0.0100
  225MOL   C18545433   1.976   3.942   5.287  0.3958  0.0989  0.2656
  225MOL   N18645434   2.013   3.826   5.368 -0.1328  0.8201  0.4136
  225MOL   H18745435   2.115   4.114   5.290 -0.8952  0.0599  0.5163
  225MOL   H18845436   2.184   3.965   5.252 -1.9546 -1.6750 -0.4859
  225MOL   H18945437   1.905   4.007   5.339  1.6674  1.8283 -0.1373
  225MOL   H19045438   1.913   3.907   5.204  0.5752 -0.2190  0.2632
  225MOL   H19145439   2.033   3.842   5.466 -1.2311  1.7128  0.4979
  225MOL   C19245440   1.996   3.698   5.338  0.3659 -0.0710  0.8114
  225MOL   O19345441   1.957   3.660   5.224  0.0683  0.0467 -0.7838
  225MOL   C19445442   2.022   3.601   5.454 -0.0955 -0.0197  0.0905
  225MOL   C19545443   2.162   3.535   5.451 -0.6897  0.8271 -0.3002
  225MOL   N19645444   2.266   3.640   5.480  0.1680  0.5941 -0.6013
  225MOL   H19745445   2.006   3.654   5.548  0.4350 -1.6363  1.1132
  225MOL   H19845446   1.946   3.524   5.444 -0.4516  0.0921  1.7905
  225MOL   H19945447   2.169   3.460   5.530 -0.5317 -0.5131 -1.5650
  225MOL   H20045448   2.173   3.479   5.358 -2.4720  1.0397 -0.6519
  225MOL   H20145449   2.307   3.618   5.569  0.5245  1.1993 -0.6142
  225MOL   H20245450   2.343   3.648   5.415  1.4690 -0.5068  0.7650
  226MOL     C145451   6.535   2.135   4.758  0.3210  0.5286  0.0944
  226MOL     O245452   6.577   2.084   4.861  0.0859  0.2603 -0.6394
  226MOL     C345453   6.512   2.288   4.756 -0.1185  1.0015 -0.0405
  226MOL     C445454   6.439   2.324   4.883  0.2147  0.3060 -0.7014
  226MOL     N545455   6.445   2.462   4.907 -0.8388 -0.0114 -0.6985
  226MOL     H645456   6.471   2.330   4.664  0.5936  3.6208  0.7928
  226MOL     H745457   6.610   2.335   4.762  0.1566  0.3002  1.1866
  226MOL     H845458   6.484   2.278   4.971  1.5551  1.4207 -0.7859
  226MOL     H945459   6.342   2.277   4.898  0.1615  1.0421  1.4794
  226MOL    H1045460   6.537   2.504   4.913 -1.1313  0.2901  1.9598
  226MOL    H1145461   6.519   2.080   4.666 -0.4822  0.6942  0.1358
  226MOL    C1245462   6.340   2.541   4.942  0.6467  0.5391 -0.5079
  226MOL    O1345463   6.221   2.504   4.944  0.5351 -0.5236  0.4639
  226MOL    C1445464   6.384   2.680   4.981 -0.1280 -0.1329 -0.2217
  226MOL    C1545465   6.269   2.780   4.984  0.4978  0.4282 -0.0334
  226MOL    N1645466   6.315   2.914   5.007 -0.2298 -0.3041  0.3988
  226MOL    H1745467   6.461   2.710   4.910 -0.0827 -0.1440 -0.1782
  226MOL    H1845468   6.438   2.664   5.074 -0.1444  0.4736 -0.1060
  226MOL    H1945469   6.219   2.778   4.887  1.9658  2.9712 -0.8799
  226MOL    H2045470   6.193   2.749   5.055  0.2186 -0.4608 -0.7091
  226MOL    H2145471   6.318   2.945   5.103  0.3736  0.5974  0.0862
  226MOL    C2245472   6.329   3.003   4.908 -0.7206  0.5114 -0.3229
  226MOL    O2345473   6.326   2.976   4.789  0.0750 -0.3566 -0.0672
  226MOL    C2445474   6.350   3.155   4.950  0.0577 -0.2760 -0.5711
  226MOL    C2545475   6.465   3.226   4.877  0.2324 -0.0371 -0.3292
  226MOL    N2645476   6.522   3.343   4.946  0.0954 -0.6496  0.1008
  226MOL    H2745477   6.370   3.146   5.057 -1.3329 -1.4678 -0.3878
  226MOL    H2845478   6.259   3.215   4.947 -0.7598 -1.4039  0.7984
  226MOL    H2945479   6.539   3.150   4.853  0.6249 -0.1882  1.3137
  226MOL    H3045480   6.433   3.255   4.777 -0.1655  0.5755 -0.0300
  226MOL    H3145481   6.479   3.371   5.033 -1.4799 -0.8365 -0.6074
  226MOL    C3245482   6.639   3.398   4.902  0.4550  0.3035  0.1462
  226MOL    O3345483   6.685   3.368   4.793 -0.2049  0.3544  0.6224
  226MOL    C3445484   6.705   3.505   4.988 -0.0971  0.3026  0.2952
  226MOL    C3545485   6.696   3.646   4.922 -0.0136 -0.2102 -0.2561
  226MOL    N3645486   6.568   3.713   4.905 -0.3044  0.5059  0.4033
  226MOL    H3745487   6.809   3.483   5.012 -0.4601 -0.4872  1.1623
  226MOL    H3845488   6.661   3.507   5.087 -0.3702  1.3903  0.1554
  226MOL    H3945489   6.749   3.703   4.999  0.0360 -1.6173  0.7735
  226MOL    H4045490   6.758   3.641   4.833 -0.0038 -2.0012 -0.1675
  226MOL    H4145491   6.511   3.720   4.988  0.2554  0.1554  0.8171
  226MOL    C4245492   6.515   3.744   4.782 -0.6593  0.0729  0.2941
  226MOL    O4345493   6.581   3.734   4.675  0.2643 -0.3961  0.1221
  226MOL    C4445494   6.370   3.780   4.780 -0.0483  0.6268  0.3791
  226MOL    C4545495   6.305   3.731   4.652  0.3135 -0.6481 -0.7250
  226MOL    N4645496   6.261   3.597   4.669  0.1507 -0.3122 -0.2841
  226MOL    H4745497   6.315   3.736   4.864  0.3794  1.4341  1.0947
  226MOL    H4845498   6.359   3.889   4.778  0.5635  0.6523 -3.2240
  226MOL    H4945499   6.227   3.801   4.623  0.0472 -0.0575  1.3458
  226MOL    H5045500   6.371   3.731   4.566  0.4534 -0.4641 -0.6174
  226MOL    H5145501   6.330   3.526   4.648  1.0873  0.5585 -0.1874
  226MOL    C5245502   6.142   3.550   4.707  0.2476 -0.6306  1.2858
  226MOL    O5345503   6.047   3.629   4.728  0.2812 -0.0473  0.4004
  226MOL    C5445504   6.134   3.397   4.718 -0.6482 -0.4147 -0.2333
  226MOL    C5545505   6.053   3.319   4.617 -0.4487 -0.3005 -0.3398
  226MOL    N5645506   6.105   3.328   4.483 -0.2045  0.0362 -0.0135
  226MOL    H5745507   6.233   3.355   4.736 -0.6845  0.3287  1.9278
  226MOL    H5845508   6.082   3.383   4.813  0.5203  0.9432  0.6320
  226MOL    H5945509   5.949   3.352   4.617 -0.5984 -0.7319 -2.6820
  226MOL    H6045510   6.057   3.212   4.641  1.7514 -0.0746  0.4286
  226MOL    H6145511   6.195   3.370   4.465 -0.2200  0.1374  0.1500
  226MOL    C6245512   6.045   3.279   4.375  0.7349  0.1177  0.0446
  226MOL    O6345513   5.946   3.202   4.380  0.3708 -0.0371  0.0129
  226MOL    C6445514   6.126   3.299   4.249  0.7311 -0.1588 -0.5254
  226MOL    C6545515   6.124   3.183   4.151 -0.0193 -0.1758  0.5964
  226MOL    N6645516   5.999   3.156   4.094  0.7030 -0.1113  0.3585
  226MOL    H6745517   6.097   3.396   4.207  0.3024  0.9657  2.2680
  226MOL    H6845518   6.228   3.320   4.281  0.2769  1.5468 -0.1255
  226MOL    H6945519   6.197   3.183   4.070 -0.6035  1.1382  0.0584
  226MOL    H7045520   6.155   3.096   4.208  0.1194  0.1503  1.0174
  226MOL    H7145521   5.947   3.237   4.063  1.0884 -0.2636 -0.6848
  226MOL    C7245522   5.926   3.041   4.085  0.5971  0.2376 -0.7302
  226MOL    O7345523   5.972   2.936   4.130  0.2982  0.2480  0.1186
  226MOL    C7445524   5.781   3.057   4.041 -0.4641  0.1287 -0.2506
  226MOL    C7545525   5.695   2.937   4.061 -0.1446 -0.1823 -0.2117
  226MOL    N7645526   5.553   2.975   4.069 -0.1893 -0.1718 -0.4148
  226MOL    H7745527   5.750   3.134   4.111  0.9290 -0.5063  1.1055
  226MOL    H7845528   5.771   3.101   3.942  1.8795 -1.9070 -1.4234
  226MOL    H7945529   5.707   2.864   3.981 -3.5080  1.3568 -2.2239
  226MOL    H8045530   5.730   2.893   4.154  1.7391  1.6080 -0.0357
  226MOL    H8145531   5.526   3.071   4.057  0.8310  0.4746  2.3147
  226MOL    C8245532   5.451   2.901   4.111 -0.3511  0.0015  0.3980
  226MOL    O8345533   5.463   2.782   4.131  0.6472  0.6033 -0.2336
  226MOL    C8445534   5.310   2.965   4.122 -0.3550 -0.2263 -0.9236
  226MOL    C8545535   5.207   2.892   4.212 -0.0420 -0.3499  0.1545
  226MOL    N8645536   5.267   2.850   4.342 -0.4314 -0.5242 -0.2320
  226MOL    H8745537   5.327   3.065   4.160  0.0639 -0.8145  0.4616
  226MOL    H8845538   5.265   2.983   4.024  0.5557  0.5899 -1.1954
  226MOL    H8945539   5.124   2.959   4.235 -0.4238 -0.6415 -0.3579
  226MOL    H9045540   5.170   2.801   4.164 -0.5686 -0.2412  0.3551
  226MOL    H9145541   5.356   2.802   4.346 -0.0549  0.2043  0.3175
  226MOL    C9245542   5.210   2.859   4.459 -0.3903  0.0189 -0.3818
  226MOL    O9345543   5.100   2.900   4.481 -0.6995 -0.0745  0.0839
  226MOL    C9445544   5.293   2.828   4.580  0.1005  0.3749  0.4864
  226MOL    C9545545   5.367   2.960   4.627  0.2106 -0.0666 -0.2605
  226MOL    N9645546   5.473   3.016   4.537 -0.1611 -0.5788 -0.2406
  226MOL    H9745547   5.227   2.786   4.656  0.7160  1.0812  1.4199
  226MOL    H9845548   5.371   2.755   4.557 -1.0220 -0.6891 -0.0255
  226MOL    H9945549   5.283   3.028   4.641  1.6737  2.1560 -1.9118
  226MOL   H10045550   5.416   2.942   4.723  0.0930  1.3353  0.0756
  226MOL   H10145551   5.558   2.963   4.542 -0.8724 -1.7976 -0.7615
  226MOL   C10245552   5.457   3.110   4.449 -0.0640  0.0414  0.4568
  226MOL   O10345553   5.349   3.162   4.417  0.2033 -0.3258 -0.0080
  226MOL   C10445554   5.588   3.163   4.383 -0.2135 -0.3393  0.5207
  226MOL   C10545555   5.594   3.319   4.361  0.2745 -0.2650 -0.0144
  226MOL   N10645556   5.675   3.388   4.457 -0.1068 -0.7128  0.3491
  226MOL   H10745557   5.605   3.107   4.291 -0.9008  0.5795 -0.1780
  226MOL   H10845558   5.670   3.127   4.445 -0.3964  0.0904  1.0204
  226MOL   H10945559   5.613   3.342   4.256 -1.4072  2.6179  0.2383
  226MOL   H11045560   5.495   3.358   4.386 -0.3711 -3.3881  2.5947
  226MOL   H11145561   5.687   3.354   4.552  2.8901 -0.1660  0.2342
  226MOL   C11245562   5.721   3.516   4.436  0.4329 -0.0516 -0.0028
  226MOL   O11345563   5.692   3.574   4.332 -0.0178  0.1101 -0.5973
  226MOL   C11445564   5.811   3.579   4.540  0.6231 -0.0849  0.0777
  226MOL   C11545565   5.793   3.734   4.550  0.1694  0.0343 -0.0347
  226MOL   N11645566   5.923   3.794   4.515  0.4940 -0.2447 -0.6555
  226MOL   H11745567   5.916   3.553   4.528  0.8713 -0.3927  2.5269
  226MOL   H11845568   5.770   3.555   4.638 -0.8655  2.1244  0.0268
  226MOL   H11945569   5.710   3.767   4.486  0.1374  2.5086  1.2219
  226MOL   H12045570   5.789   3.753   4.657 -2.9339 -0.0211 -0.0907
  226MOL   H12145571   6.006   3.755   4.557  1.9296  2.0282 -1.2964
  226MOL   C12245572   5.935   3.913   4.462  0.2385  0.3421 -0.6961
  226MOL   O12345573   5.839   3.983   4.427 -0.1882 -0.2331 -0.2883
  226MOL   C12445574   6.075   3.969   4.439 -0.1155  0.2092 -0.4048
  226MOL   C12545575   6.075   4.102   4.360  0.7437 -0.0221 -0.6618
  226MOL   N12645576   6.198   4.133   4.289 -0.4081  0.3270  0.2975
  226MOL   H12745577   6.127   3.896   4.377  0.0497  0.9445 -1.1393
  226MOL   H12845578   6.128   3.983   4.534 -0.0600  0.8396 -0.5294
  226MOL   H12945579   5.998   4.087   4.284 -0.8434 -2.3293  1.3079
  226MOL   H13045580   6.042   4.195   4.407  0.8326 -0.5061  0.3915
  226MOL   H13145581   6.283   4.099   4.331 -1.1441  0.6628  2.0729
  226MOL   C13245582   6.215   4.213   4.183 -0.3807  0.1310 -0.0755
  226MOL   O13345583   6.117   4.264   4.133  0.3414 -0.1938  0.3720
  226MOL   C13445584   6.347   4.213   4.115 -0.2850  0.4252 -0.1271
  226MOL   C13545585   6.394   4.346   4.061  0.1133  0.2484 -0.4260
  226MOL   N13645586   6.423   4.449   4.168  0.3676  0.2338 -1.1937
  226MOL   H13745587   6.342   4.147   4.029  0.1924 -1.3633  1.1793
  226MOL   H13845588   6.424   4.188   4.189  0.0691  1.6742 -0.0702
  226MOL   H13945589   6.488   4.325   4.010  0.3690  0.8528 -0.2099
  226MOL   H14045590   6.322   4.392   3.993  3.0354  2.1909 -2.3323
  226MOL   H14145591   6.470   4.416   4.252 -0.2864 -1.2986 -1.4056
  226MOL   C14245592   6.426   4.589   4.149  0.3597  0.0796  0.5544
  226MOL   O14345593   6.376   4.637   4.047  0.0201 -0.3148  0.0038
  226MOL   C14445594   6.489   4.687   4.250  0.0143 -0.1540  0.1983
  226MOL   C14545595   6.597   4.624   4.330 -0.4598  0.0376 -0.4085
  226MOL   N14645596   6.709   4.574   4.251  0.8774 -0.7051 -0.2105
  226MOL   H14745597   6.403   4.718   4.308 -0.2290  1.3616 -0.9416
  226MOL   H14845598   6.534   4.777   4.207 -0.2167  1.6607  3.5518
  226MOL   H14945599   6.629   4.701   4.401  0.4782 -0.7542  0.0435
  226MOL   H15045600   6.561   4.538   4.388  0.7514  0.5828  1.2084
  226MOL   H15145601   6.779   4.641   4.222 -0.6049  0.7445 -0.5389
  226MOL   C15245602   6.750   4.451   4.233 -0.2875 -0.5303  0.3940
  226MOL   O15345603   6.679   4.351   4.254 -0.4467 -0.4388  0.0563
  226MOL   C15445604   6.892   4.431   4.179 -0.5779  0.3694  0.0971
  226MOL   C15545605   6.962   4.300   4.211  0.2462 -0.5283  0.2190
  226MOL   N15645606   6.994   4.287   4.356  0.0801  0.2897 -0.1944
  226MOL   H15745607   6.960   4.510   4.211  2.0769 -1.9990  0.4168
  226MOL   H15845608   6.885   4.429   4.071  1.1281  3.5878 -0.1460
  226MOL   H15945609   6.898   4.217   4.181  1.7941 -1.5911 -0.1696
  226MOL   H16045610   7.054   4.296   4.154 -0.2833 -0.2117 -0.6630
  226MOL   H16145611   6.938   4.241   4.426  0.2138 -0.1496 -0.3729
  226MOL   C16245612   7.111   4.332   4.404  0.4065  0.0866  0.3779
  226MOL   O16345613   7.182   4.400   4.331 -0.4534  0.0355  0.2385
  226MOL   C16445614   7.153   4.306   4.546 -0.2934 -0.3585  0.3390
  226MOL   C16545615   7.294   4.241   4.541  0.1210  0.8463  0.2119
  226MOL   N16645616   7.297   4.105   4.487 -0.0129 -0.3462 -0.2907
  226MOL   H16745617   7.085   4.242   4.603  0.9321 -1.2807  0.7939
  226MOL   H16845618   7.152   4.394   4.610 -2.3257 -0.8807  1.0750
  226MOL   H16945619   7.359   4.301   4.477  0.5036 -0.8319 -0.9886
  226MOL   H17045620   7.333   4.237   4.643 -1.6818  0.5709  0.9042
  226MOL   H17145621   7.319   4.098   4.389 -0.1816  2.0195 -0.5114
  226MOL   C17245622   7.254   3.994   4.538 -0.0719  0.5554 -0.3713
  226MOL   O17345623   7.223   3.991   4.659 -0.2096 -0.1408 -0.4244
  226MOL   C17445624   7.263   3.867   4.463  0.0335 -0.0235 -0.0226
  226MOL   C17545625   7.133   3.816   4.397  0.1950 -0.2359  0.1146
  226MOL   N17645626   7.075   3.700   4.476 -0.0641 -0.0739 -0.3541
  226MOL   H17745627   7.318   3.795   4.523  0.5319 -0.9953 -1.6073
  226MOL   H17845628   7.335   3.882   4.382  1.4379  0.6125  1.3099
  226MOL   H17945629   7.054   3.891   4.401 -0.0662 -0.6097  2.4657
  226MOL   H18045630   7.138   3.791   4.291 -4.0897 -0.4297 -0.1298
  226MOL   H18145631   7.106   3.694   4.572 -0.5342  3.2602  0.0755
  226MOL   C18245632   6.959   3.642   4.442  0.4690 -0.3155 -0.3827
  226MOL   O18345633   6.912   3.665   4.330  0.0864 -0.0313  0.7811
  226MOL   C18445634   6.892   3.543   4.530  0.0703 -0.5679  0.0347
  226MOL   C18545635   6.949   3.410   4.479  0.8547 -0.5569  0.6238
  226MOL   N18645636   6.907   3.302   4.565 -0.5918  0.3765  0.4472
  226MOL   H18745637   6.787   3.541   4.501  1.0624 -1.2714 -3.7933
  226MOL   H18845638   6.883   3.558   4.638  2.3123 -1.7617  0.4151
  226MOL   H18945639   6.905   3.405   4.380 -2.1338  1.0751  1.8126
  226MOL   H19045640   7.058   3.414   4.473  0.9386  1.9147  2.8394
  226MOL   H19145641   6.827   3.331   4.620 -1.4537  0.4715 -0.8339
  226MOL   C19245642   6.976   3.194   4.602  0.0010  0.3744  0.6208
  226MOL   O19345643   7.078   3.161   4.543 -0.0664 -0.2215 -0.1177
  226MOL   C19445644   6.915   3.117   4.723  0.2269 -0.0981 -0.2073
  226MOL   C19545645   6.912   2.964   4.717 -0.3745  0.0000  0.1448
  226MOL   N19645646   7.042   2.905   4.701 -0.6885  0.4499  0.1162
  226MOL   H19745647   6.977   3.145   4.807 -0.8803  0.0851  0.5594
  226MOL   H19845648   6.819   3.158   4.755  0.6877  1.9280 -1.3821
  226MOL   H19945649   6.863   2.925   4.807 -2.1361  2.9104  0.5094
  226MOL   H20045650   6.849   2.940   4.632 -2.5712  2.3189  1.0542
  226MOL   H20145651   7.031   2.806   4.684 -2.0480  0.5284  0.5170
  226MOL   H20245652   7.090   2.935   4.617 -0.4815 -2.4552 -0.8274
  227MOL     C145653   5.765   2.270   0.007  0.0164  0.3973  0.1762
  227MOL     O245654   5.731   2.200   0.101  0.5481  0.2330 -0.1475
  227MOL     C345655   5.867   2.385   0.018  0.3183 -0.6630  0.2461
  227MOL     C445656   5.974   2.398   7.692  0.3394 -0.3786 -0.0404
  227MOL     N545657   5.924   2.414   7.553 -0.4457 -0.2402  0.0113
  227MOL     H645658   5.928   2.367   0.106  2.4945 -0.2117 -1.1344
  227MOL     H745659   5.804   2.473   0.025  2.6681  1.1444 -0.8099
  227MOL     H845660   6.037   2.309   7.702 -0.8004 -0.9814  2.4385
  227MOL     H945661   6.036   2.483   7.720 -1.0154  0.9338 -0.9966
  227MOL    H1045662   5.862   2.490   7.531 -1.9441 -1.7905 -1.1626
  227MOL    H1145663   5.715   2.261   7.691  0.4850  1.2531 -0.1524
  227MOL    C1245664   5.915   2.309   7.464  0.0691 -0.0133 -0.6272
  227MOL    O1345665   5.956   2.198   7.490 -0.1807 -0.0935 -0.1274
  227MOL    C1445666   5.841   2.332   7.326 -0.1875 -0.1767  0.2108
  227MOL    C1545667   5.928   2.255   7.219  0.0615  0.3706 -0.4131
  227MOL    N1645668   5.866   2.264   7.088  0.0065 -0.1067  0.3531
  227MOL    H1745669   5.834   2.440   7.314  1.1756 -0.1000  0.0415
  227MOL    H1845670   5.746   2.279   7.325 -0.5561  0.4661  0.5301
  227MOL    H1945671   6.022   2.310   7.222 -0.0269  0.5625 -1.0663
  227MOL    H2045672   5.939   2.148   7.238  1.1987  0.7370  1.1376
  227MOL    H2145673   5.900   2.337   7.027  0.8643  0.6510  1.7201
  227MOL    C2245674   5.746   2.207   7.057 -0.0671 -0.1816  0.2813
  227MOL    O2345675   5.688   2.128   7.131 -0.4392  0.1042 -0.1559
  227MOL    C2445676   5.682   2.258   6.932 -0.1681 -0.0459  0.6535
  227MOL    C2545677   5.526   2.238   6.928 -0.2631  0.3905 -0.6112
  227MOL    N2645678   5.486   2.145   6.824 -1.0757 -0.7939 -0.2889
  227MOL    H2745679   5.727   2.214   6.843 -0.1087  0.7175  0.2999
  227MOL    H2845680   5.702   2.365   6.929  1.1931 -0.3184 -0.4195
  227MOL    H2945681   5.477   2.211   7.022  0.6404  1.5197  0.1956
  227MOL    H3045682   5.481   2.335   6.905 -0.0562 -0.3344 -4.4132
  227MOL    H3145683   5.468   2.052   6.856  1.7795 -0.8103  1.4094
  227MOL    C3245684   5.500   2.169   6.697  0.3001 -0.4639  0.2764
  227MOL    O3345685   5.541   2.277   6.660 -0.2006  0.5016  0.4739
  227MOL    C3445686   5.445   2.056   6.605 -0.4162  0.4634  0.1121
  227MOL    C3545687   5.557   1.970   6.542 -0.2660  0.5295 -0.1579
  227MOL    N3645688   5.692   2.024   6.545 -0.0026  0.2227 -0.0899
  227MOL    H3745689   5.386   2.107   6.530  1.3113  0.9742 -0.9274
  227MOL    H3845690   5.377   1.990   6.659  0.6861 -0.7022  0.1083
  227MOL    H3945691   5.567   1.879   6.601  0.5869 -0.3493 -1.6401
  227MOL    H4045692   5.522   1.938   6.444  0.9760 -1.3759 -0.0116
  227MOL    H4145693   5.732   2.012   6.637 -0.9733 -2.1199  0.0792
  227MOL    C4245694   5.759   2.077   6.445  0.1483  0.3210 -0.2629
  227MOL    O4345695   5.710   2.096   6.334  0.2050  0.7544 -0.0168
  227MOL    C4445696   5.904   2.117   6.472 -0.0547 -0.0772  0.2178
  227MOL    C4545697   5.952   2.223   6.380  0.1972  0.2456  0.1884
  227MOL    N4645698   6.085   2.267   6.423  0.3741 -0.1838  0.2444
  227MOL    H4745699   5.920   2.131   6.579 -1.9722 -0.3993  0.5671
  227MOL    H4845700   5.962   2.027   6.451  2.2046  1.1647  0.9211
  227MOL    H4945701   5.947   2.189   6.277  2.0334 -0.5018  0.3331
  227MOL    H5045702   5.877   2.302   6.381  0.4809  0.5071  2.1674
  227MOL    H5145703   6.129   2.233   6.507  5.0044  0.5084 -1.7191
  227MOL    C5245704   6.169   2.339   6.353 -0.5143  0.1106  0.7552
  227MOL    O5345705   6.133   2.384   6.245  0.0062  0.8660 -0.3854
  227MOL    C5445706   6.310   2.371   6.413  0.3418 -0.0816  0.2352
  227MOL    C5545707   6.381   2.473   6.332  0.2568 -0.7168 -0.4658
  227MOL    N5645708   6.519   2.437   6.297 -0.4197  0.1305  0.0800
  227MOL    H5745709   6.299   2.401   6.517  1.3608 -0.6948  0.5239
  227MOL    H5845710   6.357   2.273   6.413  1.1506  0.2829 -1.3742
  227MOL    H5945711   6.362   2.564   6.388 -1.5943  0.1295 -2.3733
  227MOL    H6045712   6.339   2.493   6.233 -2.0994  1.1930  0.8852
  227MOL    H6145713   6.550   2.342   6.312 -2.7406 -0.4134  1.7399
  227MOL    C6245714   6.600   2.522   6.240  0.3281  0.5244  0.0617
  227MOL    O6345715   6.566   2.636   6.218 -0.2358  0.5511  0.2722
  227MOL    C6445716   6.741   2.469   6.240 -0.1655  0.2850  0.3927
  227MOL    C6545717   6.812   2.504   6.113  0.3760  0.6510 -0.2097
  227MOL    N6645718   6.954   2.509   6.150 -0.1039 -0.0560  0.1272
  227MOL    H6745719   6.777   2.521   6.328 -0.6880 -0.6170  1.1451
  227MOL    H6845720   6.756   2.364   6.264  2.3816  0.1210 -1.7119
  227MOL    H6945721   6.789   2.424   6.043  0.8651  1.0526 -0.8360
  227MOL    H7045722   6.785   2.599   6.066 -1.6720  0.8025  1.2171
  227MOL    H7145723   6.986   2.599   6.180  0.2030 -0.9834  2.7086
  227MOL    C7245724   7.038   2.405   6.154 -0.0373  0.1860 -0.6269
  227MOL    O7345725   7.006   2.288   6.141  0.8511 -0.0369 -0.4336
  227MOL    C7445726   7.183   2.439   6.185  0.2353 -0.0709 -0.0207
  227MOL    C7545727   7.242   2.362   6.310 -0.3929  1.0530 -0.1030
  227MOL    N7645728   7.378   2.380   6.305  0.6324  0.0640  0.0644
  227MOL    H7745729   7.242   2.415   6.097  1.2231  0.9258  0.3626
  227MOL    H7845730   7.199   2.545   6.202  3.7808 -0.3936 -1.1086
  227MOL    H7945731   7.208   2.401   6.406 -0.1468  1.2057 -0.0783
  227MOL    H8045732   7.219   2.256   6.312 -2.2107  1.4290  1.0996
  227MOL    H8145733   7.408   2.448   6.373 -0.6707  1.9655 -1.2171
  227MOL    C8245734   7.470   2.320   6.235  0.0243  0.0427 -0.0712
  227MOL    O8345735   7.449   2.241   6.143  0.6434 -0.1434 -0.3497
  227MOL    C8445736   7.617   2.356   6.267  0.4396  0.3064 -0.0700
  227MOL    C8545737   7.720   2.309   6.160 -0.8754  0.5498  0.4851
  227MOL    N8645738   0.073   2.352   6.194 -0.1118  0.0479  0.4982
  227MOL    H8745739   7.621   2.464   6.274  1.8694  0.2335  0.3631
  227MOL    H8845740   7.644   2.304   6.359  1.1490 -0.6784 -0.8319
  227MOL    H8945741   7.719   2.201   6.173  1.6596  0.7568  3.1177
  227MOL    H9045742   7.687   2.328   6.058 -1.0210  0.7593  0.5718
  227MOL    H9145743   0.134   2.282   6.234 -0.2052 -0.5464 -0.3937
  227MOL    C9245744   0.122   2.477   6.190  0.1161 -0.2131  0.4379
  227MOL    O9345745   0.059   2.574   6.151  0.8727 -0.1133  0.2669
  227MOL    C9445746   0.259   2.498   6.254  0.6243  0.9785  0.0191
  227MOL    C9545747   0.363   2.521   6.139  0.2040 -0.5327  0.0738
  227MOL    N9645748   0.376   2.401   6.054  0.1092 -0.1785  0.0791
  227MOL    H9745749   0.253   2.593   6.306 -1.5202  0.3238  1.0382
  227MOL    H9845750   0.290   2.411   6.313  0.3818  0.6363 -0.3563
  227MOL    H9945751   0.329   2.605   6.079 -0.5352  0.0998  1.3789
  227MOL   H10045752   0.459   2.556   6.178  0.6134 -3.0497  1.4323
  227MOL   H10145753   0.360   2.418   5.955 -0.0367  1.8703  0.4430
  227MOL   C10245754   0.427   2.284   6.086  0.5372 -0.7915  0.2122
  227MOL   O10345755   0.478   2.265   6.195  0.5959  0.0094  0.4267
  227MOL   C10445756   0.413   2.170   5.983 -0.3243  0.4293 -0.1531
  227MOL   C10545757   0.406   2.029   6.038 -0.6591  0.7155 -0.4130
  227MOL   N10645758   0.333   1.941   5.952 -0.1478  0.0545 -0.0364
  227MOL   H10745759   0.496   2.168   5.912  1.3647 -0.0933  1.7860
  227MOL   H10845760   0.325   2.192   5.922 -0.1688 -1.9859 -1.3199
  227MOL   H10945761   0.505   1.987   6.053 -2.1487 -2.1990  1.7284
  227MOL   H11045762   0.361   2.022   6.137  0.0710  0.5162 -0.0904
  227MOL   H11145763   0.236   1.966   5.938  0.6078  2.1272 -1.8157
  227MOL   C11245764   0.372   1.815   5.915 -0.3444  0.1455 -0.1032
  227MOL   O11345765   0.488   1.773   5.924  0.3341 -0.6699 -0.4814
  227MOL   C11445766   0.264   1.726   5.872  0.3877 -0.1359  0.8708
  227MOL   C11545767   0.211   1.757   5.736 -0.2821  0.2392  1.1558
  227MOL   N11645768   0.293   1.690   5.635 -0.5522  0.0088  0.1227
  227MOL   H11745769   0.182   1.730   5.943 -0.6393  0.1980 -0.3054
  227MOL   H11845770   0.297   1.622   5.878  2.2106  0.5339  2.9344
  227MOL   H11945771   0.110   1.716   5.735 -0.3053  0.1916 -2.7901
  227MOL   H12045772   0.206   1.864   5.715 -0.5327  0.1963  0.9788
  227MOL   H12145773   0.379   1.733   5.603 -0.4721  0.6054  1.1319
  227MOL   C12245774   0.268   1.578   5.568  0.8830 -0.6283 -0.3017
  227MOL   O12345775   0.160   1.522   5.571  0.0939 -0.8262  0.1289
  227MOL   C12445776   0.381   1.533   5.473  0.7332  0.1727 -0.1938
  227MOL   C12545777   0.329   1.517   5.329  0.1965 -0.4931 -0.2925
  227MOL   N12645778   0.445   1.491   5.244  0.1039 -0.6065  0.7267
  227MOL   H12745779   0.434   1.443   5.502 -1.0269 -1.3591 -1.5694
  227MOL   H12845780   0.446   1.620   5.465  1.7087 -0.6662 -1.4526
  227MOL   H12945781   0.245   1.447   5.330 -1.6192  1.6023 -0.5224
  227MOL   H13045782   0.283   1.608   5.289 -0.7620 -1.5326 -1.5922
  227MOL   H13145783   0.487   1.573   5.201  0.4554  0.0023  2.2187
  227MOL   C13245784   0.506   1.370   5.228  0.7095  0.3315  0.0178
  227MOL   O13345785   0.470   1.272   5.288  0.5628 -0.3412 -0.0656
  227MOL   C13445786   0.625   1.358   5.138 -0.6731 -0.4716 -0.2097
  227MOL   C13545787   0.715   1.233   5.161  0.2658 -0.8795 -0.5810
  227MOL   N13645788   0.855   1.242   5.119 -0.1152  0.5384  0.3983
  227MOL   H13745789   0.682   1.451   5.143 -0.0782 -0.8663  0.5917
  227MOL   H13845790   0.591   1.365   5.035 -2.6410 -0.8782  0.4038
  227MOL   H13945791   0.720   1.239   5.270  0.2084  0.1828 -0.6333
  227MOL   H14045792   0.669   1.140   5.128  0.7572 -1.2123 -0.3354
  227MOL   H14145793   0.882   1.311   5.049  0.9690 -0.5814 -0.3045
  227MOL   C14245794   0.956   1.184   5.178  0.3432  0.5170  0.7408
  227MOL   O14345795   0.946   1.095   5.262  0.8031  0.0445 -0.3089
  227MOL   C14445796   1.096   1.220   5.124  1.0917 -0.9073 -0.5107
  227MOL   C14545797   1.203   1.119   5.139 -0.1542  0.0701  0.6875
  227MOL   N14645798   1.185   0.987   5.069 -0.7736 -0.1514 -0.4856
  227MOL   H14745799   1.116   1.305   5.189 -3.6863  0.2443 -0.3722
  227MOL   H14845800   1.102   1.243   5.018  3.2450  0.1999 -0.1708
  227MOL   H14945801   1.292   1.173   5.108  0.9809 -1.2917  1.5268
  227MOL   H15045802   1.227   1.095   5.243 -1.1762 -1.1738  0.6544
  227MOL   H15145803   1.154   0.900   5.111 -0.8182 -0.1842 -0.5840
  227MOL   C15245804   1.193   0.968   4.938  0.1829  0.2072 -0.9225
  227MOL   O15345805   1.229   1.062   4.867  0.2737  0.0581  0.0214
  227MOL   C15445806   1.177   0.825   4.890  0.3198 -0.7948  0.0878
  227MOL   C15545807   1.303   0.787   4.799  0.3356  0.1743 -0.3691
  227MOL   N15645808   1.293   0.652   4.756 -0.0378  0.1310  0.2408
  227MOL   H15745809   1.087   0.813   4.829 -0.2020  0.0792  0.6733
  227MOL   H15845810   1.192   0.753   4.970  3.2770 -1.1299 -0.6960
  227MOL   H15945811   1.312   0.844   4.707  1.3843  2.4414  1.0942
  227MOL   H16045812   1.395   0.805   4.855 -0.1674 -0.8192  0.8201
  227MOL   H16145813   1.337   0.575   4.804  1.4306 -1.0364 -2.8489
  227MOL   C16245814   1.219   0.604   4.649 -0.4158 -0.6489 -0.7921
  227MOL   O16345815   1.166   0.681   4.567  0.1617 -0.1210 -0.3929
  227MOL   C16445816   1.204   0.453   4.624 -0.5990  0.5031 -0.1789
  227MOL   C16545817   1.287   0.415   4.503 -0.4423  0.7162  0.5718
  227MOL   N16645818   1.285   0.277   4.475 -0.0256  1.1904 -0.1192
  227MOL   H16745819   1.096   0.433   4.623 -0.9500  2.1534  1.1506
  227MOL   H16845820   1.240   0.405   4.715 -1.1340 -0.8113 -0.6373
  227MOL   H16945821   1.267   0.470   4.411  2.2811  0.5145 -0.1956
  227MOL   H17045822   1.392   0.431   4.527  0.0224 -2.5858  1.0304
  227MOL   H17145823   1.378   0.238   4.481  0.3568  2.1169 -0.0980
  227MOL   C17245824   1.178   0.209   4.428  0.4523 -0.4237 -0.7442
  227MOL   O17345825   1.071   0.271   4.420 -0.2841 -0.0711 -0.1866
  227MOL   C17445826   1.188   0.061   4.380  0.2076  0.2961  0.1346
  227MOL   C17545827   1.125   0.044   4.246 -0.1960  0.4587  0.4847
  227MOL   N17645828   1.202   0.132   4.151 -0.1398 -0.1503 -0.1013
  227MOL   H17745829   1.135   7.778   4.451 -1.8418  0.8523 -0.8711
  227MOL   H17845830   1.293   0.032   4.385 -0.1773 -0.8533  2.1898
  227MOL   H17945831   1.128   7.717   4.228 -1.7457  0.0553  2.4359
  227MOL   H18045832   1.020   0.073   4.245 -0.1233  0.7114 -0.4306
  227MOL   H18145833   1.291   0.172   4.175  0.2613 -0.1017 -1.5858
  227MOL   C18245834   1.169   0.131   4.022  0.0362 -0.2450 -0.6030
  227MOL   O18345835   1.057   0.084   3.989 -0.0241  0.0659 -0.6434
  227MOL   C18445836   1.261   0.189   3.917  0.3776 -0.1494  0.4808
  227MOL   C18545837   1.214   0.194   3.764 -0.0128  0.2853 -0.2357
  227MOL   N18645838   1.115   0.298   3.730  0.4795 -0.4044  0.2607
  227MOL   H18745839   1.352   0.130   3.927  1.6298  1.9378  1.9179
  227MOL   H18845840   1.290   0.289   3.949  2.1463 -0.0883 -1.2085
  227MOL   H18945841   1.307   0.210   3.708  0.0240 -0.0855 -0.2790
  227MOL   H19045842   1.178   0.095   3.738  1.8994 -0.7988  1.1222
  227MOL   H19145843   1.051   0.323   3.804 -1.1022  1.3854 -1.6405
  227MOL   C19245844   1.095   0.367   3.619  0.0973 -0.3452 -0.3163
  227MOL   O19345845   1.170   0.344   3.523  0.2253 -0.5001 -0.0989
  227MOL   C19445846   0.981   0.471   3.601  0.0482 -0.4198 -0.1856
  227MOL   C19545847   0.984   0.567   3.479 -0.0498  0.7644  0.3822
  227MOL   N19645848   0.950   0.504   3.349  0.5293  0.4989  0.1140
  227MOL   H19745849   0.881   0.429   3.590 -0.3669 -0.0030  1.8740
  227MOL   H19845850   0.973   0.527   3.694 -0.1300  0.4394 -0.7102
  227MOL   H19945851   0.911   0.645   3.499  0.1314  0.9829  0.1864
  227MOL   H20045852   1.085   0.607   3.477  0.3035 -0.1490 -1.0158
  227MOL   H20145853   0.957   0.567   3.270 -1.2923 -0.5786 -0.9431
  227MOL   H20245854   1.016   0.430   3.328  0.9153  0.6949  0.6192
  228MOL     C145855   2.759   1.549   1.559  0.0879 -0.1866 -0.1600
  228MOL     O245856   2.660   1.594   1.613  0.2344 -0.2855 -0.1119
  228MOL     C345857   2.792   1.548   1.408  0.2113  0.1871  0.3339
  228MOL     C445858   2.873   1.670   1.372 -0.4603 -0.0753 -0.5656
  228MOL     N545859   2.865   1.691   1.226  0.3123 -0.3058 -0.3066
  228MOL     H645860   2.707   1.546   1.340 -0.6073  1.3651  1.3261
  228MOL     H745861   2.861   1.465   1.390  1.2106  0.7749  1.3747
  228MOL     H845862   2.976   1.653   1.404 -0.7481 -0.0179  0.4139
  228MOL     H945863   2.821   1.758   1.409 -1.1223 -0.0171 -1.6220
  228MOL    H1045864   2.799   1.760   1.191  0.3146  0.0446  0.3738
  228MOL    H1145865   2.832   1.502   1.625  1.0326 -1.3091 -1.9313
  228MOL    C1245866   2.926   1.617   1.138 -0.4513  0.2367  0.0432
  228MOL    O1345867   3.006   1.531   1.166  0.3487 -0.1166 -0.4957
  228MOL    C1445868   2.897   1.662   0.993 -0.6182 -0.0347  0.8553
  228MOL    C1545869   2.995   1.597   0.885 -1.2320 -0.0138 -0.1760
  228MOL    N1645870   3.037   1.695   0.785 -0.0476  0.2153 -0.0603
  228MOL    H1745871   2.898   1.771   0.985 -0.0380 -0.0024  1.3126
  228MOL    H1845872   2.797   1.626   0.968 -0.2428 -0.4859 -0.0308
  228MOL    H1945873   3.087   1.563   0.932 -0.7774 -0.4168 -1.3131
  228MOL    H2045874   2.961   1.499   0.852 -2.5445  0.6295 -0.7648
  228MOL    H2145875   2.997   1.674   0.695 -0.3817  0.3328  0.0618
  228MOL    C2245876   3.139   1.779   0.799  0.9322 -0.1810 -0.1097
  228MOL    O2345877   3.209   1.800   0.900  0.3072 -0.0400  0.4684
  228MOL    C2445878   3.188   1.847   0.671 -0.0775  0.3329  0.1351
  228MOL    C2545879   3.261   1.980   0.699 -0.2045 -0.6363  0.1695
  228MOL    N2645880   3.314   2.028   0.573  0.5132 -0.0471 -0.4066
  228MOL    H2745881   3.106   1.857   0.599  1.2332  3.2661 -1.0263
  228MOL    H2845882   3.255   1.770   0.635 -1.2251 -0.4703 -0.3077
  228MOL    H2945883   3.193   2.057   0.737 -1.6531 -0.9831 -1.6685
  228MOL    H3045884   3.339   1.963   0.773 -0.7292 -3.1230  0.1747
  228MOL    H3145885   3.253   2.066   0.502 -0.0221 -0.3347 -0.1019
  228MOL    C3245886   3.445   2.053   0.552 -0.2339 -0.1245 -0.3251
  228MOL    O3345887   3.533   2.007   0.628 -0.0621  0.2049  0.2271
  228MOL    C3445888   3.497   2.132   0.442  0.1710  0.1339 -0.6314
  228MOL    C3545889   3.591   2.244   0.474 -0.0744 -0.4087 -0.2804
  228MOL    N3645890   3.531   2.374   0.495  0.1290 -0.0156  0.0207
  228MOL    H3745891   3.428   2.170   0.367  0.8845 -0.1767 -1.4509
  228MOL    H3845892   3.553   2.057   0.386  1.3585  1.4267 -1.1964
  228MOL    H3945893   3.660   2.214   0.553  0.5275 -0.2862 -0.7540
  228MOL    H4045894   3.642   2.264   0.380  0.1110  0.0513 -0.0857
  228MOL    H4145895   3.513   2.442   0.422 -2.1408 -0.8044 -0.1932
  228MOL    C4245896   3.479   2.420   0.614  0.1336 -0.6148  0.1912
  228MOL    O4345897   3.488   2.357   0.719  0.1632  0.1699 -0.3222
  228MOL    C4445898   3.416   2.555   0.603  0.0079 -0.6563  0.3365
  228MOL    C4545899   3.258   2.541   0.645  0.1055 -0.7849  0.1156
  228MOL    N4645900   3.180   2.660   0.613 -0.4589  0.4165  0.2896
  228MOL    H4745901   3.478   2.621   0.665  0.9061 -1.7793  0.6487
  228MOL    H4845902   3.413   2.601   0.504  2.3794  0.4039  0.7156
  228MOL    H4945903   3.211   2.452   0.604 -1.1858  0.3525 -0.9222
  228MOL    H5045904   3.257   2.524   0.753 -0.0366  0.8974  0.3878
  228MOL    H5145905   3.120   2.661   0.533 -1.6870 -0.5829  1.1839
  228MOL    C5245906   3.212   2.777   0.674  0.9723 -0.8647  0.3011
  228MOL    O5345907   3.285   2.794   0.772  0.4202 -0.4169  0.3821
  228MOL    C5445908   3.145   2.900   0.604 -0.5213  0.8246  0.1714
  228MOL    C5545909   2.988   2.896   0.611 -0.9561 -0.2155  1.0089
  228MOL    N5645910   2.920   2.881   0.485  0.0151  0.7364 -0.9303
  228MOL    H5745911   3.200   2.988   0.636 -1.2992  1.3646  0.0322
  228MOL    H5845912   3.164   2.894   0.497 -1.5330 -0.9877  0.0674
  228MOL    H5945913   2.954   2.982   0.668 -2.5903  0.3289 -0.7598
  228MOL    H6045914   2.960   2.813   0.677 -1.5293  0.3327  1.4509
  228MOL    H6145915   2.876   2.966   0.452 -1.9266 -0.5520 -1.7699
  228MOL    C6245916   2.911   2.777   0.400  0.9843 -0.1298 -0.0060
  228MOL    O6345917   2.948   2.661   0.429  0.6784  0.6498  0.5687
  228MOL    C6445918   2.853   2.826   0.262  0.1144  0.1826 -0.4296
  228MOL    C6545919   2.818   2.731   0.156  1.1589 -0.1380  0.4423
  228MOL    N6645920   2.740   2.617   0.203 -0.2723 -0.4529  0.4354
  228MOL    H6745921   2.761   2.882   0.279  2.0369  2.8125  1.8443
  228MOL    H6845922   2.920   2.900   0.219  1.9781 -1.2378 -0.0381
  228MOL    H6945923   2.769   2.773   0.069  2.0087 -1.3962 -0.6675
  228MOL    H7045924   2.914   2.699   0.115  1.0386  0.6989 -0.4884
  228MOL    H7145925   2.717   2.608   0.301 -0.7651 -0.7853  0.2870
  228MOL    C7245926   2.714   2.515   0.124  0.1601 -0.0615  0.8828
  228MOL    O7345927   2.749   2.507   0.005  0.0759 -0.4539 -0.3315
  228MOL    C7445928   2.639   2.392   0.181  0.0185  0.6705  0.7231
  228MOL    C7545929   2.642   2.265   0.098 -0.0957  0.2995  0.7867
  228MOL    N7645930   2.525   2.183   0.106  0.2839  0.2598 -0.0133
  228MOL    H7745931   2.664   2.378   0.286  0.0691  2.0167  0.9055
  228MOL    H7845932   2.534   2.421   0.179  0.2889  1.6587  0.6224
  228MOL    H7945933   2.644   2.297   7.774 -0.6679 -5.3103 -1.1222
  228MOL    H8045934   2.734   2.210   0.122  0.4148  1.7215  2.1892
  228MOL    H8145935   2.452   2.194   0.038 -0.1033 -0.5715  0.2602
  228MOL    C8245936   2.506   2.080   0.192 -0.0971 -0.3193 -0.4303
  228MOL    O8345937   2.590   2.059   0.276 -0.4497 -0.7849  0.3777
  228MOL    C8445938   2.385   1.986   0.168 -0.8704 -0.2144  0.0205
  228MOL    C8545939   2.416   1.862   0.080 -0.2403  0.3659 -0.4485
  228MOL    N8645940   2.287   1.785   0.064 -0.4350  0.0349  0.7356
  228MOL    H8745941   2.364   1.945   0.267 -1.0035 -0.1244  0.0288
  228MOL    H8845942   2.301   2.040   0.125 -0.6305  1.9313  2.0962
  228MOL    H8945943   2.437   1.889   7.756  0.6170 -0.9785 -0.6280
  228MOL    H9045944   2.488   1.804   0.137 -0.9537 -1.0032 -0.9088
  228MOL    H9145945   2.202   1.832   0.092 -0.8718  0.9485 -1.9783
  228MOL    C9245946   2.286   1.656   0.020  0.3575 -0.0173  1.4177
  228MOL    O9345947   2.389   1.594   0.018 -0.0992 -0.7039  0.4271
  228MOL    C9445948   2.151   1.594   7.767  1.1853 -0.0634 -0.6667
  228MOL    C9545949   2.107   1.485   0.087 -0.0143 -0.4531 -0.4694
  228MOL    N9645950   1.959   1.469   0.085  0.0428  0.1053 -0.0175
  228MOL    H9745951   2.076   1.672   7.758 -1.7240 -2.6346  0.3587
  228MOL    H9845952   2.135   1.558   7.665  1.5320 -0.3331 -0.6283
  228MOL    H9945953   2.152   1.389   0.064  0.9306 -0.0948 -0.1706
  228MOL   H10045954   2.157   1.508   0.182 -1.6930 -0.2605  0.4036
  228MOL   H10145955   1.912   1.508   0.005  0.1520 -0.1928 -0.2255
  228MOL   C10245956   1.892   1.402   0.180  0.6519  1.0043  0.4680
  228MOL   O10345957   1.938   1.347   0.279  0.4579 -0.0270  0.1679
  228MOL   C10445958   1.739   1.399   0.156  0.0831  0.1651 -0.4010
  228MOL   C10545959   1.661   1.306   0.246  0.2080  1.0593  0.6885
  228MOL   N10645960   1.671   1.173   0.187 -0.1207 -0.0895  0.4100
  228MOL   H10745961   1.716   1.391   0.050  0.8979 -2.5592 -0.4052
  228MOL   H10845962   1.699   1.495   0.189 -0.6687 -0.4051  0.3644
  228MOL   H10945963   1.697   1.296   0.348 -2.4897 -1.6445  1.4605
  228MOL   H11045964   1.558   1.341   0.253 -0.1612  0.1434 -0.0545
  228MOL   H11145965   1.705   1.159   0.092 -0.0611 -1.3740  0.6105
  228MOL   C11245966   1.631   1.059   0.245  0.1298 -0.2313 -0.1465
  228MOL   O11345967   1.589   1.055   0.361  0.2406 -0.4897 -0.4747
  228MOL   C11445968   1.644   0.928   0.159 -0.3547 -0.0132  0.1698
  228MOL   C11545969   1.597   0.800   0.221  0.3720 -0.8143  0.1192
  228MOL   N11645970   1.547   0.711   0.106  0.1121 -0.9951 -0.1289
  228MOL   H11745971   1.749   0.926   0.131 -0.1602  0.0973  0.8681
  228MOL   H11845972   1.580   0.950   0.074  0.5302  1.0563 -0.2371
  228MOL   H11945973   1.681   0.745   0.262  0.4083 -1.3186 -0.6310
  228MOL   H12045974   1.520   0.823   0.295  0.6419 -1.3889  0.5838
  228MOL   H12145975   1.549   0.761   0.019 -0.5570  0.8918  0.8938
  228MOL   C12245976   1.482   0.600   0.121 -0.4233  0.0203  0.5273
  228MOL   O12345977   1.465   0.546   0.230 -0.0958  0.2207 -0.2049
  228MOL   C12445978   1.428   0.543   7.770 -0.3750 -0.1949  0.2270
  228MOL   C12545979   1.279   0.587   7.740 -0.3791  0.1681 -0.6384
  228MOL   N12645980   1.177   0.512   0.038 -0.4383 -0.5581  0.1493
  228MOL   H12745981   1.426   0.434   7.771 -1.2168 -0.1932  2.1457
  228MOL   H12845982   1.497   0.579   7.694  0.1756 -2.2209 -0.2540
  228MOL   H12945983   1.271   0.695   7.751 -0.1293  0.0122  1.0859
  228MOL   H13045984   1.268   0.564   7.634  0.9901  0.9482 -0.9673
  228MOL   H13145985   1.166   0.414   0.019 -1.7523 -0.2905 -0.5077
  228MOL   C13245986   1.107   0.577   0.130 -0.0883 -0.2458 -0.0360
  228MOL   O13345987   1.110   0.697   0.145 -0.4329 -0.4618  0.0199
  228MOL   C13445988   0.998   0.495   0.205 -1.0252  0.0952 -0.2250
  228MOL   C13545989   0.851   0.552   0.200 -0.0115  0.0312  0.6019
  228MOL   N13645990   0.796   0.548   0.064  0.5617 -0.0910 -0.4274
  228MOL   H13745991   1.037   0.492   0.307 -2.0387 -1.4921  0.1394
  228MOL   H13845992   0.995   0.389   0.177  0.1480  0.5004 -1.8919
  228MOL   H13945993   0.784   0.500   0.268  0.9331 -0.7357  0.9578
  228MOL   H14045994   0.858   0.654   0.238 -2.1953  0.0420  1.0396
  228MOL   H14145995   0.806   0.636   0.016 -0.9095 -0.8182 -2.1327
  228MOL   C14245996   0.769   0.432   0.004  1.1490  1.0095 -0.6804
  228MOL   O14345997   0.755   0.325   0.065  0.1296 -0.0265 -1.0549
  228MOL   C14445998   0.737   0.436   7.633 -0.0431  0.0946  0.1436
  228MOL   C14545999   0.758   0.299   7.567  0.5690 -0.2664 -0.2634
  228MOL   N14646000   0.735   0.323   7.425  0.0627  0.1288  0.4051
  228MOL   H14746001   0.817   0.500   7.596  1.4188 -1.7781 -0.0090
  228MOL   H14846002   0.642   0.484   7.611  0.0356  1.8324  3.2329
  228MOL   H14946003   0.861   0.266   7.576  0.1978 -1.4955 -0.4291
  228MOL   H15046004   0.692   0.225   7.614  0.2185 -0.6587 -1.3588
  228MOL   H15146005   0.717   0.418   7.397 -2.6939  0.1152  2.0088
  228MOL   C15246006   0.714   0.227   7.337 -0.1324  0.4004  0.3480
  228MOL   O15346007   0.702   0.112   7.373 -0.5395 -0.4596  0.5270
  228MOL   C15446008   0.683   0.261   7.192  0.3380  0.3001  0.1298
  228MOL   C15546009   0.780   0.198   7.085  0.0339  0.0313 -0.6127
  228MOL   N15646010   0.725   0.075   7.042 -0.0575 -0.6328  0.0200
  228MOL   H15746011   0.690   0.365   7.160  3.0647 -0.5931 -2.5530
  228MOL   H15846012   0.582   0.224   7.178 -0.2063  1.2292  1.5929
  228MOL   H15946013   0.783   0.269   7.003  1.0373  0.3344 -0.3209
  228MOL   H16046014   0.880   0.190   7.128 -0.2702  0.5740  0.2323
  228MOL   H16146015   0.636   0.046   7.080 -0.3644  1.3500  0.8941
  228MOL   C16246016   0.793   0.000   6.957 -0.3796 -0.3829  1.1446
  228MOL   O16346017   0.907   0.030   6.921 -0.5224  0.9328 -0.0765
  228MOL   C16446018   0.717   7.651   6.905 -0.1400  0.3782 -0.3794
  228MOL   C16546019   0.804   7.539   6.847 -0.2413 -0.3438 -0.6326
  228MOL   N16646020   0.720   7.423   6.791 -0.1696 -0.1524 -0.6933
  228MOL   H16746021   0.644   7.685   6.832 -1.2144  1.0050  0.9718
  228MOL   H16846022   0.666   7.601   6.987  0.2425  0.2328 -0.2325
  228MOL   H16946023   0.849   7.577   6.755 -1.5039  2.7244 -0.0367
  228MOL   H17046024   0.869   7.499   6.925  0.2830 -0.0429 -0.9127
  228MOL   H17146025   0.715   7.412   6.691  1.6574 -1.8713 -0.6154
  228MOL   C17246026   0.692   7.319   6.866  0.0169  0.4265 -0.1459
  228MOL   O17346027   0.721   7.321   6.988  0.6471  0.4331 -0.1468
  228MOL   C17446028   0.615   7.199   6.800 -0.3538  0.1783 -0.3328
  228MOL   C17546029   0.701   7.077   6.791  0.0752 -0.2565  0.0490
  228MOL   N17646030   0.768   7.040   6.919  0.1028 -0.4630  0.3691
  228MOL   H17746031   0.577   7.222   6.701 -0.9684  1.1584  0.1278
  228MOL   H17846032   0.534   7.168   6.867 -0.9249 -0.7196 -1.4165
  228MOL   H17946033   0.642   6.986   6.777  1.0026 -0.7332 -0.7980
  228MOL   H18046034   0.770   7.082   6.707 -0.4268 -1.9280 -0.4835
  228MOL   H18146035   0.714   7.047   7.004 -0.8322  0.3686 -0.2816
  228MOL   C18246036   0.901   7.056   6.935 -0.7731 -0.4098 -0.3770
  228MOL   O18346037   0.983   7.091   6.850  0.0300  0.2267  0.3858
  228MOL   C18446038   0.956   7.018   7.080  0.3009 -0.1874  0.3840
  228MOL   C18546039   1.023   7.145   7.148 -0.1631  0.0114  0.5364
  228MOL   N18646040   0.921   7.233   7.194  0.6457 -0.2304 -0.2558
  228MOL   H18746041   1.021   6.933   7.060 -2.0717 -1.9681  0.0594
  228MOL   H18846042   0.884   6.977   7.150  0.1153  1.5688  1.2564
  228MOL   H18946043   1.094   7.120   7.227 -0.4465  2.3178  1.5520
  228MOL   H19046044   1.077   7.196   7.068  0.3659 -1.4749 -0.0897
  228MOL   H19146045   0.845   7.245   7.128  0.3762  0.3706  0.1615
  228MOL   C19246046   0.919   7.296   7.313  0.4065  0.4065 -0.3296
  228MOL   O19346047   1.021   7.304   7.374  0.3058 -0.2136 -0.7605
  228MOL   C19446048   0.789   7.356   7.347 -0.9746  0.6027 -0.3389
  228MOL   C19546049   0.785   7.448   7.473 -0.2874 -0.3134  0.2602
  228MOL   N19646050   0.828   7.586   7.457  0.2880 -0.8770  0.4370
  228MOL   H19746051   0.736   7.391   7.258  1.6700  0.5972 -1.9668
  228MOL   H19846052   0.740   7.262   7.376 -0.0370 -0.0731 -0.9021
  228MOL   H19946053   0.678   7.454   7.490 -0.0632  1.8106  0.9772
  228MOL   H20046054   0.824   7.396   7.561 -1.8086  1.6610  2.1486
  228MOL   H20146055   0.830   7.634   7.546 -1.1682  0.5139 -0.2569
  228MOL   H20246056   0.753   7.633   7.410  1.2000 -0.2689 -0.4266
  229MOL     C146057   4.320   5.014   2.451 -0.5029 -0.8101 -0.0528
  229MOL     O246058   4.296   5.127   2.502  0.6694  0.1792 -0.0934
  229MOL     C346059   4.377   4.897   2.533 -0.5284 -0.8152 -0.1719
  229MOL     C446060   4.473   4.931   2.649  0.3541 -0.7434  0.4491
  229MOL     N546061   4.468   4.824   2.749 -0.1955  0.1091 -0.1645
  229MOL     H646062   4.436   4.844   2.457  0.0322 -0.9226  0.3307
  229MOL     H746063   4.304   4.823   2.565  1.1970 -1.9582  1.2421
  229MOL     H846064   4.433   5.016   2.705  0.9643 -0.2723  0.1619
  229MOL     H946065   4.575   4.954   2.619  0.7483 -2.2656  0.5478
  229MOL    H1046066   4.548   4.766   2.766 -0.9529 -0.5098  1.3833
  229MOL    H1146067   4.310   5.002   2.343  0.9819 -0.5645 -0.2357
  229MOL    C1246068   4.367   4.805   2.832 -0.4654 -0.0727  0.4686
  229MOL    O1346069   4.273   4.886   2.845 -0.2883  0.0379  0.1555
  229MOL    C1446070   4.373   4.677   2.916 -0.1465 -0.1549 -0.1516
  229MOL    C1546071   4.397   4.693   3.066  0.0817 -0.3565 -0.7907
  229MOL    N1646072   4.541   4.691   3.116  0.1982  0.2316  0.4801
  229MOL    H1746073   4.446   4.612   2.867  1.8770  1.2393  0.9334
  229MOL    H1846074   4.278   4.627   2.899  1.3021 -2.3584 -2.2692
  229MOL    H1946075   4.356   4.787   3.103 -1.1914 -1.8464  1.8206
  229MOL    H2046076   4.336   4.623   3.124  1.9269 -1.4010 -0.0470
  229MOL    H2146077   4.596   4.608   3.099  0.3854  0.0591  1.8954
  229MOL    C2246078   4.597   4.786   3.185  0.5617 -0.9894 -0.8207
  229MOL    O2346079   4.553   4.895   3.192  0.9360 -0.1812 -0.0866
  229MOL    C2446080   4.734   4.769   3.249 -0.1578 -0.1674  0.0876
  229MOL    C2546081   4.732   4.819   3.398  0.2223  0.3547 -0.3652
  229MOL    N2646082   4.648   4.727   3.477 -0.3813  0.0302  0.5154
  229MOL    H2746083   4.797   4.833   3.187 -0.9318  0.9252  0.4103
  229MOL    H2846084   4.778   4.669   3.245 -1.1321 -0.5839 -0.4240
  229MOL    H2946085   4.833   4.820   3.436 -0.1811  0.1524  0.7239
  229MOL    H3046086   4.702   4.923   3.406  0.3769  0.3064  0.8778
  229MOL    H3146087   4.549   4.746   3.483 -0.8944 -1.3881 -2.4554
  229MOL    C3246088   4.701   4.616   3.538  0.7369 -0.0943 -0.3106
  229MOL    O3346089   4.819   4.580   3.529  0.0859  0.4844  0.2237
  229MOL    C3446090   4.605   4.519   3.623 -0.3545 -0.7678 -0.3153
  229MOL    C3546091   4.655   4.458   3.757  0.2585  0.1778 -0.1774
  229MOL    N3646092   4.691   4.572   3.835 -0.2518  0.0672  0.0939
  229MOL    H3746093   4.568   4.437   3.561 -0.2518 -1.4881  0.5673
  229MOL    H3846094   4.514   4.575   3.645 -0.7469 -1.8262  0.8371
  229MOL    H3946095   4.583   4.405   3.820 -1.4271  2.2036 -0.3735
  229MOL    H4046096   4.735   4.388   3.731  0.0849 -0.6485  1.4103
  229MOL    H4146097   4.612   4.633   3.854  0.0254  0.2295  0.7284
  229MOL    C4246098   4.814   4.602   3.888 -0.7557 -0.8868  0.4997
  229MOL    O4346099   4.838   4.685   3.973 -0.4280 -0.1177 -0.1731
  229MOL    C4446100   4.934   4.519   3.834  0.1575 -0.0174 -0.0462
  229MOL    C4546101   5.048   4.603   3.805  0.7221  0.0924  0.1951
  229MOL    N4646102   5.042   4.672   3.672 -0.0723  0.0428 -0.0791
  229MOL    H4746103   4.963   4.457   3.919 -0.7088  1.4535  1.3643
  229MOL    H4846104   4.916   4.468   3.740  0.3654  1.7136 -1.0270
  229MOL    H4946105   5.057   4.672   3.889 -1.0851  0.7457 -0.1136
  229MOL    H5046106   5.137   4.541   3.798 -0.1463 -1.3291  1.4394
  229MOL    H5146107   4.974   4.632   3.609  0.0684  1.0547 -0.8758
  229MOL    C5246108   5.138   4.757   3.632  0.3909 -0.6108 -0.1756
  229MOL    O5346109   5.235   4.789   3.700  0.0774  0.1369  0.1199
  229MOL    C5446110   5.121   4.826   3.498 -0.4220 -0.0371 -0.2917
  229MOL    C5546111   5.056   4.965   3.519 -0.4822  0.8205 -0.1552
  229MOL    N5646112   5.008   5.017   3.395 -0.5768  0.2053  0.6823
  229MOL    H5746113   5.210   4.823   3.436 -1.6346 -1.5774 -2.0100
  229MOL    H5846114   5.047   4.763   3.449 -2.4247  1.2207  1.0359
  229MOL    H5946115   5.136   5.033   3.549  2.6578 -2.8252  0.1451
  229MOL    H6046116   4.984   4.976   3.600  0.5126  2.0886  0.5855
  229MOL    H6146117   5.033   4.975   3.306 -0.3401  2.0877 -0.1598
  229MOL    C6246118   4.927   5.117   3.380  0.9781  0.1320  0.2938
  229MOL    O6346119   4.884   5.189   3.472 -0.5802 -0.0384  0.3339
  229MOL    C6446120   4.889   5.145   3.237  0.1910  0.1906 -0.0668
  229MOL    C6546121   4.916   5.292   3.193 -0.3648  0.5053 -0.3346
  229MOL    N6646122   5.045   5.311   3.126 -0.6625  0.7408 -0.3920
  229MOL    H6746123   4.944   5.076   3.173  0.8698 -0.6425  1.3774
  229MOL    H6846124   4.783   5.124   3.229  0.6943 -1.6234 -2.4813
  229MOL    H6946125   4.839   5.325   3.123 -4.5222 -0.8329  3.3118
  229MOL    H7046126   4.919   5.348   3.287 -1.0998 -1.2944  0.7971
  229MOL    H7146127   5.045   5.346   3.032 -0.4614  0.7436 -0.3924
  229MOL    C7246128   5.165   5.325   3.190  0.0433  0.2332 -0.1588
  229MOL    O7346129   5.181   5.291   3.308 -0.2289 -1.3060 -0.3537
  229MOL    C7446130   5.286   5.368   3.104 -0.2555 -0.6725 -0.7387
  229MOL    C7546131   5.357   5.492   3.169  0.1532  0.3530 -0.0227
  229MOL    N7646132   5.479   5.521   3.097 -0.2901 -0.5493  0.0252
  229MOL    H7746133   5.352   5.281   3.099 -0.7371 -1.1237  0.5216
  229MOL    H7846134   5.248   5.398   3.006 -3.1269  3.4543  1.5164
  229MOL    H7946135   5.294   5.579   3.151 -0.2433 -0.0432 -0.5838
  229MOL    H8046136   5.384   5.476   3.273  2.8680 -0.1218 -0.7638
  229MOL    H8146137   5.503   5.447   3.034 -0.5684 -0.4439 -0.2044
  229MOL    C8246138   5.540   5.637   3.084 -0.3923  0.5602  0.9566
  229MOL    O8346139   5.498   5.740   3.130  0.6878  0.5102 -0.4386
  229MOL    C8446140   5.682   5.630   3.010  0.9616 -0.0565 -0.4850
  229MOL    C8546141   5.808   5.651   3.096 -0.0215 -0.4881 -0.1556
  229MOL    N8646142   5.833   5.782   3.137  0.5189 -0.9490 -0.7291
  229MOL    H8746143   5.684   5.537   2.953  1.1789  0.6028 -1.5737
  229MOL    H8846144   5.689   5.706   2.931  0.7861 -0.9908 -1.4143
  229MOL    H8946145   5.807   5.590   3.187  1.5839 -0.6109 -0.2168
  229MOL    H9046146   5.888   5.611   3.035 -0.7130  1.1604 -2.2166
  229MOL    H9146147   5.778   5.822   3.212  1.0132  1.2456 -1.4945
  229MOL    C9246148   5.933   5.864   3.091 -0.0497 -0.1912 -0.9304
  229MOL    O9346149   6.014   5.825   3.001  0.6098 -0.6486 -0.3790
  229MOL    C9446150   5.939   6.011   3.131 -0.6293 -0.2470 -0.4835
  229MOL    C9546151   6.023   6.111   3.052 -0.7298 -0.4316 -0.2836
  229MOL    N9646152   5.995   6.106   2.905  0.0624 -0.3308  0.5798
  229MOL    H9746153   5.838   6.050   3.143 -0.2435 -0.0881  2.4381
  229MOL    H9846154   5.985   6.004   3.229 -0.2074  2.7416 -0.4054
  229MOL    H9946155   5.993   6.211   3.084 -0.4116 -0.2910 -0.4257
  229MOL   H10046156   6.129   6.123   3.076 -0.6092 -0.7573 -0.6486
  229MOL   H10146157   6.044   6.038   2.850  1.7061  0.1853  1.3672
  229MOL   C10246158   5.893   6.167   2.853  1.1103 -0.0975 -0.0737
  229MOL   O10346159   5.842   6.268   2.899  0.1212  0.7759  0.5559
  229MOL   C10446160   5.845   6.110   2.720 -0.3275  0.7322 -0.4863
  229MOL   C10546161   5.793   5.964   2.733  0.2660  0.2774  0.5670
  229MOL   N10646162   5.893   5.863   2.738  0.2244  0.6038 -0.0627
  229MOL   H10746163   5.923   6.113   2.645 -1.1814  0.7189 -1.3809
  229MOL   H10846164   5.770   6.175   2.676  0.3619  0.0432 -2.7326
  229MOL   H10946165   5.727   5.948   2.818  0.6092  1.2152  1.0148
  229MOL   H11046166   5.735   5.945   2.642 -0.1549 -1.3739  1.1492
  229MOL   H11146167   5.934   5.846   2.828  2.3789  2.1375 -0.7141
  229MOL   C11246168   5.937   5.782   2.639  0.4700 -0.5228 -0.6113
  229MOL   O11346169   5.926   5.811   2.520 -0.1449 -0.0333 -0.5523
  229MOL   C11446170   6.030   5.663   2.684  1.1377 -0.3129 -0.0049
  229MOL   C11546171   5.952   5.527   2.716 -0.2670  0.3555 -0.1339
  229MOL   N11646172   5.972   5.429   2.610 -0.8303  0.8949  0.2469
  229MOL   H11746173   6.085   5.693   2.773  0.2667 -0.5920  0.6346
  229MOL   H11846174   6.101   5.644   2.604  2.7497  1.7255  0.9146
  229MOL   H11946175   5.991   5.474   2.803 -0.1177 -2.3441 -1.7927
  229MOL   H12046176   5.846   5.548   2.731 -0.5163  1.2883 -2.9978
  229MOL   H12146177   6.060   5.428   2.561  0.8891  0.1278  3.2734
  229MOL   C12246178   5.897   5.320   2.591 -0.3416 -0.2530 -0.6380
  229MOL   O12346179   5.799   5.298   2.667 -0.0370 -0.2374  0.3199
  229MOL   C12446180   5.929   5.230   2.464  0.1871 -0.4168  0.0455
  229MOL   C12546181   5.803   5.206   2.383  0.0102  0.3465 -0.5922
  229MOL   N12646182   5.826   5.159   2.246  0.4864  0.6865 -0.2513
  229MOL   H12746183   5.976   5.139   2.502  3.2394  1.3697  0.7073
  229MOL   H12846184   6.002   5.273   2.395 -1.4345  1.4591 -0.5502
  229MOL   H12946185   5.736   5.152   2.450  1.3257 -0.7561 -0.1453
  229MOL   H13046186   5.759   5.305   2.366  3.1785  1.7212 -1.1584
  229MOL   H13146187   5.921   5.144   2.216  0.4746  0.6567 -0.2737
  229MOL   C13246188   5.732   5.158   2.147 -0.3501 -0.9310 -0.2961
  229MOL   O13346189   5.610   5.180   2.165 -0.5956  0.1190  0.8837
  229MOL   C13446190   5.786   5.119   2.004  1.1004 -0.1171 -0.1038
  229MOL   C13546191   5.701   5.013   1.929 -0.5276  0.2565 -0.0701
  229MOL   N13646192   5.623   5.080   1.834  0.0896 -0.3047 -0.1373
  229MOL   H13746193   5.892   5.095   2.005  1.2034  0.3383  0.5894
  229MOL   H13846194   5.783   5.209   1.943  1.4223 -0.3017 -0.3914
  229MOL   H13946195   5.769   4.944   1.879 -1.9831  0.0970 -1.9157
  229MOL   H14046196   5.638   4.950   1.992  0.8835 -1.9329 -0.7699
  229MOL   H14146197   5.664   5.148   1.772 -0.0468  0.5156  0.6539
  229MOL   C14246198   5.486   5.096   1.840 -0.4050  0.1896  0.0427
  229MOL   O14346199   5.414   5.044   1.924  0.2272 -0.8004 -0.1030
  229MOL   C14446200   5.431   5.191   1.734 -0.1402  0.4431  0.4698
  229MOL   C14546201   5.280   5.192   1.700  0.2602 -0.0680 -0.1747
  229MOL   N14646202   5.261   5.320   1.635  0.6701  0.1804  0.0605
  229MOL   H14746203   5.481   5.168   1.640 -0.6341 -1.1990  0.6040
  229MOL   H14846204   5.468   5.289   1.765 -0.8094  0.7587  0.2916
  229MOL   H14946205   5.239   5.113   1.637  1.5610  0.4069 -1.6410
  229MOL   H15046206   5.213   5.175   1.784  0.8880  2.5322  0.9192
  229MOL   H15146207   5.308   5.328   1.546  0.2581 -2.9345 -0.4820
  229MOL   C15246208   5.193   5.423   1.682 -0.1270 -0.7455 -0.1115
  229MOL   O15346209   5.148   5.431   1.795  0.3727  0.2348 -0.0680
  229MOL   C15446210   5.176   5.536   1.585 -0.0130 -0.1793 -0.1779
  229MOL   C15546211   5.265   5.658   1.609 -0.0307 -0.4357 -0.6039
  229MOL   N15646212   5.403   5.643   1.580  0.3009  0.0027 -0.0736
  229MOL   H15746213   5.071   5.561   1.579  0.5458  2.6607  1.4771
  229MOL   H15846214   5.204   5.500   1.486 -0.7529  0.0646 -0.4759
  229MOL   H15946215   5.214   5.728   1.542 -2.2230 -0.9711  0.4534
  229MOL   H16046216   5.260   5.702   1.708  0.6780  1.6724 -1.4858
  229MOL   H16146217   5.450   5.594   1.655  0.7835  0.2316 -0.2264
  229MOL   C16246218   5.465   5.669   1.465 -0.1421  0.5323  1.1400
  229MOL   O16346219   5.419   5.733   1.368  0.0634  0.5004  1.2804
  229MOL   C16446220   5.613   5.623   1.456 -0.5459 -0.1235  0.2718
  229MOL   C16546221   5.616   5.469   1.436  0.9861  0.4444  0.4046
  229MOL   N16646222   5.753   5.429   1.446  0.2707  0.5428  0.1012
  229MOL   H16746223   5.668   5.653   1.545  1.0918 -1.6712 -0.1767
  229MOL   H16846224   5.665   5.675   1.376  1.6725 -0.4150  1.4889
  229MOL   H16946225   5.558   5.424   1.517 -0.6383 -1.5143 -1.7642
  229MOL   H17046226   5.570   5.435   1.343  0.1088 -1.6636  1.5514
  229MOL   H17146227   5.816   5.462   1.374 -2.7400  0.8115 -2.5158
  229MOL   C17246228   5.797   5.339   1.540  0.3513 -0.1565 -0.4268
  229MOL   O17346229   5.719   5.282   1.617 -0.2813  0.4822  0.0855
  229MOL   C17446230   5.947   5.324   1.538  0.7151 -0.0823 -0.0379
  229MOL   C17546231   6.014   5.337   1.677  0.3542 -0.7848 -0.0896
  229MOL   N17646232   6.041   5.209   1.748 -0.4203 -0.0088  0.2405
  229MOL   H17746233   5.985   5.406   1.477 -0.6844  0.6501  0.0570
  229MOL   H17846234   5.977   5.231   1.491  0.1075 -0.5550  0.5148
  229MOL   H17946235   6.110   5.386   1.659  0.5107 -1.5767 -1.4600
  229MOL   H18046236   5.962   5.406   1.743  3.8955  2.5585 -0.5923
  229MOL   H18146237   5.989   5.186   1.831 -1.9401  0.9134 -0.4397
  229MOL   C18246238   6.154   5.139   1.731  0.2978 -0.9030 -0.6443
  229MOL   O18346239   6.238   5.163   1.645  0.5136 -0.6141 -0.4589
  229MOL   C18446240   6.185   5.033   1.843 -0.3471  0.0317  0.2293
  229MOL   C18546241   6.320   4.961   1.812  0.6059  0.3076  0.1564
  229MOL   N18646242   6.355   4.889   1.935  0.0594 -1.1299  0.7718
  229MOL   H18746243   6.089   4.983   1.839 -0.8061  0.9736 -1.3534
  229MOL   H18846244   6.197   5.086   1.937  0.5758 -0.6304  0.4926
  229MOL   H18946245   6.295   4.880   1.742 -0.2923  0.3325  0.4471
  229MOL   H19046246   6.395   5.033   1.779 -2.1113  2.2667 -1.9937
  229MOL   H19146247   6.292   4.815   1.964 -0.9929 -1.1839 -1.5144
  229MOL   C19246248   6.461   4.906   2.008  0.0673 -0.8276 -0.5204
  229MOL   O19346249   6.530   5.005   2.003  0.1953 -0.3081  0.0668
  229MOL   C19446250   6.497   4.782   2.097 -0.0424  0.1496 -0.1855
  229MOL   C19546251   6.633   4.720   2.066 -0.2304  0.0963  0.2081
  229MOL   N19646252   6.744   4.786   2.135 -0.1062  0.4366 -0.0092
  229MOL   H19746253   6.482   4.820   2.199  0.0100  3.0466 -1.2018
  229MOL   H19846254   6.423   4.704   2.081 -0.1465  0.1712  0.1810
  229MOL   H19946255   6.625   4.616   2.097  0.5145  0.5687  2.0250
  229MOL   H20046256   6.646   4.716   1.957 -0.2755 -1.5668  0.2518
  229MOL   H20146257   6.830   4.751   2.094 -0.8859  0.9929 -2.1998
  229MOL   H20246258   6.723   4.883   2.116 -1.5076  0.5573  1.9715
  230MOL     C146259   7.166   1.407   6.907  0.0900  0.4354 -0.1330
  230MOL     O246260   7.106   1.452   7.003  0.2158  0.2788  0.0207
  230MOL     C346261   7.304   1.457   6.864  0.2992 -0.1745  0.7620
  230MOL     C446262   7.292   1.580   6.779  0.5956  0.0127  0.5256
  230MOL     N546263   7.317   1.559   6.632  0.1275  0.2076 -0.3090
  230MOL     H646264   7.364   1.375   6.824  1.5622  0.8547  0.5350
  230MOL     H746265   7.351   1.501   6.952  1.4311 -2.8035  1.5325
  230MOL     H846266   7.374   1.650   6.796 -0.4977  1.4787 -0.1479
  230MOL     H946267   7.211   1.649   6.801  1.5984  1.2501  0.3906
  230MOL    H1046268   7.244   1.578   6.565 -1.4705  1.1785  1.6488
  230MOL    H1146269   7.124   1.321   6.857  3.0034 -1.1338  0.0205
  230MOL    C1246270   7.424   1.499   6.579 -0.2199 -0.1604  0.1468
  230MOL    O1346271   7.526   1.482   6.641  0.2042  0.0726  0.4036
  230MOL    C1446272   7.410   1.470   6.431 -0.1577 -0.2473 -0.2629
  230MOL    C1546273   7.549   1.461   6.352 -0.2621  0.2525  0.5345
  230MOL    N1646274   7.553   1.545   6.231  0.4089 -0.0167  0.1804
  230MOL    H1746275   7.341   1.546   6.395 -3.7097 -2.4063  1.6897
  230MOL    H1846276   7.353   1.379   6.414  0.2631 -0.0681 -2.7352
  230MOL    H1946277   7.627   1.481   6.425  0.9979  1.9780 -1.2342
  230MOL    H2046278   7.561   1.358   6.318  1.7548  0.2742  1.0950
  230MOL    H2146279   7.545   1.497   6.142  0.9286  0.0304  0.1066
  230MOL    C2246280   7.590   1.668   6.229 -0.7981 -0.2540  0.5801
  230MOL    O2346281   7.620   1.724   6.332  0.6744  0.6138  0.2725
  230MOL    C2446282   7.580   1.743   6.102 -0.0120 -0.3557  0.1743
  230MOL    C2546283   7.706   1.805   6.052  0.7291 -1.0506 -0.5216
  230MOL    N2646284   7.676   1.879   5.931  0.0739  0.0411  0.2616
  230MOL    H2746285   7.513   1.826   6.124 -0.1872 -0.5950  0.5618
  230MOL    H2846286   7.532   1.682   6.025  0.0345 -1.0430  0.6888
  230MOL    H2946287   7.755   1.873   6.122  2.0091 -2.0066 -0.4683
  230MOL    H3046288   7.767   1.716   6.036  0.1789 -0.9208 -3.6971
  230MOL    H3146289   7.602   1.852   5.868  1.0511 -2.9649  0.3694
  230MOL    C3246290   7.738   1.992   5.891 -0.3387 -0.0318  0.9420
  230MOL    O3346291   0.054   2.048   5.947 -0.6821 -0.3978 -0.5616
  230MOL    C3446292   7.680   2.065   5.768 -0.4250  0.0967 -0.1978
  230MOL    C3546293   7.652   2.216   5.788 -0.4718  0.0219 -0.2387
  230MOL    N3646294   7.578   2.275   5.675 -0.0371 -0.4033  0.0053
  230MOL    H3746295   7.589   2.016   5.734 -0.7422 -1.2201  2.4733
  230MOL    H3846296   7.753   2.066   5.687 -1.0263 -0.2570 -0.7400
  230MOL    H3946297   7.587   2.246   5.870  0.8766  2.5946 -0.0681
  230MOL    H4046298   7.741   2.269   5.821 -0.9785  0.0864  1.0432
  230MOL    H4146299   7.477   2.276   5.676 -0.0236  0.4403  1.1837
  230MOL    C4246300   7.623   2.333   5.562  0.0655 -0.0169 -1.0592
  230MOL    O4346301   7.742   2.348   5.532 -0.5055 -0.2106 -0.1577
  230MOL    C4446302   7.518   2.367   5.452  0.1269  0.4126 -0.0227
  230MOL    C4546303   7.548   2.491   5.382 -0.6157  0.2740  0.3606
  230MOL    N4646304   7.536   2.612   5.465 -0.4446 -0.2296 -0.8328
  230MOL    H4746305   7.513   2.286   5.380  2.5882  0.9930 -0.9029
  230MOL    H4846306   7.422   2.365   5.504  1.1023 -1.7159  1.7800
  230MOL    H4946307   7.647   2.495   5.337  0.2060 -1.1438  2.0091
  230MOL    H5046308   7.480   2.506   5.298  1.2842  0.4266 -1.1839
  230MOL    H5146309   7.593   2.608   5.549 -1.2838 -0.6999 -0.2809
  230MOL    C5246310   7.434   2.696   5.466  0.6135  0.5839  0.6443
  230MOL    O5346311   7.335   2.683   5.394  0.2861 -0.4547 -0.3676
  230MOL    C5446312   7.438   2.814   5.567 -0.1223 -0.7265 -0.3177
  230MOL    C5546313   7.426   2.954   5.498  0.1207  0.0397  0.0420
  230MOL    N5646314   7.459   3.061   5.586 -0.4463 -0.4134 -0.1195
  230MOL    H5746315   7.366   2.796   5.647  0.7672 -0.4133  0.5577
  230MOL    H5846316   7.535   2.814   5.616 -1.1538 -1.2501  1.7700
  230MOL    H5946317   7.333   2.964   5.442 -0.9588 -0.3137  1.7294
  230MOL    H6046318   7.506   2.960   5.425  0.4012 -0.3406  0.3130
  230MOL    H6146319   7.541   3.114   5.561  1.5510 -3.0684  0.5833
  230MOL    C6246320   7.390   3.106   5.687 -0.1389  0.3191 -0.5625
  230MOL    O6346321   7.277   3.062   5.711  0.4352  0.0892 -0.0348
  230MOL    C6446322   7.453   3.207   5.784  0.1394 -0.5115 -0.3976
  230MOL    C6546323   7.349   3.290   5.870  0.1829  0.1804 -0.0810
  230MOL    N6646324   7.422   3.380   5.962  0.7860  0.2558  0.2641
  230MOL    H6746325   7.515   3.139   5.842  1.1578 -0.9311 -1.9476
  230MOL    H6846326   7.508   3.274   5.718  0.0819  0.2046  0.2600
  230MOL    H6946327   7.275   3.332   5.802  0.5501 -2.1139 -1.9424
  230MOL    H7046328   7.304   3.218   5.938 -1.6531  0.8494 -0.5619
  230MOL    H7146329   7.492   3.337   6.020  1.2628 -0.4084 -0.7930
  230MOL    C7246330   7.378   3.494   6.006 -0.0384  0.0274 -0.6979
  230MOL    O7346331   7.273   3.546   5.971  0.6976 -0.3885 -0.2435
  230MOL    C7446332   7.469   3.571   6.110 -0.1005 -0.4468  0.3405
  230MOL    C7546333   7.394   3.634   6.225 -0.4440  0.4191 -0.6008
  230MOL    N7646334   7.465   3.638   6.350 -0.0441  0.1623  0.3157
  230MOL    H7746335   7.536   3.492   6.141 -0.2366 -0.4633  0.5944
  230MOL    H7846336   7.521   3.652   6.059 -3.7009  0.9180 -1.4073
  230MOL    H7946337   7.372   3.733   6.185  1.3833  1.6780  1.4015
  230MOL    H8046338   7.298   3.587   6.246  0.1256  0.6048  2.6369
  230MOL    H8146339   7.563   3.613   6.352  0.0057  0.3210 -0.1524
  230MOL    C8246340   7.412   3.669   6.471  0.1696 -0.0894 -0.2141
  230MOL    O8346341   7.294   3.684   6.490  0.2565 -0.2820 -0.4187
  230MOL    C8446342   7.511   3.666   6.583  0.4434  0.3436 -0.0226
  230MOL    C8546343   7.452   3.725   6.718  0.1927 -0.6217 -0.0697
  230MOL    N8646344   7.541   3.698   6.831 -0.5024  0.0562 -0.6016
  230MOL    H8746345   7.543   3.563   6.598  2.2248  1.0773  1.4788
  230MOL    H8846346   7.600   3.719   6.549  1.4397 -2.1299 -1.4581
  230MOL    H8946347   7.415   3.827   6.708  0.1030 -0.7766 -1.2883
  230MOL    H9046348   7.362   3.668   6.745 -0.7337  1.0654  0.4645
  230MOL    H9146349   7.594   3.775   6.867  0.4749 -0.2735 -1.3095
  230MOL    C9246350   7.570   3.573   6.882 -0.4856  0.5399  0.2938
  230MOL    O9346351   7.506   3.474   6.853 -0.0622  0.7015  0.8234
  230MOL    C9446352   7.694   3.559   6.968 -0.6184 -0.2903  0.7247
  230MOL    C9546353   7.684   3.446   7.071  0.3943  0.2564 -0.2820
  230MOL    N9646354   7.652   3.495   7.205  0.7064 -0.1592 -0.4391
  230MOL    H9746355   0.001   3.553   6.903  1.6877  0.8283  3.6277
  230MOL    H9846356   7.726   3.651   7.016  1.2721 -0.1230 -0.7806
  230MOL    H9946357   7.621   3.362   7.043  2.2584 -1.5512  0.8374
  230MOL   H10046358   7.778   3.392   7.073  0.0224 -0.3593  0.8145
  230MOL   H10146359   7.574   3.559   7.205  1.0308  0.2604  1.7825
  230MOL   C10246360   7.726   3.478   7.317 -0.0392  0.1092  0.2070
  230MOL   O10346361   0.041   3.399   7.321  0.1561 -0.7587 -0.3537
  230MOL   C10446362   7.690   3.563   7.441  0.2218 -0.9146  0.6021
  230MOL   C10546363   7.743   3.505   7.572  0.1956 -0.3921 -0.2476
  230MOL   N10646364   7.751   3.608   7.675  0.1776  0.2376  0.2677
  230MOL   H10746365   7.582   3.578   7.433  0.5967  1.5372 -0.2432
  230MOL   H10846366   7.736   3.661   7.428  0.2029 -0.8406  1.0761
  230MOL   H10946367   7.675   3.431   7.615  1.2787 -1.0586  0.3406
  230MOL   H11046368   0.058   3.452   7.570  0.4479 -0.2084  3.1728
  230MOL   H11146369   7.678   3.677   7.662  1.0257  0.9092 -0.9453
  230MOL   C11246370   0.059   3.626   7.769 -0.5692  0.0792 -0.2578
  230MOL   O11346371   0.161   3.552   0.000 -0.2286  0.1259 -0.7638
  230MOL   C11446372   0.049   3.747   0.078 -0.0368 -0.1895 -0.1245
  230MOL   C11546373   0.119   3.726   0.211  0.3619  0.7382 -0.0606
  230MOL   N11646374   0.069   3.614   0.287 -0.1131 -0.4130  0.1572
  230MOL   H11746375   7.723   3.770   0.088 -0.2805  0.0362 -2.8561
  230MOL   H11846376   0.107   3.830   0.037  1.3243 -1.2367 -0.3605
  230MOL   H11946377   0.225   3.712   0.190  1.0160  2.2402  2.0359
  230MOL   H12046378   0.115   3.827   0.252 -0.6114  2.2601 -3.6449
  230MOL   H12146379   0.130   3.534   0.281  1.0225  0.3089  1.5754
  230MOL   C12246380   7.743   3.615   0.368 -0.0937 -0.6250 -0.8532
  230MOL   O12346381   7.679   3.723   0.382  0.2224  1.0049 -0.0856
  230MOL   C12446382   7.700   3.486   0.435 -0.2761  0.4929 -0.0054
  230MOL   C12546383   7.543   3.459   0.443 -0.1605  0.9402 -0.1007
  230MOL   N12646384   7.483   3.365   0.348  0.5148  0.3268 -0.4803
  230MOL   H12746385   7.714   3.498   0.543 -0.0269 -0.3441  0.0623
  230MOL   H12846386   7.756   3.395   0.413  0.4754  1.2183 -1.1155
  230MOL   H12946387   7.536   3.421   0.545  0.1680 -0.0655 -0.4418
  230MOL   H13046388   7.478   3.546   0.443  1.1563  1.9390  0.7753
  230MOL   H13146389   7.417   3.301   0.389  0.0544  1.6250  0.8847
  230MOL   C13246390   7.488   3.366   0.215  0.1022  0.4414  0.2478
  230MOL   O13346391   7.557   3.447   0.153  0.2864  0.5169  0.6084
  230MOL   C13446392   7.411   3.265   0.138 -0.8148 -0.2097  0.7297
  230MOL   C13546393   7.443   3.252   7.768  0.1059 -0.6297  0.0584
  230MOL   N13646394   7.370   3.352   7.691 -0.3920  0.0168  0.4456
  230MOL   H13746395   7.307   3.297   0.140 -0.7630 -0.0198  0.5348
  230MOL   H13846396   7.432   3.164   0.172 -0.2511 -0.5098 -0.4618
  230MOL   H13946397   7.551   3.259   7.754 -0.0567  2.1253  0.0245
  230MOL   H14046398   7.405   3.153   7.740 -0.3224 -0.8870  1.4881
  230MOL   H14146399   7.352   3.438   7.740 -0.7436  0.7640 -0.9558
  230MOL   C14246400   7.333   3.338   7.568  0.0081 -0.1708  0.2184
  230MOL   O14346401   7.353   3.234   7.506 -0.6698 -0.1466 -0.6304
  230MOL   C14446402   7.253   3.454   7.505  0.5538 -1.0023  1.0694
  230MOL   C14546403   7.324   3.541   7.401  0.1420 -0.1945  0.1535
  230MOL   N14646404   7.250   3.576   7.276 -0.1507 -0.3179 -0.4583
  230MOL   H14746405   7.221   3.509   7.594 -0.6901 -1.7661  1.1088
  230MOL   H14846406   7.165   3.414   7.455  2.0576 -0.6713 -1.9366
  230MOL   H14946407   7.361   3.630   7.452 -1.6372  0.4264  0.3816
  230MOL   H15046408   7.408   3.475   7.376 -0.3125 -0.4260 -0.8022
  230MOL   H15146409   7.149   3.577   7.266 -0.0391  1.5090 -1.8270
  230MOL   C15246410   7.311   3.634   7.173 -0.2351 -0.4681  0.1534
  230MOL   O15346411   7.433   3.654   7.166  0.3201  0.1286 -0.3636
  230MOL   C15446412   7.219   3.677   7.057  0.3650 -0.4748 -0.2700
  230MOL   C15546413   7.253   3.819   7.004  1.1477  0.9767  0.3161
  230MOL   N15646414   7.147   3.915   7.034  0.3308 -0.6289 -0.3351
  230MOL   H15746415   7.112   3.662   7.074  0.3713 -2.3581 -1.6652
  230MOL   H15846416   7.244   3.612   6.973  2.7826 -0.3913  0.3539
  230MOL   H15946417   7.349   3.855   7.041  2.2950 -1.2178 -0.4188
  230MOL   H16046418   7.253   3.820   6.896 -1.5391  0.8507  0.2615
  230MOL   H16146419   7.070   3.927   6.970  0.3033 -2.6518 -0.7131
  230MOL   C16246420   7.139   3.989   7.148  0.1957  0.0347  0.4346
  230MOL   O16346421   7.215   3.977   7.244  0.0546  0.3129 -0.9080
  230MOL   C16446422   7.029   4.094   7.163 -0.1291 -0.2575  0.6754
  230MOL   C16546423   7.027   4.176   7.290  0.8711  0.5142 -0.0859
  230MOL   N16646424   6.894   4.213   7.332  0.2775 -0.4642  0.7322
  230MOL   H16746425   6.934   4.041   7.170  1.0470 -2.1177  3.0267
  230MOL   H16846426   7.030   4.164   7.080  1.8282  0.2779  1.1232
  230MOL   H16946427   7.067   4.114   7.370  1.9344  1.4090  0.0879
  230MOL   H17046428   7.094   4.262   7.284  1.0329  0.3136 -1.3458
  230MOL   H17146429   6.844   4.168   7.407 -0.8278  0.1340  0.3605
  230MOL   C17246430   6.824   4.307   7.273 -0.3556  0.2997 -0.2896
  230MOL   O17346431   6.869   4.376   7.180 -0.3045  0.3191  0.4265
  230MOL   C17446432   6.684   4.330   7.329  0.1840 -0.1593  0.1326
  230MOL   C17546433   6.655   4.471   7.383  0.0939 -0.0609  0.5342
  230MOL   N17646434   6.509   4.493   7.428 -0.0433  0.3721 -0.0819
  230MOL   H17746435   6.673   4.264   7.415  2.5438 -0.0978  0.5111
  230MOL   H17846436   6.607   4.314   7.254 -0.1468 -1.0350  0.6523
  230MOL   H17946437   6.710   4.500   7.473  0.8283  1.5970 -0.4268
  230MOL   H18046438   6.677   4.544   7.305 -3.6950  0.4011 -0.1966
  230MOL   H18146439   6.449   4.518   7.352  0.4162 -1.2183 -1.0000
  230MOL   C18246440   6.454   4.468   7.543 -0.2595 -0.9998 -0.7386
  230MOL   O18346441   6.516   4.428   7.637 -0.5787 -0.3643  0.1614
  230MOL   C18446442   6.311   4.497   7.549  0.0849 -0.7165  0.2559
  230MOL   C18546443   6.257   4.553   7.683 -0.3733  0.1984  0.1871
  230MOL   N18646444   6.111   4.563   7.690 -0.9609  0.4369 -0.4535
  230MOL   H18746445   6.264   4.400   7.532 -0.7306 -0.1805 -0.6319
  230MOL   H18846446   6.283   4.571   7.474  0.2555  0.3779  1.2687
  230MOL   H18946447   6.286   4.479   7.757 -1.2661 -1.1539 -0.7956
  230MOL   H19046448   6.302   4.651   7.698 -1.1293  0.5969 -0.1515
  230MOL   H19146449   6.051   4.554   7.609 -0.1322  0.0732 -1.0395
  230MOL   C19246450   6.042   4.582   0.019  0.5234 -0.8384 -0.5807
  230MOL   O19346451   6.084   4.579   0.133  0.4090  0.2952 -0.3592
  230MOL   C19446452   5.894   4.612   7.772  0.4888  1.0640  0.0888
  230MOL   C19546453   5.837   4.705   0.102  0.9263  1.3276  0.9806
  230MOL   N19646454   5.903   4.833   0.117 -0.2841  0.5966 -0.9319
  230MOL   H19746455   5.873   4.646   7.671  0.3197  0.2690 -0.1411
  230MOL   H19846456   5.840   4.519   0.009  1.3106  1.2400  4.0549
  230MOL   H19946457   5.729   4.715   0.085  1.0066 -1.0056 -1.1431
  230MOL   H20046458   5.837   4.659   0.201  0.1940  2.1339  1.3653
  230MOL   H20146459   5.998   4.808   0.140 -1.5211 -1.0236  2.8547
  230MOL   H20246460   5.877   4.890   0.196 -0.0719 -2.3001  1.3298
  231MOL     C146461   2.472   6.595   3.144  0.2678  0.3287  0.9273
  231MOL     O246462   2.403   6.625   3.236  0.0101 -0.4405  0.2615
  231MOL     C346463   2.614   6.538   3.177  0.9925  0.3163 -0.4197
  231MOL     C446464   2.721   6.646   3.195 -0.0673  0.0425  0.8642
  231MOL     N546465   2.790   6.671   3.067 -0.2424  0.1690 -0.2165
  231MOL     H646466   2.638   6.467   3.097  1.7134  0.2927 -0.1768
  231MOL     H746467   2.617   6.474   3.265  0.0516  0.8067 -0.0173
  231MOL     H846468   2.781   6.621   3.282 -0.1661 -2.4577  0.2452
  231MOL     H946469   2.675   6.741   3.221  1.1263  0.6252  0.8800
  231MOL    H1046470   2.760   6.618   2.986 -1.5531  2.3399 -1.2029
  231MOL    H1146471   2.459   6.618   3.039  0.4410  1.9291  1.2453
  231MOL    C1246472   2.895   6.755   3.047 -0.8328 -0.2538  0.1576
  231MOL    O1346473   2.947   6.810   3.138 -0.7283 -0.0834 -0.5034
  231MOL    C1446474   2.943   6.765   2.904 -0.3347 -0.3633 -0.3504
  231MOL    C1546475   2.907   6.886   2.817 -0.5997  0.4490  0.3348
  231MOL    N1646476   3.014   6.927   2.729  0.2580 -0.1540  0.0342
  231MOL    H1746477   2.920   6.670   2.855  1.3996 -1.1926  0.3821
  231MOL    H1846478   3.052   6.759   2.904 -0.3174 -0.0194 -0.1708
  231MOL    H1946479   2.829   6.847   2.752  1.2866 -1.1385 -1.0444
  231MOL    H2046480   2.865   6.968   2.876  0.6467  0.4832  1.2047
  231MOL    H2146481   3.001   6.918   2.629 -0.2920 -0.1737  0.1030
  231MOL    C2246482   3.124   6.987   2.766  0.2490 -0.0064 -0.1432
  231MOL    O2346483   3.155   6.996   2.883 -0.0481 -0.5653 -0.0620
  231MOL    C2446484   3.211   7.052   2.652  0.5243  0.3502 -0.4066
  231MOL    C2546485   3.302   7.162   2.710 -0.1319 -0.1360  0.1321
  231MOL    N2646486   3.392   7.232   2.613  0.2600 -0.4133 -0.0039
  231MOL    H2746487   3.143   7.083   2.573  0.4103 -1.9721 -1.2671
  231MOL    H2846488   3.283   6.981   2.611  0.0881 -1.3371  1.6305
  231MOL    H2946489   3.250   7.243   2.762 -0.2304 -0.5346  0.6571
  231MOL    H3046490   3.365   7.116   2.786  0.2472 -0.6333 -0.4806
  231MOL    H3146491   3.371   7.330   2.606 -0.2897 -0.4861  0.5767
  231MOL    C3246492   3.493   7.175   2.549 -0.1218  0.8098 -0.1073
  231MOL    O3346493   3.540   7.062   2.589  0.1936 -0.7136 -0.0140
  231MOL    C3446494   3.549   7.250   2.433  0.4340 -0.3700 -0.1899
  231MOL    C3546495   3.662   7.180   2.355 -0.4869 -0.5513  0.3500
  231MOL    N3646496   3.717   7.277   2.261 -0.0513  0.5436  0.0313
  231MOL    H3746497   3.599   7.335   2.479  1.6116 -0.6322 -0.9449
  231MOL    H3846498   3.470   7.279   2.364 -0.5972 -0.2214  1.0436
  231MOL    H3946499   3.733   7.119   2.411 -0.9663 -0.1109  1.4586
  231MOL    H4046500   3.621   7.104   2.289  1.0187 -1.5579  0.5515
  231MOL    H4146501   3.672   7.366   2.242  0.1881  0.5253 -0.6219
  231MOL    C4246502   3.836   7.264   2.204  0.2546 -0.9703  0.0427
  231MOL    O4346503   3.912   7.169   2.227 -0.4259  0.2430  0.0096
  231MOL    C4446504   3.882   7.391   2.128 -0.6175  1.0466  0.4150
  231MOL    C4546505   3.993   7.363   2.017  0.1088 -0.2136  0.0483
  231MOL    N4646506   3.924   7.355   1.889 -0.1742  0.1836 -1.2213
  231MOL    H4746507   3.793   7.430   2.078 -0.2699  0.4903 -0.6653
  231MOL    H4846508   3.923   7.466   2.196  2.3211 -0.1015  0.0010
  231MOL    H4946509   4.060   7.449   2.014 -1.5153  1.0305 -1.6004
  231MOL    H5046510   4.055   7.276   2.041  1.9993  0.8904 -0.7485
  231MOL    H5146511   3.855   7.424   1.864 -0.6831  0.1034 -0.0412
  231MOL    C5246512   3.944   7.255   1.799  0.4530  0.2216 -0.0313
  231MOL    O5346513   4.010   7.154   1.815  0.0043  0.2315  0.8660
  231MOL    C5446514   3.873   7.286   1.665 -0.2025 -0.2826  0.0657
  231MOL    C5546515   3.756   7.189   1.638  0.0177  0.8874  0.5205
  231MOL    N5646516   3.654   7.181   1.740 -0.0668 -0.1205 -0.1074
  231MOL    H5746517   3.840   7.389   1.670  0.2578 -0.1829  1.2591
  231MOL    H5846518   3.949   7.276   1.588 -0.5255 -0.4341 -0.2384
  231MOL    H5946519   3.800   7.091   1.618  1.2365  1.7755 -1.2619
  231MOL    H6046520   3.709   7.218   1.543 -0.5448  0.2702  0.6028
  231MOL    H6146521   3.593   7.100   1.745  1.1799 -1.2268 -2.1488
  231MOL    C6246522   3.593   7.280   1.801 -0.7228 -0.6823  0.5045
  231MOL    O6346523   3.639   7.395   1.818  0.3089  0.4540  0.6716
  231MOL    C6446524   3.455   7.248   1.856 -0.0140  0.2070 -0.2315
  231MOL    C6546525   3.460   7.223   2.010 -0.9211  0.1430 -0.3018
  231MOL    N6646526   3.320   7.210   2.054  0.5763  0.1316 -0.2201
  231MOL    H6746527   3.395   7.335   1.829 -1.5316 -0.0965  2.0469
  231MOL    H6846528   3.415   7.162   1.802  1.0169  1.0886 -2.4620
  231MOL    H6946529   3.518   7.134   2.034 -0.5144  0.7300  0.9185
  231MOL    H7046530   3.500   7.312   2.059 -1.3557 -0.5534  1.3687
  231MOL    H7146531   3.256   7.287   2.039  0.8786  0.8080  1.8259
  231MOL    C7246532   3.269   7.096   2.096  0.0175  0.3354 -0.6307
  231MOL    O7346533   3.334   6.993   2.109 -0.1245  0.5666  0.2895
  231MOL    C7446534   3.121   7.099   2.108  0.2581 -0.8053 -0.1239
  231MOL    C7546535   3.064   7.054   2.242 -0.2885  0.0613  0.3948
  231MOL    N7646536   2.920   7.042   2.246  0.3994  0.1045 -0.7775
  231MOL    H7746537   3.085   7.200   2.087  0.0931 -1.2097 -1.8976
  231MOL    H7846538   3.075   7.036   2.031  0.9623 -0.7432 -0.5944
  231MOL    H7946539   3.109   6.964   2.284  0.3453  1.0034  1.7814
  231MOL    H8046540   3.083   7.134   2.315  1.8043  1.6021 -1.7364
  231MOL    H8146541   2.873   7.071   2.161 -1.0305 -0.5885 -0.2403
  231MOL    C8246542   2.847   7.008   2.355  0.2512 -0.3787  0.3923
  231MOL    O8346543   2.897   7.011   2.467 -0.4146  0.1844  0.5241
  231MOL    C8446544   2.698   6.987   2.340  1.3250 -0.7320  0.4615
  231MOL    C8546545   2.657   6.844   2.383  0.3145  0.6422 -0.1866
  231MOL    N8646546   2.735   6.741   2.315 -0.1049  0.1381 -0.2037
  231MOL    H8746547   2.644   7.065   2.393 -0.9890 -0.7645 -1.7962
  231MOL    H8846548   2.670   7.007   2.237  0.4397  1.5466  1.1315
  231MOL    H8946549   2.675   6.833   2.490 -0.5867  1.2355  0.0265
  231MOL    H9046550   2.549   6.837   2.374  0.3312 -0.0517  0.1086
  231MOL    H9146551   2.833   6.763   2.324 -0.7909  2.7119  2.0387
  231MOL    C9246552   2.683   6.632   2.258  0.0014  0.3841 -0.3066
  231MOL    O9346553   2.562   6.620   2.242  0.1722  0.0132 -0.1491
  231MOL    C9446554   2.779   6.522   2.213  0.1881  0.4714 -0.0859
  231MOL    C9546555   2.794   6.519   2.060  0.6430 -0.5897  0.6788
  231MOL    N9646556   2.874   6.630   2.009 -0.2546 -0.3523  0.3323
  231MOL    H9746557   2.875   6.527   2.265 -0.2124 -1.6183  0.9388
  231MOL    H9846558   2.724   6.432   2.240  0.6028  0.2427  0.0025
  231MOL    H9946559   2.849   6.432   2.023  0.9609 -0.9004  1.8403
  231MOL   H10046560   2.692   6.509   2.023 -0.0276  1.9099  1.7270
  231MOL   H10146561   2.952   6.664   2.063  0.3079  1.3440 -1.4778
  231MOL   C10246562   2.832   6.700   1.903 -0.0644  0.0456  0.0694
  231MOL   O10346563   2.743   6.660   1.831 -0.5123  0.5760  0.9139
  231MOL   C10446564   2.908   6.833   1.874  0.8053 -0.7013 -0.4849
  231MOL   C10546565   2.865   6.906   1.736  0.1053 -0.0798 -0.5200
  231MOL   N10646566   2.947   7.030   1.718 -0.2261  0.5352 -0.0770
  231MOL   H10746567   3.017   6.826   1.870  0.9531  1.9050 -3.6912
  231MOL   H10846568   2.879   6.894   1.959 -2.8705 -3.2986  0.2428
  231MOL   H10946569   2.871   6.838   1.651 -0.6220 -3.0722  1.7577
  231MOL   H11046570   2.760   6.930   1.752 -0.0698 -1.3424  0.2540
  231MOL   H11146571   3.004   7.039   1.635  0.0693 -0.2369  0.0393
  231MOL   C11246572   2.932   7.139   1.792  0.0790  0.1537 -0.0959
  231MOL   O11346573   2.861   7.150   1.891  0.3260 -0.2906  0.1015
  231MOL   C11446574   3.015   7.252   1.728 -0.6785 -0.2217  0.1511
  231MOL   C11546575   2.937   7.381   1.696 -0.6008  0.1297 -0.0566
  231MOL   N11646576   3.001   7.469   1.595  1.1657 -0.2053 -0.1821
  231MOL   H11746577   3.068   7.224   1.637  2.8258  1.4602  1.5551
  231MOL   H11846578   3.096   7.266   1.801 -0.7861 -1.3211  0.4818
  231MOL   H11946579   2.837   7.353   1.664  0.2354 -1.1500 -1.6243
  231MOL   H12046580   2.919   7.438   1.787 -1.3151 -0.5917  0.2542
  231MOL   H12146581   3.100   7.488   1.605  1.2358 -1.3974  1.5352
  231MOL   C12246582   2.943   7.519   1.484 -0.8239  0.1160 -0.1986
  231MOL   O12346583   2.823   7.494   1.458  0.4535  0.4168 -0.1503
  231MOL   C12446584   3.028   7.616   1.398 -0.0985 -0.2843 -0.8647
  231MOL   C12546585   3.069   7.741   1.462  0.2909  0.1689  0.4801
  231MOL   N12646586   2.969   0.062   1.488  0.0602 -0.3565  0.1446
  231MOL   H12746587   2.982   7.630   1.300  0.9442 -0.4701 -1.3847
  231MOL   H12846588   3.125   7.574   1.372 -1.1422 -2.5582 -1.1483
  231MOL   H12946589   3.120   7.723   1.556  1.1807  1.0758  0.1701
  231MOL   H13046590   3.150   0.009   1.408 -0.7767  0.7420 -0.6536
  231MOL   H13146591   2.952   0.077   1.586  0.1489  0.2746  0.0627
  231MOL   C13246592   2.905   0.137   1.398 -0.3898 -0.3472 -0.1357
  231MOL   O13346593   2.923   0.126   1.278  0.4733  0.3747  0.1713
  231MOL   C13446594   2.816   0.245   1.463 -0.4050 -1.0652  0.2297
  231MOL   C13546595   2.688   0.263   1.380  0.8938  0.7522 -0.6250
  231MOL   N13646596   2.703   0.333   1.256  0.7280 -0.2140 -0.7067
  231MOL   H13746597   2.859   0.344   1.479  1.1341 -1.6933  0.0834
  231MOL   H13846598   2.785   0.220   1.565  1.4690  1.5780  1.5034
  231MOL   H13946599   2.653   0.162   1.361  2.7183 -0.2739  1.2587
  231MOL   H14046600   2.621   0.322   1.443 -0.0002 -1.4197  0.5250
  231MOL   H14146601   2.791   0.326   1.206  1.2768 -0.6126  0.3106
  231MOL   C14246602   2.595   0.378   1.191 -0.4536 -0.5784 -1.0128
  231MOL   O14346603   2.489   0.404   1.242  0.2230 -0.0270  0.2516
  231MOL   C14446604   2.607   0.416   1.041  0.3029 -0.0697  0.0400
  231MOL   C14546605   2.547   0.295   0.951  0.0686  1.0933  0.9228
  231MOL   N14646606   2.652   0.196   0.934 -0.4523  0.5271 -0.5372
  231MOL   H14746607   2.706   0.447   1.010 -0.1869 -0.1262 -1.6413
  231MOL   H14846608   2.544   0.504   1.025 -0.9825 -1.0198 -0.1783
  231MOL   H14946609   2.456   0.254   0.996  0.1832 -0.6003 -0.2989
  231MOL   H15046610   2.526   0.344   0.856  1.1949  0.1780  0.1878
  231MOL   H15146611   2.745   0.233   0.932 -0.5455  1.4778  4.5109
  231MOL   C15246612   2.640   0.062   0.920 -0.2387  0.5080 -0.7130
  231MOL   O15346613   2.532   0.000   0.933 -0.1155  0.2432  0.5435
  231MOL   C15446614   2.757   7.756   0.901 -0.1728 -0.5657  0.2707
  231MOL   C15546615   2.736   7.682   0.767  0.6583  0.3864 -0.0141
  231MOL   N15646616   2.866   7.649   0.710 -0.1459  0.2957 -0.0469
  231MOL   H15746617   2.756   7.692   0.989  1.3122 -0.2001  0.5698
  231MOL   H15846618   2.845   0.040   0.888 -0.3860 -1.0388 -4.3356
  231MOL   H15946619   2.669   7.601   0.795  1.5003  0.5760  2.6686
  231MOL   H16046620   2.687   7.743   0.692  0.3340 -0.2653 -0.3411
  231MOL   H16146621   2.952   7.690   0.743  1.4503 -2.8169 -0.1488
  231MOL   C16246622   2.872   7.566   0.602 -0.2401  0.2830  0.3645
  231MOL   O16346623   2.772   7.511   0.549  0.3399 -0.5684  0.6954
  231MOL   C16446624   3.009   7.541   0.534  0.3225 -0.7902 -1.0444
  231MOL   C16546625   3.002   7.476   0.392  0.6984 -0.2361  0.4770
  231MOL   N16646626   2.903   7.538   0.306 -0.3685 -0.5599 -0.1691
  231MOL   H16746627   3.065   7.470   0.595 -1.7236 -2.4226 -0.9975
  231MOL   H16846628   3.076   7.626   0.534  1.8158 -1.9254  1.1809
  231MOL   H16946629   3.098   7.467   0.343 -0.0308  1.7288 -1.3976
  231MOL   H17046630   2.965   7.374   0.409  1.3290 -0.4954  0.3025
  231MOL   H17146631   2.805   7.516   0.312 -0.8810  1.5717 -0.4566
  231MOL   C17246632   2.936   7.629   0.211 -0.1717 -0.0972 -0.6150
  231MOL   O17346633   3.048   7.650   0.177 -0.1496  0.3495 -0.0579
  231MOL   C17446634   2.816   7.684   0.140  0.6209 -0.4507 -0.0218
  231MOL   C17546635   2.837   7.743   0.003 -0.9933 -0.4362  0.4619
  231MOL   N17646636   2.712   7.759   7.715 -0.0054 -0.0432  0.0210
  231MOL   H17746637   2.778   7.758   0.210  0.3149 -0.9678  0.3642
  231MOL   H17846638   2.742   7.604   0.139 -0.6467  0.6752  1.8758
  231MOL   H17946639   2.880   0.060   0.029  0.1606 -0.2758 -1.9093
  231MOL   H18046640   2.909   7.679   7.731  0.0178  0.0846  1.1827
  231MOL   H18146641   2.634   7.724   7.769  0.4122 -0.1133  0.5890
  231MOL   C18246642   2.700   0.040   7.597  0.4379  0.0013  0.3487
  231MOL   O18346643   2.797   0.080   7.537 -0.2565 -0.5286 -0.2970
  231MOL   C18446644   2.558   0.045   7.540 -0.1385 -0.0151  0.6095
  231MOL   C18546645   2.544   0.120   7.403 -0.6075  0.1728 -0.3130
  231MOL   N18646646   2.480   0.252   7.397  0.5972 -0.2925  0.0493
  231MOL   H18746647   2.482   0.079   7.610  0.1150 -2.0361  1.9024
  231MOL   H18846648   2.536   7.720   7.524 -0.7496 -0.2456  2.7853
  231MOL   H18946649   2.641   0.116   7.352  1.0845 -1.7704  2.8523
  231MOL   H19046650   2.483   0.058   7.337  0.5600  0.8680 -2.0691
  231MOL   H19146651   2.397   0.259   7.340 -0.4054  0.7342  1.6019
  231MOL   C19246652   2.529   0.366   7.434 -0.1110 -0.3469  0.2418
  231MOL   O19346653   2.623   0.365   7.515  0.2231  0.6659  0.1574
  231MOL   C19446654   2.461   0.487   7.378 -0.7903 -0.2203 -0.1199
  231MOL   C19546655   2.313   0.496   7.365 -0.3100 -0.5519 -0.3572
  231MOL   N19646656   2.240   0.510   7.491 -0.5859 -0.3786  0.0583
  231MOL   H19746657   2.491   0.570   7.442  2.0614 -1.4461  0.2119
  231MOL   H19846658   2.511   0.512   7.284  0.0144 -0.8003  0.1453
  231MOL   H19946659   2.290   0.587   7.310  0.9438 -0.9866 -1.6379
  231MOL   H20046660   2.274   0.411   7.309  0.9516 -1.5280  0.1908
  231MOL   H20146661   2.311   0.527   7.561  0.5502 -1.8601 -0.7018
  231MOL   H20246662   2.184   0.594   7.492 -0.2113 -0.1276  0.2830
  232MOL     C146663   6.215   6.081   0.580 -0.7767  0.3311 -0.3110
  232MOL     O246664   6.274   6.146   0.665  0.3958 -0.5204  0.3245
  232MOL     C346665   6.123   6.158   0.490 -0.2486  0.7587 -0.1209
  232MOL     C446666   6.182   6.179   0.347 -0.4864  0.5673  0.9443
  232MOL     N546667   6.210   6.059   0.276  0.0852 -0.0885  0.7638
  232MOL     H646668   6.091   6.254   0.531  2.2541  1.5797  0.0162
  232MOL     H746669   6.032   6.102   0.468  1.2238 -1.6344 -0.2709
  232MOL     H846670   6.274   6.237   0.345  1.4327 -2.3634  0.1581
  232MOL     H946671   6.122   6.241   0.281 -0.6566 -1.1817 -0.5727
  232MOL    H1046672   6.300   6.047   0.231  0.5206  0.6134  1.4401
  232MOL    H1146673   6.222   5.973   0.574  0.0211  0.2218  2.0646
  232MOL    C1246674   6.118   5.981   0.208  0.0379 -0.4137  0.6588
  232MOL    O1346675   5.999   5.991   0.231 -0.3746 -0.5889 -0.0322
  232MOL    C1446676   6.165   5.880   0.099 -0.3092  0.2827  0.4873
  232MOL    C1546677   6.069   5.797   0.021  0.4005 -0.3351 -0.6763
  232MOL    N1646678   6.006   5.695   0.094 -0.5487 -0.2009 -0.3397
  232MOL    H1746679   6.246   5.817   0.138 -0.4154  1.0024  1.9289
  232MOL    H1846680   6.217   5.946   0.030  0.8302 -0.9993  0.0963
  232MOL    H1946681   6.003   5.867   7.750 -0.4056  1.1195  2.2339
  232MOL    H2046682   6.120   5.745   7.720 -0.3682  0.0193 -1.3993
  232MOL    H2146683   6.043   5.656   0.179 -2.1432  0.7205  0.8073
  232MOL    C2246684   5.894   5.642   0.044  0.1259  0.3447 -0.1868
  232MOL    O2346685   5.864   5.661   7.709  0.2147 -0.2009 -0.3899
  232MOL    C2446686   5.816   5.546   0.131 -0.1069 -0.3994  0.7226
  232MOL    C2546687   5.808   5.407   0.075  0.3907 -0.0210  0.0201
  232MOL    N2646688   5.708   5.321   0.140  0.1297 -0.2710 -0.5232
  232MOL    H2746689   5.721   5.591   0.159  1.3185  1.8400  2.1619
  232MOL    H2846690   5.872   5.543   0.225 -0.2024  0.7338  0.8180
  232MOL    H2946691   5.796   5.398   7.748  0.0839  0.2989  0.0261
  232MOL    H3046692   5.902   5.353   0.090  0.9423  0.6077 -1.1314
  232MOL    H3146693   5.615   5.324   0.101 -0.4946 -3.4610  0.5197
  232MOL    C3246694   5.734   5.234   0.241  0.1173 -0.4507  0.0277
  232MOL    O3346695   5.845   5.201   0.277 -0.1907 -0.3200 -0.2224
  232MOL    C3446696   5.611   5.165   0.297  0.1092  0.6992 -0.4605
  232MOL    C3546697   5.628   5.045   0.389  0.0823  0.1796  0.3731
  232MOL    N3646698   5.676   5.078   0.525 -0.3240 -0.1225  0.4123
  232MOL    H3746699   5.554   5.136   0.209 -0.3601  0.0617  0.0493
  232MOL    H3846700   5.560   5.239   0.359  2.5829 -0.7721  3.5714
  232MOL    H3946701   5.532   4.994   0.395  0.0531  0.1799 -0.0830
  232MOL    H4046702   5.702   4.976   0.349  0.6926  0.5036  0.9194
  232MOL    H4146703   5.775   5.090   0.538  0.0913 -0.3952 -2.2899
  232MOL    C4246704   5.605   5.066   0.636  0.8884 -0.1466  0.0968
  232MOL    O4346705   5.488   5.021   0.634  0.0033 -0.7061  0.0487
  232MOL    C4446706   5.659   5.120   0.766 -0.1434 -0.3839 -0.5231
  232MOL    C4546707   5.560   5.191   0.853 -0.0030 -0.0638  0.4339
  232MOL    N4646708   5.622   5.224   0.981  0.5958  0.1146  0.7549
  232MOL    H4746709   5.719   5.047   0.818  0.9708  0.3191 -0.7956
  232MOL    H4846710   5.734   5.192   0.732  0.6441 -1.2159 -0.5602
  232MOL    H4946711   5.523   5.278   0.799 -2.8714 -1.1005  0.6596
  232MOL    H5046712   5.472   5.131   0.874 -1.4249  1.7186 -0.3224
  232MOL    H5146713   5.678   5.308   0.976  0.8470 -0.1123 -0.4650
  232MOL    C5246714   5.607   5.144   1.089  0.4910  0.1239 -0.3912
  232MOL    O5346715   5.540   5.044   1.086  0.4300 -0.4606  0.7263
  232MOL    C5446716   5.708   5.169   1.206  0.1654  0.3865  0.8267
  232MOL    C5546717   5.775   5.042   1.255  0.0158  0.0297 -0.0885
  232MOL    N5646718   5.868   4.984   1.157 -0.5319 -0.1819 -0.3826
  232MOL    H5746719   5.787   5.236   1.170 -0.6012  0.7686 -0.1760
  232MOL    H5846720   5.654   5.227   1.281 -0.6140  0.8791 -0.0923
  232MOL    H5946721   5.697   4.970   1.279 -1.7081  2.4832  2.0710
  232MOL    H6046722   5.835   5.058   1.345 -1.1120 -1.6408  0.9864
  232MOL    H6146723   5.930   5.049   1.111  0.7430 -0.8349  0.3948
  232MOL    C6246724   5.885   4.851   1.117 -0.1086 -0.1190  0.6048
  232MOL    O6346725   5.809   4.769   1.165  0.0556 -0.1292 -0.3809
  232MOL    C6446726   5.988   4.812   1.008  0.0746  0.8634 -0.2324
  232MOL    C6546727   6.075   4.695   1.068  0.0251 -0.7852  0.6961
  232MOL    N6646728   6.177   4.647   0.973 -0.3565 -0.3440  0.0299
  232MOL    H6746729   5.943   4.775   0.916  1.6382 -1.9872  0.0742
  232MOL    H6846730   6.051   4.897   0.985 -1.6402  2.5428  1.1699
  232MOL    H6946731   6.123   4.721   1.162  2.1597  1.7285 -1.0126
  232MOL    H7046732   6.009   4.611   1.087 -1.1160 -0.1984 -0.5820
  232MOL    H7146733   6.174   4.679   0.877  2.4303 -1.1396 -0.3442
  232MOL    C7246734   6.259   4.552   1.008  0.0062 -0.3104 -0.2332
  232MOL    O7346735   6.261   4.516   1.125  0.7257 -0.0323  0.4705
  232MOL    C7446736   6.345   4.486   0.899  0.2743  0.5471 -0.0810
  232MOL    C7546737   6.492   4.459   0.947  0.3505  0.1576  0.2821
  232MOL    N7646738   6.570   4.576   0.940  0.4056 -0.0149  0.1984
  232MOL    H7746739   6.288   4.399   0.867  1.9497 -0.4064 -0.5449
  232MOL    H7846740   6.350   4.544   0.807  1.2128 -0.8764 -0.9490
  232MOL    H7946741   6.497   4.424   1.050 -0.4318 -1.3914 -0.1926
  232MOL    H8046742   6.532   4.382   0.880  0.8661 -0.3477  1.1724
  232MOL    H8146743   6.584   4.606   0.844 -1.8714  3.0845  0.7502
  232MOL    C8246744   6.618   4.645   1.044  0.1097 -0.3764 -0.5536
  232MOL    O8346745   6.625   4.601   1.160 -0.3953  0.2333 -0.4521
  232MOL    C8446746   6.671   4.783   1.007  0.0028 -0.6390 -0.5788
  232MOL    C8546747   6.628   4.896   1.104 -0.4763  0.3848 -0.3904
  232MOL    N8646748   6.488   4.930   1.094 -0.0785  0.7292 -0.3422
  232MOL    H8746749   6.779   4.791   1.006  0.0259 -0.8500  0.2134
  232MOL    H8846750   6.647   4.798   0.902 -2.6141  0.5010  0.1424
  232MOL    H8946751   6.647   4.862   1.205 -0.4372 -0.0235 -0.5357
  232MOL    H9046752   6.689   4.987   1.097  0.9789 -0.5683 -0.3925
  232MOL    H9146753   6.438   4.880   1.023 -0.1926  1.2221 -0.6131
  232MOL    C9246754   6.428   5.004   1.190 -0.1164  0.3734  0.1187
  232MOL    O9346755   6.492   5.070   1.274  0.3463  0.0753 -0.0769
  232MOL    C9446756   6.277   4.988   1.208 -0.4382 -1.1219  0.4554
  232MOL    C9546757   6.212   5.121   1.260 -0.5018 -0.2148  0.5271
  232MOL    N9646758   6.203   5.238   1.167  0.1255  0.6339  0.4565
  232MOL    H9746759   6.229   4.968   1.112  1.7417 -2.2068 -0.4286
  232MOL    H9846760   6.250   4.903   1.270  1.3453 -0.7418  1.8009
  232MOL    H9946761   6.110   5.113   1.296 -0.3261 -1.1743  0.8223
  232MOL   H10046762   6.277   5.148   1.344 -0.4813  0.1436  0.3945
  232MOL   H10146763   6.265   5.317   1.180  0.9730  0.2002 -0.8611
  232MOL   C10246764   6.120   5.245   1.063  0.4353 -0.8252 -0.5306
  232MOL   O10346765   6.043   5.157   1.045  0.3204  0.4867 -0.1021
  232MOL   C10446766   6.130   5.372   0.970  0.1352 -0.7563 -0.4302
  232MOL   C10546767   5.988   5.427   0.906  0.5239  0.1612 -0.5786
  232MOL   N10646768   5.913   5.511   0.998 -0.3954  1.0938  0.1539
  232MOL   H10746769   6.198   5.333   0.894 -1.2571 -1.1356 -1.5202
  232MOL   H10846770   6.172   5.455   1.026  0.2162 -0.7738 -0.4650
  232MOL   H10946771   5.997   5.491   0.818  0.4630  0.1012 -0.6280
  232MOL   H11046772   5.921   5.343   0.889  1.2586 -0.7311  0.8256
  232MOL   H11146773   5.960   5.563   1.070  0.8429  0.4153 -0.1639
  232MOL   C11246774   5.784   5.546   0.972  0.5137  0.1400 -0.2107
  232MOL   O11346775   5.709   5.470   0.913 -0.0881  0.1263  0.0123
  232MOL   C11446776   5.737   5.675   1.043 -0.2410 -0.1514  0.4480
  232MOL   C11546777   5.589   5.705   1.013 -0.3634 -0.0133  0.5130
  232MOL   N11646778   5.506   5.590   1.051 -0.0902  0.2432  0.4363
  232MOL   H11746779   5.801   5.759   1.015 -2.0561  1.9151  2.2698
  232MOL   H11846780   5.748   5.663   1.151 -0.7409 -3.9353  0.1443
  232MOL   H11946781   5.549   5.790   1.068 -2.0368  0.1135 -0.8814
  232MOL   H12046782   5.568   5.740   0.912 -1.1933  0.2284  0.7704
  232MOL   H12146783   5.548   5.507   1.090  0.2130  0.4947  0.6558
  232MOL   C12246784   5.377   5.582   1.022 -0.0436  0.1229 -0.3431
  232MOL   O12346785   5.316   5.674   0.972  0.3849 -0.2490 -0.0219
  232MOL   C12446786   5.302   5.454   1.058 -0.0612 -0.0140  0.3657
  232MOL   C12546787   5.251   5.462   1.207  0.3070  0.6076  0.1817
  232MOL   N12646788   5.198   5.334   1.240 -0.1538  0.1534  0.3952
  232MOL   H12746789   5.371   5.369   1.057  0.2603  0.2540 -0.3959
  232MOL   H12846790   5.224   5.433   0.986 -0.4094  1.1256  0.4095
  232MOL   H12946791   5.331   5.497   1.271  2.3086 -0.9866 -1.3791
  232MOL   H13046792   5.170   5.534   1.218 -0.2544 -0.1645  1.1110
  232MOL   H13146793   5.097   5.335   1.227 -0.1574 -0.0373  0.4170
  232MOL   C13246794   5.262   5.238   1.300  0.0454  0.2129  0.1162
  232MOL   O13346795   5.380   5.250   1.345  0.4397  0.4429 -0.6738
  232MOL   C13446796   5.195   5.103   1.327  0.2277 -0.0312 -0.3882
  232MOL   C13546797   5.271   4.979   1.277 -0.0825 -0.1352 -0.6829
  232MOL   N13646798   5.260   4.965   1.127 -0.1574  0.0584 -0.5139
  232MOL   H13746799   5.092   5.114   1.292 -0.1689 -1.5978  0.2566
  232MOL   H13846800   5.174   5.104   1.434 -1.8426  0.2116 -0.7684
  232MOL   H13946801   5.377   4.983   1.299 -0.6731  0.0797  2.3273
  232MOL   H14046802   5.236   4.899   1.342  0.9463  0.8364  1.0810
  232MOL   H14146803   5.347   4.970   1.076  0.7143 -1.0876  0.8232
  232MOL   C14246804   5.154   4.935   1.059 -0.1853 -0.1732  1.0454
  232MOL   O14346805   5.044   4.912   1.108  0.3924  0.2313  0.3440
  232MOL   C14446806   5.160   4.924   0.902  0.4592  0.2632  0.2070
  232MOL   C14546807   5.113   4.785   0.850  0.2413 -0.7813  0.2881
  232MOL   N14646808   4.975   4.739   0.880  0.4951  0.7123 -0.1361
  232MOL   H14746809   5.267   4.931   0.884  0.4341  1.2246  0.4338
  232MOL   H14846810   5.100   5.004   0.861  1.1626  1.7733  2.0442
  232MOL   H14946811   5.131   4.787   0.742  0.6489  0.1394  0.3679
  232MOL   H15046812   5.181   4.709   0.887 -0.1455 -2.2990 -1.9835
  232MOL   H15146813   4.906   4.804   0.914 -0.7911 -0.2562 -0.8558
  232MOL   C15246814   4.937   4.613   0.859 -0.5652 -0.8341  0.1145
  232MOL   O15346815   5.011   4.529   0.815 -0.8469  0.4988 -0.1613
  232MOL   C15446816   4.790   4.583   0.880  0.3733  0.8803  0.4664
  232MOL   C15546817   4.756   4.455   0.961  0.8597  0.2059  0.0530
  232MOL   N15646818   4.617   4.451   1.012 -0.6178  0.1601  0.0593
  232MOL   H15746819   4.739   4.580   0.784 -0.5577  0.3014  0.9700
  232MOL   H15846820   4.759   4.672   0.936  0.6124  0.4187  1.3355
  232MOL   H15946821   4.769   4.365   0.901 -2.1715 -0.0610 -0.2873
  232MOL   H16046822   4.824   4.449   1.046 -0.8208 -1.7384  1.3232
  232MOL   H16146823   4.550   4.397   0.958 -0.2043  1.2320 -1.5792
  232MOL   C16246824   4.568   4.510   1.123 -0.7724  0.0682  0.6931
  232MOL   O16346825   4.641   4.565   1.202 -0.4648 -0.2551 -0.5736
  232MOL   C16446826   4.418   4.510   1.150  0.9294 -0.0990  0.0475
  232MOL   C16546827   4.376   4.465   1.295  0.0964 -0.1814 -0.1188
  232MOL   N16646828   4.233   4.466   1.321  0.6782  0.0296  0.4061
  232MOL   H16746829   4.392   4.441   1.070 -1.5609 -0.3652  1.0505
  232MOL   H16846830   4.379   4.610   1.135 -0.2185 -0.3429  1.2689
  232MOL   H16946831   4.411   4.363   1.313 -0.4344 -0.9188 -2.9231
  232MOL   H17046832   4.419   4.540   1.361 -0.2267  0.2878 -0.4426
  232MOL   H17146833   4.200   4.556   1.353  0.0003 -0.5503  1.3431
  232MOL   C17246834   4.153   4.366   1.288  0.1644  0.2882  0.0262
  232MOL   O17346835   4.196   4.252   1.252  0.0039 -0.2439  0.1845
  232MOL   C17446836   4.002   4.396   1.293  0.2006  0.8051  0.2019
  232MOL   C17546837   3.928   4.290   1.383 -0.5416 -0.0952 -0.4367
  232MOL   N17646838   3.934   4.316   1.526  1.0540  0.4299 -0.4630
  232MOL   H17746839   3.962   4.398   1.191  1.4968 -0.4383 -0.3486
  232MOL   H17846840   3.988   4.498   1.327  0.0629  1.1371 -0.8443
  232MOL   H17946841   3.823   4.299   1.352 -0.3548 -1.7832 -1.6277
  232MOL   H18046842   3.967   4.190   1.362  1.9148  1.1281 -1.8175
  232MOL   H18146843   3.964   4.407   1.558  1.2532  0.5434 -0.9704
  232MOL   C18246844   3.924   4.220   1.621  0.0159 -0.0778  0.1537
  232MOL   O18346845   3.902   4.099   1.596  0.3733 -0.1641  0.2153
  232MOL   C18446846   3.946   4.274   1.765  0.5051 -0.4664 -0.1923
  232MOL   C18546847   3.833   4.223   1.858  0.2370  0.3856 -0.8113
  232MOL   N18646848   3.704   4.291   1.844 -0.5240  0.5060  0.6450
  232MOL   H18746849   3.943   4.383   1.774  0.0795 -0.3860 -1.2157
  232MOL   H18846850   4.043   4.239   1.800 -0.6784 -1.0087  2.7507
  232MOL   H18946851   3.815   4.116   1.853  0.2272  0.4323 -1.9889
  232MOL   H19046852   3.867   4.240   1.960 -1.5581  0.0452 -0.1435
  232MOL   H19146853   3.633   4.256   1.782  0.1516 -2.7224  1.5729
  232MOL   C19246854   3.664   4.401   1.910 -0.1544  0.6343 -0.2964
  232MOL   O19346855   3.746   4.468   1.973  0.6942 -0.6269  0.4636
  232MOL   C19446856   3.510   4.436   1.907  0.6734  0.1285 -0.5563
  232MOL   C19546857   3.498   4.589   1.905  0.1209  0.1760 -0.2235
  232MOL   N19646858   3.366   4.624   1.850 -0.2266  0.1754 -0.0192
  232MOL   H19746859   3.461   4.398   1.818 -0.6283 -2.9533  1.3731
  232MOL   H19846860   3.460   4.392   1.994  0.3092  0.4296 -0.6140
  232MOL   H19946861   3.508   4.621   2.008  0.3100 -0.1369 -0.1435
  232MOL   H20046862   3.578   4.633   1.845  0.0004 -2.3375 -2.3486
  232MOL   H20146863   3.320   4.676   1.923 -2.5030 -1.0333 -0.5816
  232MOL   H20246864   3.306   4.543   1.842  0.3145 -0.2976  0.7301
  233MOL     C146865   3.992   3.381   7.433 -0.3641  0.6411 -0.0903
  233MOL     O246866   3.928   3.290   7.378 -0.2666  0.0126 -0.3342
  233MOL     C346867   3.975   3.529   7.394 -0.0588 -0.0640  0.3136
  233MOL     C446868   3.839   3.566   7.339 -0.1474 -0.7609  0.3155
  233MOL     N546869   3.750   3.617   7.440  0.2264 -0.1619 -0.6383
  233MOL     H646870   4.055   3.554   7.325  1.2416 -3.0829  0.6556
  233MOL     H746871   3.981   3.584   7.488 -0.1641  0.1407  0.2015
  233MOL     H846872   3.812   3.490   7.267 -1.7529  1.2932 -1.3295
  233MOL     H946873   3.863   3.647   7.270 -0.5835  0.0432  1.0884
  233MOL    H1046874   3.767   3.712   7.469 -0.4264  0.0383 -0.9022
  233MOL    H1146875   4.067   3.358   7.508 -0.4607  1.8287  0.3938
  233MOL    C1246876   3.636   3.565   7.474 -0.6135  0.2397 -0.1331
  233MOL    O1346877   3.592   3.454   7.444  0.0679  0.2884  0.1633
  233MOL    C1446878   3.550   3.660   7.577  0.4760 -0.3231  0.4480
  233MOL    C1546879   3.609   3.661   7.723 -0.2200 -0.3286 -0.4442
  233MOL    N1646880   3.556   3.558   0.031 -0.3247 -0.6036  0.0791
  233MOL    H1746881   3.442   3.652   7.568  0.0641  1.5027  3.3426
  233MOL    H1846882   3.575   3.762   7.549  2.7043 -0.1683  2.7887
  233MOL    H1946883   3.718   3.655   7.720 -0.3177 -2.6486 -0.0455
  233MOL    H2046884   3.591   3.761   7.761 -2.2540 -0.9599  0.3171
  233MOL    H2146885   3.613   3.483   0.067  1.0927  0.9485  1.1428
  233MOL    C2246886   3.431   3.561   0.078  1.0344 -0.0221 -0.0143
  233MOL    O2346887   3.339   3.635   0.042 -0.1411  0.0253  0.2708
  233MOL    C2446888   3.399   3.472   0.192 -0.3653 -0.3668  0.2089
  233MOL    C2546889   3.403   3.536   0.327 -0.0343 -0.4915  0.1269
  233MOL    N2646890   3.533   3.581   0.373 -0.7020  0.4102  0.5087
  233MOL    H2746891   3.454   3.379   0.179 -0.9028 -0.4795 -1.3422
  233MOL    H2846892   3.292   3.453   0.178 -0.4591  0.3187  0.0036
  233MOL    H2946893   3.343   3.627   0.320 -1.4631 -1.4161  0.2060
  233MOL    H3046894   3.360   3.477   0.408 -0.5092 -0.7174 -0.2901
  233MOL    H3146895   3.611   3.525   0.342  0.2200  1.7499  0.4030
  233MOL    C3246896   3.555   3.680   0.464 -0.1658  0.3990 -0.3352
  233MOL    O3346897   3.458   3.741   0.509  0.2661  0.4505 -0.4740
  233MOL    C3446898   3.704   3.714   0.507  0.0530  0.2802  0.1010
  233MOL    C3546899   3.747   3.863   0.461  0.8297  0.6087 -0.2729
  233MOL    N3646900   3.767   3.883   0.319  0.0170 -0.1009 -0.7503
  233MOL    H3746901   3.771   3.633   0.476 -1.2130  0.0836 -2.2989
  233MOL    H3846902   3.717   3.689   0.612  0.3501 -0.4918 -0.1103
  233MOL    H3946903   3.662   3.926   0.491  1.7527  1.5420  0.4241
  233MOL    H4046904   3.829   3.892   0.526  0.7592  0.0673  0.0601
  233MOL    H4146905   3.694   3.934   0.271  0.2677  0.3044 -0.7055
  233MOL    C4246906   3.878   3.844   0.251  0.0542  0.2830  0.2585
  233MOL    O4346907   3.969   3.777   0.302 -0.1173 -0.3152  0.3179
  233MOL    C4446908   3.888   3.892   0.109 -0.4235  0.6204  0.4645
  233MOL    C4546909   4.042   3.904   0.079  0.1731 -0.5783 -0.2106
  233MOL    N4646910   4.060   3.951   7.723  0.2579  0.3989  0.0830
  233MOL    H4746911   3.845   3.817   0.042  2.0248  0.0687 -0.5211
  233MOL    H4846912   3.841   3.989   0.090 -0.7947  0.4310  0.4070
  233MOL    H4946913   4.085   3.983   0.141 -1.7291 -0.4241  0.9855
  233MOL    H5046914   4.091   3.808   0.094 -0.7940 -0.3925  4.9428
  233MOL    H5146915   4.062   4.052   7.714  0.7932  0.3595 -0.2445
  233MOL    C5246916   4.094   3.872   7.617 -0.3384 -0.2597  0.0404
  233MOL    O5346917   4.081   3.749   7.623  0.2995 -0.3872  0.4902
  233MOL    C5446918   4.139   3.940   7.490 -0.4055 -0.0058 -0.9295
  233MOL    C5546919   4.095   3.861   7.366  0.9626 -0.3869 -0.8228
  233MOL    N5646920   4.126   3.925   7.246 -0.1233 -0.3580 -0.3665
  233MOL    H5746921   4.085   4.035   7.498  0.7823  0.4282  2.8050
  233MOL    H5846922   4.246   3.960   7.497 -0.2206 -1.7297  1.7533
  233MOL    H5946923   3.989   3.838   7.379  1.3315 -0.3522  2.7237
  233MOL    H6046924   4.145   3.764   7.363 -0.2280 -0.9794 -2.5530
  233MOL    H6146925   4.148   4.021   7.268  1.2884 -0.9366  0.8470
  233MOL    C6246926   4.105   3.871   7.130 -0.1823  0.2901 -0.7441
  233MOL    O6346927   4.065   3.759   7.116  0.5380  0.0571 -0.0748
  233MOL    C6446928   4.139   3.955   7.004 -0.1841  0.3506 -0.1438
  233MOL    C6546929   4.074   3.916   6.867 -0.3352 -0.2861 -0.8346
  233MOL    N6646930   4.168   3.841   6.793 -0.4094  0.5094  0.8274
  233MOL    H6746931   4.098   4.056   7.014  2.1773  1.2327  1.2313
  233MOL    H6846932   4.248   3.967   7.004 -0.1205 -0.1094  1.7308
  233MOL    H6946933   3.984   3.859   6.890 -1.9199  1.8191 -1.6768
  233MOL    H7046934   4.049   4.007   6.813 -0.4171 -0.6661 -1.4424
  233MOL    H7146935   4.261   3.829   6.831 -0.2155 -0.1078  0.1702
  233MOL    C7246936   4.140   3.773   6.677 -0.3471  0.0492  0.1414
  233MOL    O7346937   4.031   3.771   6.630 -0.3426  0.5633  0.2503
  233MOL    C7446938   4.257   3.710   6.600 -0.5160  0.1273 -0.9804
  233MOL    C7546939   4.243   3.616   6.484  0.2251  0.8610  0.0267
  233MOL    N7646940   4.218   3.474   6.516  0.7312 -0.4374  0.1601
  233MOL    H7746941   4.312   3.794   6.558  0.1562 -0.6328 -1.6199
  233MOL    H7846942   4.329   3.669   6.671  0.1390  1.8423 -0.6413
  233MOL    H7946943   4.162   3.650   6.419  2.0463  1.9254 -1.7268
  233MOL    H8046944   4.332   3.622   6.423  2.1339 -1.1214  2.4746
  233MOL    H8146945   4.211   3.443   6.612 -1.6260 -1.9136 -0.4315
  233MOL    C8246946   4.190   3.380   6.430  0.1544 -0.4420  0.0779
  233MOL    O8346947   4.191   3.407   6.313  0.2734  0.4018  0.2059
  233MOL    C8446948   4.180   3.238   6.479  0.1089  0.5439  0.0143
  233MOL    C8546949   4.034   3.186   6.485  0.4024 -0.0849  0.2671
  233MOL    N8646950   3.966   3.210   6.609 -0.6234  0.0901  0.1740
  233MOL    H8746951   4.231   3.179   6.403 -0.6044 -1.3156  0.9551
  233MOL    H8846952   4.243   3.234   6.569 -0.5203  1.8425  0.5265
  233MOL    H8946953   3.964   3.226   6.412  1.8517 -0.9174 -1.6471
  233MOL    H9046954   4.036   3.081   6.458 -1.8341 -0.4026  1.2830
  233MOL    H9146955   3.948   3.308   6.626  0.1121  0.0281  1.3287
  233MOL    C9246956   3.929   3.125   6.704  0.2221  0.1921  0.3324
  233MOL    O9346957   3.970   3.010   6.701  0.2156  0.0076  0.2456
  233MOL    C9446958   3.831   3.169   6.807  0.2930  0.2456 -0.3589
  233MOL    C9546959   3.890   3.146   6.949  0.5478 -0.2518 -0.1862
  233MOL    N9646960   3.796   3.194   7.051 -0.2083 -0.2426  0.0891
  233MOL    H9746961   3.797   3.272   6.795  1.2446  0.6524  0.3614
  233MOL    H9846962   3.735   3.117   6.804  0.4158 -0.0421  0.4428
  233MOL    H9946963   3.915   3.042   6.970  0.9164 -0.0746  0.2639
  233MOL   H10046964   3.980   3.207   6.958  0.6988 -0.5777  0.5368
  233MOL   H10146965   3.782   3.292   7.067 -1.2883 -0.3466 -0.1960
  233MOL   C10246966   3.742   3.114   7.148  0.5865  0.2489 -0.1432
  233MOL   O10346967   3.739   2.994   7.140  0.0156 -0.0717  0.5013
  233MOL   C10446968   3.665   3.181   7.258  0.2870  0.1783  0.0262
  233MOL   C10546969   3.666   3.108   7.388  0.4423 -0.0302  0.3114
  233MOL   N10646970   3.585   3.175   7.491 -0.3717 -0.2357  0.1517
  233MOL   H10746971   3.564   3.192   7.219  1.1756  1.5248 -1.9930
  233MOL   H10846972   3.706   3.281   7.279 -0.4146  0.5518 -0.3834
  233MOL   H10946973   3.620   3.010   7.374 -1.7252  0.8734  0.8673
  233MOL   H11046974   3.765   3.104   7.432  0.8536  0.2476 -0.5976
  233MOL   H11146975   3.598   3.274   7.480  0.3574 -0.3314  0.1478
  233MOL   C11246976   3.509   3.111   7.587  1.1278 -0.4338 -0.3373
  233MOL   O11346977   3.512   2.992   7.602  0.2516  0.6468  0.3404
  233MOL   C11446978   3.431   3.194   7.689  0.0935  0.2433 -0.3887
  233MOL   C11546979   3.305   3.253   7.635  0.3103 -0.3816 -0.0691
  233MOL   N11646980   3.326   3.347   7.528 -0.4091  1.2419 -0.4417
  233MOL   H11746981   3.489   3.278   7.728 -0.7436 -0.0715  1.5752
  233MOL   H11846982   3.405   3.124   7.768  0.7348  0.3036 -0.1206
  233MOL   H11946983   3.231   3.178   7.607  0.4036 -0.2408 -0.7162
  233MOL   H12046984   3.258   3.320   7.707 -0.6294 -2.0066  0.8583
  233MOL   H12146985   3.372   3.435   7.547 -1.3527  1.5618  0.4165
  233MOL   C12246986   3.272   3.331   7.404 -0.4242 -0.1577 -0.6056
  233MOL   O12346987   3.236   3.221   7.366  0.6190  0.2685  0.4909
  233MOL   C12446988   3.260   3.461   7.311  0.1035  0.3330 -0.1436
  233MOL   C12546989   3.296   3.428   7.164 -0.6287 -0.1095 -0.7495
  233MOL   N12646990   3.303   3.543   7.073 -0.8333  0.2002 -0.2707
  233MOL   H12746991   3.329   3.535   7.352 -0.0388  1.2577 -1.5365
  233MOL   H12846992   3.161   3.504   7.327  0.9468  2.5117 -0.6050
  233MOL   H12946993   3.390   3.372   7.162 -1.6050 -1.8440 -0.1694
  233MOL   H13046994   3.219   3.356   7.135 -0.7771  0.5651 -2.0316
  233MOL   H13146995   3.372   3.616   7.082  0.4944 -1.0023 -0.4220
  233MOL   C13246996   3.258   3.542   6.948 -0.5056 -0.0520 -0.9220
  233MOL   O13346997   3.198   3.442   6.907 -0.3706  0.1146 -1.3079
  233MOL   C13446998   3.273   3.664   6.858  0.5935 -0.5684 -0.5545
  233MOL   C13546999   3.198   3.661   6.720 -0.9653 -0.4451  0.9777
  233MOL   N13647000   3.221   3.777   6.635  0.0043  0.4000 -0.4296
  233MOL   H13747001   3.379   3.660   6.831  0.5114  0.5753 -1.0714
  233MOL   H13847002   3.264   3.760   6.908  0.3772 -0.3277 -1.0529
  233MOL   H13947003   3.223   3.565   6.675 -0.2968 -0.1356  0.6909
  233MOL   H14047004   3.093   3.642   6.742 -1.2145 -0.0301  0.1721
  233MOL   H14147005   3.154   3.853   6.629 -1.8730 -1.0485  1.4971
  233MOL   C14247006   3.327   3.800   6.558  0.1652  0.5741  0.6254
  233MOL   O14347007   3.416   3.718   6.546  0.3577 -0.2360 -0.2214
  233MOL   C14447008   3.337   3.932   6.484 -0.2000 -0.1449  0.1735
  233MOL   C14547009   3.469   3.952   6.407 -0.7406  0.2554 -0.0291
  233MOL   N14647010   3.463   4.069   6.322  0.0804  0.3593 -0.2693
  233MOL   H14747011   3.324   4.015   6.554 -0.2894  0.2033 -0.2504
  233MOL   H14847012   3.253   3.929   6.415 -0.3839  0.8015  0.3406
  233MOL   H14947013   3.552   3.948   6.477 -0.3383  0.2645 -0.4960
  233MOL   H15047014   3.491   3.867   6.342  1.1280  0.3207  0.5087
  233MOL   H15147015   3.405   4.061   6.239 -0.0912 -1.1993 -0.0124
  233MOL   C15247016   3.529   4.187   6.340  0.6331  0.5726 -0.4276
  233MOL   O15347017   3.601   4.210   6.443 -0.3625 -0.0753 -0.4860
  233MOL   C15447018   3.506   4.298   6.231  0.1560  0.2974 -0.2312
  233MOL   C15547019   3.638   4.356   6.167  0.3384  0.0255 -0.3085
  233MOL   N15647020   3.713   4.256   6.092  0.1867 -0.4818  0.2532
  233MOL   H15747021   3.447   4.380   6.273 -0.4866  0.4821 -1.4642
  233MOL   H15847022   3.434   4.262   6.158 -0.0105 -0.7380  0.4295
  233MOL   H15947023   3.609   4.436   6.100 -2.0991  0.9786  1.8099
  233MOL   H16047024   3.707   4.395   6.240  2.6598 -1.6247 -1.5561
  233MOL   H16147025   3.791   4.213   6.141 -0.3217 -1.0696  0.5616
  233MOL   C16247026   3.682   4.216   5.964 -0.0835  0.8166 -0.5375
  233MOL   O16347027   3.590   4.263   5.899 -0.7604  0.1432 -0.5137
  233MOL   C16447028   3.762   4.113   5.894  0.3090  0.4992 -0.0058
  233MOL   C16547029   3.848   4.158   5.774  0.7179  0.2470  0.4098
  233MOL   N16647030   3.859   4.052   5.671 -0.4080 -0.3800  0.2459
  233MOL   H16747031   3.708   4.021   5.872  1.2308 -0.1863  0.5716
  233MOL   H16847032   3.830   4.073   5.969 -1.1766 -0.2568  0.9650
  233MOL   H16947033   3.808   4.252   5.738  0.5845  0.1398  0.2772
  233MOL   H17047034   3.946   4.196   5.803  0.7068  0.1514  0.5743
  233MOL   H17147035   3.831   3.960   5.702  1.9453 -0.6419  1.7496
  233MOL   C17247036   3.925   4.070   5.547  0.9198  0.3588 -0.5165
  233MOL   O17347037   3.966   4.178   5.504 -0.3899  0.3039 -0.2688
  233MOL   C17447038   3.949   3.942   5.463 -0.2023 -0.1481  0.0283
  233MOL   C17547039   4.108   3.929   5.432 -0.8690  0.2830 -1.0174
  233MOL   N17647040   4.179   3.855   5.536 -0.3660  0.0132  0.3870
  233MOL   H17747041   3.902   3.968   5.369  0.6148  0.2039 -0.2936
  233MOL   H17847042   3.910   3.845   5.491  1.3089 -0.7837  0.0148
  233MOL   H17947043   4.130   3.887   5.334  0.8546 -1.7943  0.1986
  233MOL   H18047044   4.145   4.031   5.425 -1.7655  0.7468  0.6230
  233MOL   H18147045   4.118   3.796   5.591 -0.5274 -1.4999 -1.3663
  233MOL   C18247046   4.295   3.896   5.589  0.4944  0.7862 -0.2446
  233MOL   O18347047   4.376   3.967   5.534 -0.0347  0.0586  0.0714
  233MOL   C18447048   4.321   3.836   5.731  0.2047 -0.1084  0.3349
  233MOL   C18547049   4.459   3.875   5.791 -0.5309  0.3027  0.6162
  233MOL   N18647050   4.468   3.824   5.930  0.4798  0.5306  0.2126
  233MOL   H18747051   4.318   3.727   5.726  2.5939 -0.2169  0.6394
  233MOL   H18847052   4.244   3.869   5.800  0.4867 -0.1634  0.6750
  233MOL   H18947053   4.540   3.835   5.731 -1.2905  0.1442 -0.3152
  233MOL   H19047054   4.473   3.983   5.794  0.6178  0.1451  1.1420
  233MOL   H19147055   4.488   3.725   5.934 -1.0413  0.1626 -1.0002
  233MOL   C19247056   4.473   3.893   6.043 -0.2402  0.3066  0.1023
  233MOL   O19347057   4.467   4.019   6.038  0.3662 -0.8809 -0.3597
  233MOL   C19447058   4.495   3.814   6.179  0.1397  0.7180  0.0073
  233MOL   C19547059   4.476   3.898   6.305  0.7903  0.0589  0.0484
  233MOL   N19647060   4.577   4.000   6.320 -0.0689  0.2852  0.0004
  233MOL   H19747061   4.413   3.742   6.177 -0.6506  1.6344 -1.2507
  233MOL   H19847062   4.584   3.751   6.175 -0.4929 -0.2522  0.9190
  233MOL   H19947063   4.374   3.936   6.299  0.2884 -0.9492  1.9877
  233MOL   H20047064   4.498   3.835   6.391  0.2451 -0.0986  0.0688
  233MOL   H20147065   4.557   4.060   6.399 -2.7021  0.4377 -0.7161
  233MOL   H20247066   4.558   4.051   6.235  2.5934  2.0364  0.4032
  234MOL     C147067   2.684   0.940   1.084 -0.4978  0.3097 -0.5651
  234MOL     O247068   2.776   0.918   1.005  0.6343  0.1223  0.8372
  234MOL     C347069   2.537   0.905   1.064 -0.3980  0.0875  0.4910
  234MOL     C447070   2.485   0.938   0.921 -0.9998  0.8279  0.4854
  234MOL     N547071   2.341   0.937   0.917  0.0105  0.3492 -0.2348
  234MOL     H647072   2.478   0.952   1.142  0.9804 -4.1329  4.2458
  234MOL     H747073   2.521   0.799   1.085  0.4466 -0.1384  0.0225
  234MOL     H847074   2.512   0.853   0.858 -0.1322 -0.1238  2.1134
  234MOL     H947075   2.543   1.019   0.877 -0.8669 -0.5524 -1.9381
  234MOL    H1047076   2.295   0.855   0.881 -2.0075  1.8212 -1.0849
  234MOL    H1147077   2.703   1.004   1.170  1.1753 -0.3155 -0.4517
  234MOL    C1247078   2.263   1.036   0.948  0.0675 -0.6840  0.0042
  234MOL    O1347079   2.308   1.151   0.969  0.4340 -0.6567 -0.3297
  234MOL    C1447080   2.118   0.999   0.968  0.9757  0.1641  0.2109
  234MOL    C1547081   2.017   1.115   1.000 -0.3276 -0.0394 -0.7537
  234MOL    N1647082   1.995   1.193   0.884  0.5849 -0.9728  0.0368
  234MOL    H1747083   2.095   0.927   1.047 -0.8828  1.1014  0.5515
  234MOL    H1847084   2.081   0.946   0.880 -1.3554 -0.0217  1.2532
  234MOL    H1947085   1.937   1.050   1.033  0.0878  0.5295  1.4490
  234MOL    H2047086   2.044   1.179   1.084 -1.2337  1.9733 -1.9665
  234MOL    H2147087   2.043   1.167   0.798  0.8879  1.7237 -0.6586
  234MOL    C2247088   1.905   1.291   0.889 -0.4792  0.4591  0.6349
  234MOL    O2347089   1.854   1.331   0.997 -0.1819  0.2129  0.1588
  234MOL    C2447090   1.894   1.375   0.760  0.0493 -0.1574  0.0120
  234MOL    C2547091   1.767   1.348   0.674 -0.0976  1.1344 -0.0984
  234MOL    N2647092   1.756   1.461   0.590 -0.0176 -0.6502 -0.2027
  234MOL    H2747093   1.987   1.373   0.702 -0.6123 -2.8606 -1.0584
  234MOL    H2847094   1.890   1.476   0.800 -1.8763  0.0113 -0.5750
  234MOL    H2947095   1.764   1.249   0.627 -0.4010  0.5069  1.2188
  234MOL    H3047096   1.675   1.336   0.731  0.4221  0.1781  0.5597
  234MOL    H3147097   1.836   1.509   0.552 -0.8887  0.1021 -1.1347
  234MOL    C3247098   1.642   1.509   0.540 -0.3931 -0.0584 -0.2177
  234MOL    O3347099   1.535   1.457   0.569  0.1621 -0.1455 -0.1732
  234MOL    C3447100   1.650   1.624   0.442 -0.4521 -0.5587  0.1907
  234MOL    C3547101   1.606   1.763   0.499  0.0883 -0.2792  0.4111
  234MOL    N3647102   1.679   1.809   0.618  0.4859  0.4117  0.8470
  234MOL    H3747103   1.582   1.595   0.362  0.6380 -0.0005 -0.9572
  234MOL    H3847104   1.753   1.629   0.405 -0.7243  0.9898 -0.3776
  234MOL    H3947105   1.621   1.842   0.425 -2.6567 -0.3897 -0.3183
  234MOL    H4047106   1.501   1.752   0.525 -0.4377  2.8133 -0.1814
  234MOL    H4147107   1.615   1.832   0.692  0.1871  0.8897  0.4388
  234MOL    C4247108   1.810   1.828   0.623 -0.0453  0.1893 -0.2693
  234MOL    O4347109   1.880   1.821   0.519  0.7249  0.5294  0.0683
  234MOL    C4447110   1.873   1.882   0.761  0.1891  0.4127  0.7323
  234MOL    C4547111   2.024   1.872   0.772  0.0861  0.0029 -0.5436
  234MOL    N4647112   2.082   1.736   0.785  0.5569  0.4124  0.5678
  234MOL    H4747113   1.843   1.983   0.788 -1.2078  0.1550  0.2316
  234MOL    H4847114   1.839   1.813   0.838 -1.6206  0.5539  0.0888
  234MOL    H4947115   2.066   1.918   0.683  0.8033  1.0088  0.2964
  234MOL    H5047116   2.053   1.936   0.855 -0.9903  1.2868 -1.1446
  234MOL    H5147117   2.081   1.673   0.706 -0.1704  1.5091 -0.3152
  234MOL    C5247118   2.129   1.700   0.907 -0.5551  0.6797  0.2067
  234MOL    O5347119   2.113   1.766   1.008  0.1080 -0.7004 -0.9176
  234MOL    C5447120   2.184   1.551   0.907 -0.3701  0.0139  0.0717
  234MOL    C5547121   2.181   1.481   1.041 -0.1926  0.0554 -0.4056
  234MOL    N5647122   2.064   1.500   1.126 -0.6044  0.3021 -0.6298
  234MOL    H5747123   2.126   1.498   0.833 -1.9461  0.7737  0.7488
  234MOL    H5847124   2.282   1.564   0.860 -1.4690 -0.0906 -2.2630
  234MOL    H5947125   2.279   1.489   1.089 -0.4006 -2.6036  0.5377
  234MOL    H6047126   2.179   1.374   1.020 -1.7564 -0.7829  3.5747
  234MOL    H6147127   1.979   1.542   1.091 -0.9746 -1.0234 -1.3663
  234MOL    C6247128   2.047   1.469   1.258 -0.6376  0.0617  1.1400
  234MOL    O6347129   2.131   1.414   1.328 -0.1255  0.2285  0.4139
  234MOL    C6447130   1.908   1.497   1.319  0.0218  0.3174 -0.0318
  234MOL    C6547131   1.905   1.601   1.433  0.3588  0.9246  0.1480
  234MOL    N6647132   1.781   1.665   1.469 -0.4540 -0.0608  0.6444
  234MOL    H6747133   1.854   1.544   1.236  1.0322 -1.0038 -1.4773
  234MOL    H6847134   1.858   1.406   1.350  3.0766 -2.0653 -1.7911
  234MOL    H6947135   1.935   1.556   1.528  5.0691  1.0390 -1.1421
  234MOL    H7047136   1.968   1.680   1.392  3.9388 -0.6069  2.4281
  234MOL    H7147137   1.774   1.754   1.421  0.3099 -0.7268 -0.7468
  234MOL    C7247138   1.671   1.612   1.523 -0.0180 -0.1212 -0.6544
  234MOL    O7347139   1.662   1.508   1.591  0.0375  0.5740 -0.8752
  234MOL    C7447140   1.538   1.683   1.489 -0.8056 -0.0699  0.3596
  234MOL    C7547141   1.415   1.591   1.478 -0.2350 -0.3450 -0.3622
  234MOL    N7647142   1.288   1.669   1.468  0.2522 -0.2261 -0.2345
  234MOL    H7747143   1.514   1.758   1.564  0.0722  0.8790 -0.2966
  234MOL    H7847144   1.548   1.739   1.396  1.1032  0.4440  0.8391
  234MOL    H7947145   1.429   1.533   1.387  0.2212  0.7010 -0.9651
  234MOL    H8047146   1.410   1.517   1.558  1.3780 -1.5776 -1.3672
  234MOL    H8147147   1.219   1.654   1.540  0.9956  1.5233  0.8765
  234MOL    C8247148   1.235   1.728   1.360 -0.2753  0.5648 -0.4726
  234MOL    O8347149   1.295   1.738   1.251  0.1972 -0.2645 -0.2818
  234MOL    C8447150   1.090   1.778   1.379  0.5993 -0.1927  0.5309
  234MOL    C8547151   1.052   1.912   1.325  0.2727  0.6108  0.2682
  234MOL    N8647152   1.137   2.019   1.386 -0.3468  0.0507 -0.1642
  234MOL    H8747153   1.025   1.702   1.335  1.9109 -1.4237  0.6540
  234MOL    H8847154   1.077   1.785   1.487 -0.1559 -2.4689  0.6195
  234MOL    H8947155   1.074   1.912   1.219 -0.5712  0.7761  0.0870
  234MOL    H9047156   0.945   1.931   1.314  0.3478  0.1172 -1.3376
  234MOL    H9147157   1.216   1.987   1.440 -0.7581  1.2369  1.1579
  234MOL    C9247158   1.106   2.147   1.383 -0.1724 -0.0125  0.3174
  234MOL    O9347159   1.006   2.197   1.339  0.1745 -0.4654  0.2842
  234MOL    C9447160   1.219   2.241   1.433 -0.3416 -0.3005  0.2239
  234MOL    C9547161   1.191   2.387   1.393  0.9193 -1.1514  0.2829
  234MOL    N9647162   1.259   2.475   1.488 -0.2544  0.0685  0.4927
  234MOL    H9747163   1.217   2.230   1.542 -0.9851 -2.3130  0.0162
  234MOL    H9847164   1.313   2.209   1.388  0.5390  2.9974 -0.4409
  234MOL    H9947165   1.236   2.408   1.296  2.3135 -1.5366  0.8290
  234MOL   H10047166   1.084   2.406   1.381  1.0276 -0.9927 -0.4391
  234MOL   H10147167   1.354   2.506   1.473 -0.0489 -0.4001  0.8234
  234MOL   C10247168   1.198   2.553   1.585 -0.0783  0.6658  0.0658
  234MOL   O10347169   1.080   2.528   1.620  0.0492  0.4318 -0.1215
  234MOL   C10447170   1.291   2.652   1.657  0.5491 -0.2399 -0.0256
  234MOL   C10547171   1.232   2.703   1.791 -0.8938  0.6277 -0.2402
  234MOL   N10647172   1.311   2.796   1.871  0.0451 -0.1833 -0.4646
  234MOL   H10747173   1.307   2.733   1.586 -0.5094 -0.9810 -1.1341
  234MOL   H10847174   1.384   2.597   1.668  1.4719  0.8375 -2.2289
  234MOL   H10947175   1.130   2.741   1.784 -1.1183  0.0785  0.0037
  234MOL   H11047176   1.233   2.615   1.855  0.3895 -0.5437 -1.8099
  234MOL   H11147177   1.359   2.756   1.950 -1.9590  1.5763  1.7118
  234MOL   C11247178   1.357   2.912   1.829 -0.6631 -0.2325  0.2166
  234MOL   O11347179   1.342   2.960   1.715 -0.4245 -0.4541  0.0630
  234MOL   C11447180   1.448   2.999   1.925  0.4926 -0.1141 -0.1835
  234MOL   C11547181   1.357   3.065   2.026  0.2003  0.4467  0.8374
  234MOL   N11647182   1.342   2.987   2.148 -0.1555  0.4268 -0.1061
  234MOL   H11747183   1.499   3.082   1.878 -2.5373  1.2658 -1.1769
  234MOL   H11847184   1.522   2.936   1.974  0.5224  0.1620  0.1284
  234MOL   H11947185   1.390   3.167   2.044  0.6788  0.3617  0.4606
  234MOL   H12047186   1.256   3.084   1.989 -0.2737 -0.6526  1.5188
  234MOL   H12147187   1.348   2.887   2.138  0.0527  0.5135 -0.8786
  234MOL   C12247188   1.335   3.031   2.270 -0.2719 -0.2222  0.4165
  234MOL   O12347189   1.345   3.150   2.297 -0.6759 -0.3677 -0.1713
  234MOL   C12447190   1.342   2.927   2.380  0.3219  0.3338  0.6566
  234MOL   C12547191   1.478   2.855   2.374 -0.0081  0.7731 -0.0535
  234MOL   N12647192   1.479   2.707   2.365 -0.0254  0.1980  0.1820
  234MOL   H12747193   1.271   2.846   2.363 -1.2543  1.5331  1.2728
  234MOL   H12847194   1.311   2.965   2.477 -0.0707  0.7699  0.3659
  234MOL   H12947195   1.529   2.886   2.282 -0.7778  2.1023 -0.0354
  234MOL   H13047196   1.547   2.885   2.453 -0.0418 -1.0801  0.6945
  234MOL   H13147197   1.519   2.657   2.443 -1.1810 -2.9015 -1.1261
  234MOL   C13247198   1.460   2.639   2.246 -0.1081  0.7199  0.1977
  234MOL   O13347199   1.404   2.699   2.153  0.0041 -0.9864  0.2729
  234MOL   C13447200   1.500   2.490   2.236  0.8546 -0.3177 -0.0115
  234MOL   C13547201   1.417   2.406   2.138 -0.2957  0.3695 -0.3061
  234MOL   N13647202   1.491   2.342   2.030 -0.3000  0.0657  0.0791
  234MOL   H13747203   1.494   2.450   2.338 -2.0577 -0.7344 -0.2942
  234MOL   H13847204   1.605   2.485   2.208  0.6736 -1.8461 -0.4678
  234MOL   H13947205   1.374   2.325   2.197 -0.1524  1.3085  1.1229
  234MOL   H14047206   1.325   2.457   2.109  0.4947  2.4102  0.6489
  234MOL   H14147207   1.537   2.254   2.048  0.6591  0.0893 -2.0755
  234MOL   C14247208   1.499   2.393   1.906 -0.2579 -0.1997  0.4291
  234MOL   O14347209   1.454   2.500   1.868 -0.1035  0.2135  0.2682
  234MOL   C14447210   1.552   2.301   1.795 -0.3173  0.2818  0.6143
  234MOL   C14547211   1.428   2.256   1.721  0.4981 -0.4226 -0.2819
  234MOL   N14647212   1.389   2.124   1.763  0.5137  0.8122  0.3045
  234MOL   H14747213   1.603   2.215   1.839  0.8569  0.6286 -0.0356
  234MOL   H14847214   1.628   2.349   1.734  0.9786 -1.4959  0.7805
  234MOL   H14947215   1.357   2.338   1.732  1.2044  0.0576  0.8282
  234MOL   H15047216   1.444   2.265   1.614 -0.8751  0.4473 -0.4185
  234MOL   H15147217   1.403   2.110   1.862 -2.2656 -1.3510  0.4418
  234MOL   C15247218   1.369   2.009   1.695  0.9901 -0.2611 -0.3029
  234MOL   O15347219   1.384   2.001   1.572  0.3250 -0.1820  0.3491
  234MOL   C15447220   1.328   1.893   1.786  0.7403 -0.0394 -0.5201
  234MOL   C15547221   1.445   1.809   1.844 -0.8136  0.5065  0.1868
  234MOL   N15647222   1.449   1.808   1.991 -0.3802 -0.5138  0.0591
  234MOL   H15747223   1.262   1.825   1.733 -0.3865 -0.5161  1.4794
  234MOL   H15847224   1.258   1.914   1.867  0.2627 -2.6559 -0.2391
  234MOL   H15947225   1.424   1.707   1.813 -0.3477  0.7368 -0.9418
  234MOL   H16047226   1.543   1.846   1.812 -0.8109 -0.8903 -1.5062
  234MOL   H16147227   1.490   1.726   2.034  1.7139 -0.2563 -1.3787
  234MOL   C16247228   1.463   1.915   2.072  0.3327 -0.0022  0.8559
  234MOL   O16347229   1.463   2.028   2.020  0.2981  0.2148 -0.2964
  234MOL   C16447230   1.498   1.898   2.221 -0.7748  0.2084 -0.3742
  234MOL   C16547231   1.569   2.014   2.286 -0.2226 -0.8226  0.2458
  234MOL   N16647232   1.705   2.025   2.234  0.1705  0.0429 -0.2012
  234MOL   H16747233   1.565   1.814   2.237  0.1369  1.4482  2.6636
  234MOL   H16847234   1.405   1.872   2.272 -0.9100  1.7915  0.2287
  234MOL   H16947235   1.506   2.100   2.264 -0.7003 -1.9864 -3.3454
  234MOL   H17047236   1.573   2.019   2.395  1.0703  0.8021  0.1352
  234MOL   H17147237   1.755   1.938   2.223 -2.4239 -1.1575 -3.1134
  234MOL   C17247238   1.767   2.142   2.188 -0.1177 -0.0522  0.1894
  234MOL   O17347239   1.699   2.242   2.186 -0.6447  0.0044 -0.0121
  234MOL   C17447240   1.910   2.144   2.132 -0.0449  0.5500 -0.2593
  234MOL   C17547241   1.970   2.284   2.111  0.2552  0.4697 -0.7444
  234MOL   N17647242   1.916   2.352   2.000  0.0532  0.9448  0.2249
  234MOL   H17747243   1.901   2.093   2.036  4.9592 -2.0021  0.5002
  234MOL   H17847244   1.965   2.088   2.208 -0.3459  0.5347 -0.0512
  234MOL   H17947245   1.952   2.346   2.199  1.0996  0.3108 -0.4589
  234MOL   H18047246   2.078   2.277   2.100  0.6841  3.1298  1.2969
  234MOL   H18147247   1.872   2.297   1.927  0.0525 -0.3164  1.1611
  234MOL   C18247248   1.925   2.483   1.989  0.1027 -0.4186  0.4268
  234MOL   O18347249   1.981   2.546   2.074  0.0292 -0.4616 -1.0016
  234MOL   C18447250   1.864   2.555   1.862 -0.1368  0.1028  0.5945
  234MOL   C18547251   1.756   2.656   1.905  0.3082 -0.5222  0.3429
  234MOL   N18647252   1.691   2.712   1.788 -0.2592  0.4004  0.4047
  234MOL   H18747253   1.832   2.476   1.795  1.4566 -2.1326  2.3997
  234MOL   H18847254   1.951   2.594   1.810 -0.2382  1.8366  1.6769
  234MOL   H18947255   1.681   2.619   1.975  1.2810 -0.1147  1.6352
  234MOL   H19047256   1.800   2.733   1.969  1.9618 -0.2294 -1.0930
  234MOL   H19147257   1.590   2.712   1.792 -0.2877 -2.2499  0.4251
  234MOL   C19247258   1.751   2.804   1.709  1.1757  0.0005 -0.6314
  234MOL   O19347259   1.869   2.814   1.704 -0.8383 -0.2384  0.6137
  234MOL   C19447260   1.656   2.889   1.621  0.0563 -0.1947  0.0302
  234MOL   C19547261   1.710   2.946   1.495  0.4018  0.5802  0.1976
  234MOL   N19647262   1.741   2.858   1.377  0.0787  0.5164 -0.6289
  234MOL   H19747263   1.566   2.838   1.588  0.3629 -0.6156 -0.1649
  234MOL   H19847264   1.620   2.975   1.678  0.5003 -0.0079  0.0354
  234MOL   H19947265   1.640   3.023   1.462 -0.1555  0.8490  1.9811
  234MOL   H20047266   1.812   2.980   1.515  0.2442  0.7742  0.6584
  234MOL   H20147267   1.658   2.831   1.326 -0.9914  1.6914  0.4297
  234MOL   H20247268   1.795   2.912   1.311  1.9321 -0.1969  0.2687
  235MOL     C147269   5.230   0.128   2.360  0.1609 -0.3065  0.4998
  235MOL     O247270   5.165   0.126   2.256  0.1154 -0.4680 -0.4238
  235MOL     C347271   5.320   0.245   2.391 -0.4240  0.3956 -0.1763
  235MOL     C447272   5.438   0.265   2.300  0.4174 -0.4953 -0.3161
  235MOL     N547273   5.401   0.303   2.165  0.5412  0.2577 -0.3985
  235MOL     H647274   5.348   0.228   2.495  1.4264 -0.9437 -0.8833
  235MOL     H747275   5.243   0.322   2.393 -1.5757 -0.7472  0.3974
  235MOL     H847276   5.510   0.185   2.317 -0.1076 -0.6185  1.3837
  235MOL     H947277   5.482   0.356   2.341  1.5227 -1.0307 -0.2787
  235MOL    H1047278   5.301   0.301   2.147  0.2875  0.9094  0.8764
  235MOL    H1147279   5.225   0.060   2.444  3.2412  0.2982  1.2322
  235MOL    C1247280   5.481   0.322   2.066  0.1622  0.1959  0.0099
  235MOL    O1347281   5.599   0.328   2.070 -0.1058 -0.3757 -0.5336
  235MOL    C1447282   5.415   0.344   1.932 -0.0106 -0.5356 -0.8106
  235MOL    C1547283   5.462   0.473   1.862 -0.3071  0.1603  0.4791
  235MOL    N1647284   5.379   0.579   1.920 -0.3516 -0.3811 -0.3209
  235MOL    H1747285   5.307   0.339   1.943  0.1506  1.0212  2.1369
  235MOL    H1847286   5.448   0.263   1.867  1.2403  0.3118 -1.2522
  235MOL    H1947287   5.570   0.489   1.868 -0.2695  0.1741 -0.1837
  235MOL    H2047288   5.432   0.474   1.758 -0.5509  1.7793  0.5494
  235MOL    H2147289   5.317   0.563   1.998 -0.6986  1.2235 -0.2518
  235MOL    C2247290   5.383   0.701   1.869 -0.5626 -0.5335 -0.3039
  235MOL    O2347291   5.459   0.724   1.775  0.4107 -0.2692  0.0974
  235MOL    C2447292   5.295   0.819   1.926  0.3331 -0.3903 -0.1728
  235MOL    C2547293   5.357   0.961   1.890  0.9501  0.3459 -0.0085
  235MOL    N2647294   5.269   1.071   1.926 -0.0480  0.3325  0.0633
  235MOL    H2747295   5.298   0.810   2.034  0.5491  1.7228  0.0024
  235MOL    H2847296   5.191   0.804   1.898 -0.0079 -0.0800  0.9352
  235MOL    H2947297   5.444   0.967   1.956 -2.7866 -0.4455  5.2405
  235MOL    H3047298   5.394   0.964   1.788  1.3600 -1.9568  0.0432
  235MOL    H3147299   5.179   1.044   1.963  0.0200  0.0237  0.0042
  235MOL    C3247300   5.302   1.198   1.920 -0.9007  0.3418  0.1004
  235MOL    O3347301   5.421   1.237   1.897  0.2877  0.6319  0.5897
  235MOL    C3447302   5.195   1.301   1.960 -0.1592  0.0879 -0.6158
  235MOL    C3547303   5.209   1.363   2.092  0.1445 -0.3003 -0.3136
  235MOL    N3647304   5.086   1.437   2.122  0.2739 -0.0853 -0.1619
  235MOL    H3747305   5.107   1.237   1.961  1.1136 -1.6972 -1.0662
  235MOL    H3847306   5.191   1.382   1.886 -0.0667  1.8007  1.2260
  235MOL    H3947307   5.241   1.292   2.168 -2.8570 -0.1300  1.1739
  235MOL    H4047308   5.294   1.432   2.096  0.7746 -1.0770 -0.1277
  235MOL    H4147309   5.065   1.534   2.100 -0.3793  0.0545  0.9928
  235MOL    C4247310   4.987   1.386   2.196 -0.2766  0.0924 -1.0633
  235MOL    O4347311   5.003   1.276   2.250  0.4847  0.4398  0.3760
  235MOL    C4447312   4.854   1.460   2.214 -0.4695 -0.5253  0.2427
  235MOL    C4547313   4.729   1.380   2.226 -0.3148 -0.6802  0.1664
  235MOL    N4647314   4.667   1.328   2.107  0.8638  0.2591 -0.0105
  235MOL    H4747315   4.856   1.521   2.305 -0.9505  1.5912 -1.1158
  235MOL    H4847316   4.825   1.537   2.142 -2.0458  0.7382  2.1549
  235MOL    H4947317   4.747   1.300   2.299 -0.5653 -0.6191  0.2955
  235MOL    H5047318   4.660   1.454   2.267  1.2534  0.0832  1.5343
  235MOL    H5147319   4.674   1.384   2.023  0.7156  1.1838  0.5903
  235MOL    C5247320   4.574   1.231   2.112  0.1614 -0.0124 -0.2563
  235MOL    O5347321   4.559   1.161   2.209  0.4553  0.1971 -0.3590
  235MOL    C5447322   4.488   1.210   1.989 -0.0764  0.1492 -0.4326
  235MOL    C5547323   4.344   1.148   2.005 -0.4806  0.2299  0.4585
  235MOL    N5647324   4.331   1.002   2.008 -0.2392 -0.5030 -0.1272
  235MOL    H5747325   4.486   1.309   1.943 -0.4973  0.0931 -0.5375
  235MOL    H5847326   4.553   1.146   1.928 -0.5456 -0.5076 -0.2401
  235MOL    H5947327   4.284   1.165   1.915  0.3652 -0.7258 -0.2984
  235MOL    H6047328   4.277   1.176   2.087 -0.8191  1.0683 -0.0997
  235MOL    H6147329   4.266   0.971   2.079  2.1251 -1.0767  1.8628
  235MOL    C6247330   4.386   0.911   1.934 -0.6282  0.1209 -0.2994
  235MOL    O6347331   4.468   0.934   1.847  0.8607  0.2544  0.2465
  235MOL    C6447332   4.334   0.768   1.960  0.2566  0.3933 -0.0730
  235MOL    C6547333   4.286   0.706   1.826 -0.4957  0.6726  0.6283
  235MOL    N6647334   4.152   0.757   1.785 -0.0934  0.0940 -0.5053
  235MOL    H6747335   4.414   0.705   1.998 -0.9889 -1.2705 -0.1091
  235MOL    H6847336   4.256   0.764   2.037  1.3105  1.0100  1.0362
  235MOL    H6947337   4.364   0.714   1.751 -0.2785 -0.9009  0.6561
  235MOL    H7047338   4.269   0.600   1.849 -1.2535  0.7392  0.4047
  235MOL    H7147339   4.076   0.694   1.806  1.7471 -1.3107  2.2211
  235MOL    C7247340   4.128   0.864   1.709  0.3051  0.5806 -0.5756
  235MOL    O7347341   4.213   0.928   1.654  0.2984 -0.1291  0.8835
  235MOL    C7447342   3.984   0.906   1.713 -0.3248  0.8005  0.8239
  235MOL    C7547343   3.965   1.015   1.817 -0.1519  0.5345 -0.0957
  235MOL    N7647344   3.820   1.041   1.838  0.2352 -0.1747 -0.1510
  235MOL    H7747345   3.954   0.943   1.615  2.8812  2.4902  0.4093
  235MOL    H7847346   3.923   0.816   1.723  0.6754  0.1138  0.7658
  235MOL    H7947347   4.001   0.984   1.915 -0.0291  1.0530  0.0276
  235MOL    H8047348   4.025   1.103   1.794 -0.1482  1.1317  2.1177
  235MOL    H8147349   3.776   1.003   1.921  0.7911 -1.0752 -0.2562
  235MOL    C8247350   3.741   1.114   1.763 -0.6505  0.7310  0.3921
  235MOL    O8347351   3.776   1.166   1.657 -0.4927  0.3625  0.1367
  235MOL    C8447352   3.605   1.154   1.825 -0.0936  0.3442 -0.0389
  235MOL    C8547353   3.506   1.043   1.841 -0.2052 -0.1063 -0.5103
  235MOL    N8647354   3.461   1.019   1.978  0.1212  0.0592  0.3193
  235MOL    H8747355   3.631   1.177   1.928  0.1975 -0.5263  0.0923
  235MOL    H8847356   3.563   1.246   1.786 -0.2661 -0.6571 -2.3041
  235MOL    H8947357   3.423   1.056   1.770 -3.2851  1.3409  3.1908
  235MOL    H9047358   3.547   0.947   1.811  0.9094  0.1627  0.1321
  235MOL    H9147359   3.371   1.055   2.006  0.4130 -0.1485  1.5328
  235MOL    C9247360   3.530   0.940   2.061  0.2431 -0.2758 -0.4835
  235MOL    O9347361   3.643   0.891   2.041 -0.7126  0.6360  0.4984
  235MOL    C9447362   3.458   0.908   2.195 -0.1832  0.6503  0.1123
  235MOL    C9547363   3.550   0.942   2.311  0.3456 -0.0202  0.1304
  235MOL    N9647364   3.596   0.824   2.371  0.2850  0.1760 -0.4290
  235MOL    H9747365   3.371   0.971   2.214 -1.6984 -0.8472 -1.6708
  235MOL    H9847366   3.425   0.805   2.198  1.3125 -0.0238 -3.1765
  235MOL    H9947367   3.635   0.998   2.273 -0.0415  0.5564  0.1047
  235MOL   H10047368   3.487   1.008   2.371 -0.7309 -0.2002 -0.7895
  235MOL   H10147369   3.630   0.750   2.311  0.2134  0.7483 -1.1765
  235MOL   C10247370   3.591   0.788   2.498 -0.3033 -0.6855 -0.4123
  235MOL   O10347371   3.572   0.875   2.583 -0.0883  0.1159  0.2795
  235MOL   C10447372   3.625   0.637   2.532 -0.0369 -0.4078  0.3033
  235MOL   C10547373   3.555   0.582   2.664  0.2077 -0.0708 -0.0046
  235MOL   N10647374   3.430   0.521   2.644  0.2325 -0.2756  0.1553
  235MOL   H10747375   3.733   0.636   2.546  0.2534  0.6442 -1.6057
  235MOL   H10847376   3.616   0.560   2.455 -1.1521 -1.7610  1.7644
  235MOL   H10947377   3.616   0.513   2.722  0.3265  0.4421  0.4837
  235MOL   H11047378   3.550   0.663   2.736 -0.6431 -1.9619  2.1111
  235MOL   H11147379   3.347   0.579   2.652  1.5033  1.6326 -0.2753
  235MOL   C11247380   3.411   0.390   2.619  0.6809  0.6074 -0.0839
  235MOL   O11347381   3.496   0.310   2.589  0.1970  0.0649  0.3180
  235MOL   C11447382   3.263   0.347   2.623 -0.1317 -0.4833  0.0188
  235MOL   C11547383   3.221   0.272   2.497  1.2085 -0.3592  0.3402
  235MOL   N11647384   3.167   0.359   2.390 -0.1133 -0.0455 -0.0652
  235MOL   H11747385   3.198   0.430   2.651  0.9085  0.3694 -0.0919
  235MOL   H11847386   3.261   0.281   2.709 -0.9549 -0.6671 -0.1376
  235MOL   H11947387   3.307   0.213   2.466  1.2096 -0.4947  0.6011
  235MOL   H12047388   3.135   0.207   2.514  1.4344 -1.1405 -1.4070
  235MOL   H12147389   3.123   0.311   2.314  1.1827 -0.5592 -0.4994
  235MOL   C12247390   3.176   0.493   2.371 -0.4485 -0.2563  0.1814
  235MOL   O12347391   3.222   0.581   2.447  0.4799 -0.2977  0.1834
  235MOL   C12447392   3.124   0.531   2.231  0.3280  0.0460  0.6082
  235MOL   C12547393   3.114   0.682   2.193 -0.2775 -0.4924 -0.3115
  235MOL   N12647394   3.005   0.750   2.270  0.5196  0.5255 -0.0344
  235MOL   H12747395   3.039   0.469   2.200  1.2854 -1.8399  1.6778
  235MOL   H12847396   3.203   0.498   2.163  0.8579 -0.6197  1.5287
  235MOL   H12947397   3.212   0.728   2.207 -0.0139 -0.7144 -1.4131
  235MOL   H13047398   3.099   0.675   2.086 -0.5349  2.0049 -0.4696
  235MOL   H13147399   2.942   0.697   2.329  0.5344  0.8478  0.2798
  235MOL   C13247400   2.976   0.878   2.248 -0.3494 -0.4028  0.1773
  235MOL   O13347401   3.033   0.944   2.161  0.1978  0.7198  0.1454
  235MOL   C13447402   2.877   0.951   2.340 -0.0651 -0.3782  1.1377
  235MOL   C13547403   2.745   0.983   2.268 -0.0581  0.5406 -0.2496
  235MOL   N13647404   2.664   0.857   2.272 -0.6227 -0.0907 -0.0464
  235MOL   H13747405   2.932   1.039   2.376 -0.7217  0.8737 -0.8369
  235MOL   H13847406   2.864   0.900   2.435  2.6786 -2.4074  0.4927
  235MOL   H13947407   2.692   1.062   2.320 -0.3340  0.7413 -0.8307
  235MOL   H14047408   2.764   1.014   2.165  2.2362 -1.0779 -0.3532
  235MOL   H14147409   2.720   0.778   2.301  0.0837  0.3959 -0.0562
  235MOL   C14247410   2.540   0.849   2.224 -0.6931 -0.2089  0.0892
  235MOL   O14347411   2.491   0.939   2.160 -0.3847 -0.2009 -0.3704
  235MOL   C14447412   2.470   0.714   2.231  0.4125  0.4937  0.0264
  235MOL   C14547413   2.321   0.722   2.272 -0.3786 -0.6812  0.5268
  235MOL   N14647414   2.272   0.591   2.296  0.1552  0.4595  0.1045
  235MOL   H14747415   2.523   0.648   2.299  1.1422  0.4795 -0.5558
  235MOL   H14847416   2.477   0.679   2.128  0.0621  2.0865 -0.5454
  235MOL   H14947417   2.312   0.788   2.358  1.2985 -1.1650  1.1056
  235MOL   H15047418   2.270   0.772   2.190  0.0159  1.5639  1.6035
  235MOL   H15147419   2.209   0.561   2.223 -0.1799 -0.0892  0.6122
  235MOL   C15247420   2.295   0.500   2.392  0.5366  0.4127 -0.2231
  235MOL   O15347421   2.365   0.520   2.491  0.3044  0.3589  0.5480
  235MOL   C15447422   2.221   0.369   2.370  0.2836  0.5964  0.4154
  235MOL   C15547423   2.262   0.256   2.470  0.0830 -0.0366  0.4135
  235MOL   N15647424   2.170   0.142   2.471 -0.3261 -0.3442  0.0387
  235MOL   H15747425   2.237   0.326   2.271 -1.1500 -0.7210  0.7499
  235MOL   H15847426   2.117   0.396   2.383  0.4883 -0.0175  3.8206
  235MOL   H15947427   2.365   0.233   2.440 -0.3241 -0.1834 -0.9125
  235MOL   H16047428   2.271   0.296   2.570 -2.4295 -0.2470  0.7308
  235MOL   H16147429   2.087   0.144   2.413 -0.8238  2.6211  0.7875
  235MOL   C16247430   2.204   0.029   2.522 -0.2722  0.3652  0.1999
  235MOL   O16347431   2.318   0.003   2.565  0.0470 -0.3648  0.3454
  235MOL   C16447432   2.083   7.713   2.525  0.1620 -0.2755  0.0964
  235MOL   C16547433   2.087   7.613   2.410 -0.1871 -0.2982  0.3323
  235MOL   N16647434   2.211   7.526   2.424  0.0758  0.2672 -0.4755
  235MOL   H16747435   1.992   7.772   2.515  1.0337  0.8927 -0.9852
  235MOL   H16847436   2.076   7.658   2.619  0.2059  2.1206  1.5270
  235MOL   H16947437   1.995   7.559   2.390 -2.3503  3.7321 -1.3183
  235MOL   H17047438   2.102   7.665   2.315 -0.2881 -0.5588  0.1749
  235MOL   H17147439   2.294   7.553   2.375  0.3007  0.1770 -0.1484
  235MOL   C17247440   2.213   7.401   2.479  0.0373  0.0346  0.1451
  235MOL   O17347441   2.118   7.355   2.543 -0.4095 -0.5815  0.3230
  235MOL   C17447442   2.338   7.311   2.478  0.6047 -0.7282 -0.1256
  235MOL   C17547443   2.312   7.156   2.495 -0.1737 -0.1501  0.1849
  235MOL   N17647444   2.221   7.098   2.396 -0.4378 -0.3142 -0.2242
  235MOL   H17747445   2.401   7.350   2.558  0.9158  0.5063 -0.9642
  235MOL   H17847446   2.387   7.325   2.382  3.3491  0.9043  1.4397
  235MOL   H17947447   2.406   7.102   2.493  0.0959  0.3519 -1.3334
  235MOL   H18047448   2.260   7.139   2.589 -2.2296 -0.4400 -0.9630
  235MOL   H18147449   2.128   7.086   2.433 -1.2411  0.5401 -1.9241
  235MOL   C18247450   2.264   7.040   2.286 -0.3538 -0.6201  0.3614
  235MOL   O18347451   2.374   7.068   2.239  0.6282  0.6136  0.2095
  235MOL   C18447452   2.167   6.929   2.234  0.1724 -0.3947 -0.6196
  235MOL   C18547453   2.227   6.794   2.187 -0.1663  0.4126  0.5140
  235MOL   N18647454   2.287   6.710   2.294 -0.0553 -0.1891 -0.0855
  235MOL   H18747455   2.127   6.987   2.151  1.0875  0.1963 -0.6494
  235MOL   H18847456   2.084   6.917   2.304 -0.3313  0.6800 -1.0338
  235MOL   H18947457   2.154   6.736   2.130 -1.0292 -0.9206  2.9235
  235MOL   H19047458   2.316   6.822   2.131 -0.6274  1.1555  0.1380
  235MOL   H19147459   2.388   6.712   2.295 -0.0140 -0.9537  2.7343
  235MOL   C19247460   2.214   6.651   2.390  0.4873 -0.1158  0.3322
  235MOL   O19347461   2.093   6.641   2.371 -0.7635  0.4142  0.4074
  235MOL   C19447462   2.280   6.598   2.517  0.1650 -0.1744 -0.1838
  235MOL   C19547463   2.201   6.490   2.589  0.0493  0.1944  0.4519
  235MOL   N19647464   2.072   6.537   2.641 -0.0060 -0.4042 -0.4125
  235MOL   H19747465   2.372   6.548   2.487  0.8257  0.9295 -0.0300
  235MOL   H19847466   2.302   6.676   2.590  1.3197 -0.6141 -0.0498
  235MOL   H19947467   2.185   6.409   2.518 -2.4265  0.0205  1.1561
  235MOL   H20047468   2.267   6.452   2.667  0.5987  1.4295  0.6105
  235MOL   H20147469   2.093   6.589   2.724 -2.1412  1.5895 -1.0525
  235MOL   H20247470   2.027   6.591   2.568  0.5998 -0.4247 -0.8031
  236MOL     C147471   6.531   5.770   6.477  0.0604  0.3018 -0.1247
  236MOL     O247472   6.605   5.816   6.384  0.1418 -0.2603 -0.5026
  236MOL     C347473   6.500   5.616   6.489  0.6778  0.0187 -0.2721
  236MOL     C447474   6.522   5.540   6.359 -0.1595  0.3422 -0.9736
  236MOL     N547475   6.664   5.504   6.338  0.5034 -0.0873 -0.3156
  236MOL     H647476   6.397   5.597   6.518  0.3533  1.6069 -0.3544
  236MOL     H747477   6.568   5.569   6.561  0.9375 -1.7646 -1.6491
  236MOL     H847478   6.486   5.585   6.268  0.6887  0.1787 -1.4001
  236MOL     H947479   6.458   5.453   6.374 -1.8877  1.6547 -0.5531
  236MOL    H1047480   6.720   5.574   6.292 -1.4956  1.5519 -0.3495
  236MOL    H1147481   6.492   5.830   6.558 -0.0899  0.1771 -0.1056
  236MOL    C1247482   6.716   5.386   6.363 -0.4828  0.9849  0.2395
  236MOL    O1347483   6.649   5.297   6.418  0.1746  0.1114 -0.4294
  236MOL    C1447484   6.864   5.363   6.346 -0.3489  0.1589  0.1116
  236MOL    C1547485   6.905   5.229   6.272 -0.3050 -0.3293 -0.2959
  236MOL    N1647486   7.020   5.164   6.336  0.0199  0.4347 -0.0015
  236MOL    H1747487   6.912   5.379   6.443 -0.7977 -0.2402  0.4024
  236MOL    H1847488   6.918   5.437   6.287  2.2298 -0.6074  1.4203
  236MOL    H1947489   6.813   5.172   6.258 -0.8125  0.2697  0.5511
  236MOL    H2047490   6.948   5.240   6.172  1.2087  0.0305  0.3801
  236MOL    H2147491   6.998   5.087   6.397 -1.3780  1.5303  0.9286
  236MOL    C2247492   7.146   5.202   6.350 -0.2282  0.3196  0.4822
  236MOL    O2347493   7.192   5.300   6.295  0.3645  0.2046 -0.2948
  236MOL    C2447494   7.236   5.122   6.450  0.1860  0.3835  0.0677
  236MOL    C2547495   7.385   5.140   6.418  0.6787  0.0350  0.2469
  236MOL    N2647496   7.426   5.035   6.332 -0.3208  0.1179 -0.6631
  236MOL    H2747497   7.208   5.021   6.479  1.8604 -0.2326 -0.4401
  236MOL    H2847498   7.215   5.177   6.542  0.7956  1.1706 -0.2552
  236MOL    H2947499   7.408   5.235   6.371 -0.9271  0.4451  0.2377
  236MOL    H3047500   7.444   5.138   6.509  0.9504  1.1242  0.0948
  236MOL    H3147501   7.443   4.945   6.373 -1.5613 -0.1813 -0.8169
  236MOL    C3247502   7.461   5.039   6.204 -0.5550 -0.7090  0.3227
  236MOL    O3347503   7.467   5.138   6.131 -0.6210  0.6867  0.0654
  236MOL    C3447504   7.490   4.904   6.141 -0.2833  0.2607 -0.5579
  236MOL    C3547505   7.643   4.877   6.142  0.1421 -0.2352  0.0672
  236MOL    N3647506   7.686   4.769   6.232 -0.5749  0.5473 -0.0750
  236MOL    H3747507   7.467   4.900   6.035  0.2036  0.9701 -0.6904
  236MOL    H3847508   7.422   4.826   6.176 -3.4009  2.0258 -2.4285
  236MOL    H3947509   7.670   4.843   6.042 -1.6154 -0.6002 -0.3121
  236MOL    H4047510   7.695   4.965   6.178  0.0511 -0.5157  0.8791
  236MOL    H4147511   7.681   4.672   6.203  0.2007  0.5535 -0.2197
  236MOL    C4247512   7.689   4.786   6.365 -0.4413  0.5149  0.1809
  236MOL    O4347513   7.680   4.898   6.414  0.2350  0.3952  0.3464
  236MOL    C4447514   7.697   4.663   6.453  0.0715  0.3471  0.3325
  236MOL    C4547515   0.028   4.681   6.563  0.0855 -0.0722 -0.1852
  236MOL    N4647516   0.159   4.719   6.515 -0.6758  0.4520  0.1893
  236MOL    H4747517   7.594   4.644   6.483  0.1902  0.8805  1.0967
  236MOL    H4847518   7.728   4.587   6.381 -0.7589  2.8570 -2.8025
  236MOL    H4947519   0.000   4.769   6.621 -2.9027 -0.8801 -0.2913
  236MOL    H5047520   0.039   4.590   6.621  1.9515  1.1247  1.3752
  236MOL    H5147521   0.168   4.766   6.426  0.1151  2.7156  1.4175
  236MOL    C5247522   0.272   4.674   6.562  0.8706 -0.0066 -0.3351
  236MOL    O5347523   0.267   4.612   6.671 -0.3090 -0.3547  0.0080
  236MOL    C5447524   0.400   4.683   6.477 -0.2056 -0.2759 -0.0652
  236MOL    C5547525   0.528   4.720   6.552 -0.0976 -0.2058 -0.0972
  236MOL    N5647526   0.538   4.866   6.583 -0.1072  0.2051  0.4113
  236MOL    H5747527   0.417   4.582   6.440 -1.8561 -0.6587  0.1845
  236MOL    H5847528   0.394   4.732   6.380 -0.9868  0.1329  0.1808
  236MOL    H5947529   0.619   4.692   6.498 -1.5396  1.9268 -3.8845
  236MOL    H6047530   0.532   4.659   6.642  1.3468 -0.6521 -0.4445
  236MOL    H6147531   0.527   4.894   6.680 -0.6580  1.0114  0.1203
  236MOL    C6247532   0.569   4.960   6.490  0.5504 -0.3818  0.4363
  236MOL    O6347533   0.593   4.926   6.374  0.3142 -0.1894  0.0926
  236MOL    C6447534   0.595   5.108   6.530  0.1075 -0.4405  0.7004
  236MOL    C6547535   0.494   5.204   6.453  0.3689 -0.5902 -0.2152
  236MOL    N6647536   0.368   5.212   6.524 -0.1197  0.3767  0.2433
  236MOL    H6747537   0.591   5.127   6.638 -1.4982  2.8267  0.1248
  236MOL    H6847538   0.697   5.142   6.513 -0.9231  1.6459 -1.5795
  236MOL    H6947539   0.535   5.304   6.467  1.5554 -1.1306  0.2570
  236MOL    H7047540   0.499   5.182   6.347  0.6891 -0.0544 -0.3149
  236MOL    H7147541   0.374   5.252   6.617 -0.8839 -0.8491  0.8298
  236MOL    C7247542   0.251   5.148   6.503 -0.5867  0.8699 -0.3298
  236MOL    O7347543   0.241   5.060   6.419  0.6106 -0.1412 -1.0645
  236MOL    C7447544   0.137   5.169   6.603  0.4095 -0.8474  0.1554
  236MOL    C7547545   0.015   5.237   6.541  0.5535  0.1395 -0.0812
  236MOL    N7647546   7.677   5.228   6.627 -0.2084  0.1375  0.2824
  236MOL    H7747547   0.110   5.071   6.642  0.6754 -0.8704  0.2843
  236MOL    H7847548   0.175   5.231   6.685  0.6138 -1.0723  0.2332
  236MOL    H7947549   0.046   5.338   6.514 -1.2632  0.5123 -0.8021
  236MOL    H8047550   7.777   5.179   6.451  0.5827 -1.8201  1.1436
  236MOL    H8147551   7.662   5.139   6.672  0.2526  0.3938  0.9430
  236MOL    C8247552   7.619   5.330   6.682  0.0308  0.3176 -0.0593
  236MOL    O8347553   7.666   5.442   6.657 -0.0394 -0.2771 -0.0858
  236MOL    C8447554   7.516   5.301   6.792  0.2582 -0.4082 -0.5315
  236MOL    C8547555   7.425   5.420   6.835 -0.6283  0.3359  0.7787
  236MOL    N8647556   7.319   5.432   6.733 -0.1359 -0.1430 -0.1507
  236MOL    H8747557   7.456   5.220   6.751  0.6663 -0.4760 -0.9932
  236MOL    H8847558   7.573   5.250   6.870  1.9799  0.2575 -1.3220
  236MOL    H8947559   7.376   5.390   6.928 -1.5874 -0.5466  0.0032
  236MOL    H9047560   7.492   5.506   6.844 -1.0891  0.6772  0.9197
  236MOL    H9147561   7.262   5.351   6.714 -0.9521  0.6373 -1.0390
  236MOL    C9247562   7.284   5.549   6.668 -0.4111  0.5416 -0.4376
  236MOL    O9347563   7.355   5.647   6.684 -0.1697  0.2854 -0.0760
  236MOL    C9447564   7.153   5.535   6.582 -0.1373  0.4359  0.0130
  236MOL    C9547565   7.184   5.599   6.446 -0.3299 -0.7278  0.0826
  236MOL    N9647566   7.285   5.535   6.369 -0.0915 -0.1168  0.2385
  236MOL    H9747567   7.130   5.430   6.563  0.1287  0.2283  0.8509
  236MOL    H9847568   7.071   5.589   6.629  0.7465  1.2710  0.5956
  236MOL    H9947569   7.100   5.593   6.378 -2.2248 -2.8580  2.4952
  236MOL   H10047570   7.208   5.705   6.459  0.9988 -1.0226  0.0885
  236MOL   H10147571   7.282   5.438   6.343  4.0316  0.4485 -2.9654
  236MOL   C10247572   7.390   5.600   6.312 -0.7329  0.3193  0.4428
  236MOL   O10347573   7.412   5.723   6.320  0.1712 -0.6006 -0.4090
  236MOL   C10447574   7.470   5.518   6.220  0.2813  0.2102  0.8168
  236MOL   C10547575   7.576   5.441   6.299 -0.0719 -0.1297 -0.6821
  236MOL   N10647576   7.640   5.345   6.222 -0.4801  0.5121  0.4128
  236MOL   H10747577   7.525   5.575   6.145 -0.3401 -0.5222 -0.2033
  236MOL   H10847578   7.404   5.459   6.157 -2.6796  4.3446 -0.1978
  236MOL   H10947579   7.642   5.503   6.359 -0.7391  0.3873 -0.4772
  236MOL   H11047580   7.522   5.397   6.383 -0.4570 -0.0375 -0.8788
  236MOL   H11147581   7.589   5.260   6.202  2.1093 -0.6845 -1.3134
  236MOL   C11247582   7.764   5.361   6.166  0.6326  0.1087 -0.9968
  236MOL   O11347583   0.053   5.460   6.185  0.2526  0.1347  0.1964
  236MOL   C11447584   0.035   5.250   6.077 -0.6423  0.1388 -0.0118
  236MOL   C11547585   0.184   5.204   6.112  0.7646 -0.8483  0.0454
  236MOL   N11647586   0.193   5.062   6.152 -0.3372 -0.1051 -0.2916
  236MOL   H11747587   0.026   5.305   5.984 -1.7196  0.5673  0.3328
  236MOL   H11847588   7.740   5.171   6.073 -0.7089 -0.0051  2.7009
  236MOL   H11947589   0.247   5.208   6.024 -0.3455 -1.1619 -0.7732
  236MOL   H12047590   0.218   5.249   6.206  0.3718 -2.0603  0.7799
  236MOL   H12147591   0.197   5.043   6.251  0.0855 -0.8296 -0.4466
  236MOL   C12247592   0.209   4.954   6.077  0.0726  0.9761  0.3604
  236MOL   O12347593   0.193   4.955   5.957 -0.2122  0.0248  0.0978
  236MOL   C12447594   0.262   4.836   6.162  0.4942  0.5455  0.1419
  236MOL   C12547595   0.239   4.704   6.082 -0.4737 -0.1101  0.1187
  236MOL   N12647596   0.310   4.597   6.154 -0.4479 -0.5192  0.2046
  236MOL   H12747597   0.229   4.832   6.266  1.7252  0.3603  0.5452
  236MOL   H12847598   0.371   4.841   6.165  0.5776 -1.1185  0.6427
  236MOL   H12947599   0.131   4.693   6.081 -0.4169 -0.8517  0.9592
  236MOL   H13047600   0.274   4.703   5.979 -0.0041  0.8763  0.2676
  236MOL   H13147601   0.407   4.578   6.132  0.2740  1.5999  1.4867
  236MOL   C13247602   0.251   4.491   6.216 -0.6080  0.4280  0.0281
  236MOL   O13347603   0.132   4.485   6.234 -0.2699 -0.0845  0.5233
  236MOL   C13447604   0.334   4.365   6.250 -0.2841  0.3117 -0.0871
  236MOL   C13547605   0.291   4.232   6.183 -0.2861 -0.1663  0.0202
  236MOL   N13647606   0.203   4.161   6.265  0.0950 -0.1645 -0.1171
  236MOL   H13747607   0.337   4.362   6.359 -0.8711  0.3467 -0.0647
  236MOL   H13847608   0.442   4.375   6.242 -0.2796  0.4367  0.1249
  236MOL   H13947609   0.236   4.257   6.093  0.7367 -0.9423 -0.8318
  236MOL   H14047610   0.379   4.172   6.158 -1.5339 -0.5464 -3.7333
  236MOL   H14147611   0.167   4.213   6.344  0.3970  1.5484 -1.0866
  236MOL   C14247612   0.202   4.027   6.272  0.4254  0.3418 -0.5144
  236MOL   O14347613   0.246   3.951   6.183 -0.4431  0.3447  0.0227
  236MOL   C14447614   0.137   3.967   6.399 -0.6250  0.5619 -0.2283
  236MOL   C14547615   0.242   3.918   6.508  0.5195 -0.3987  0.3170
  236MOL   N14647616   0.336   4.025   6.551  0.3958  0.6563  0.3785
  236MOL   H14747617   0.084   3.877   6.370  1.1847 -0.6903  0.3100
  236MOL   H14847618   0.061   4.033   6.440  0.4804  0.6336  1.7485
  236MOL   H14947619   0.185   3.879   6.592 -0.0954  0.3967  0.2706
  236MOL   H15047620   0.303   3.836   6.469 -0.1198  0.4585 -2.5778
  236MOL   H15147621   0.432   3.992   6.541  0.3220  0.6038 -0.1614
  236MOL   C15247622   0.307   4.139   6.603 -0.3921 -0.7708 -0.1209
  236MOL   O15347623   0.193   4.180   6.624  0.0686 -0.3318 -0.0935
  236MOL   C15447624   0.427   4.227   6.635 -0.1527 -0.7999 -0.1663
  236MOL   C15547625   0.419   4.295   6.778 -0.2144  0.3494 -0.2494
  236MOL   N15647626   0.478   4.219   6.891  0.1559  0.4475  0.3032
  236MOL   H15747627   0.428   4.304   6.559  0.3783  0.5982  1.2121
  236MOL   H15847628   0.522   4.172   6.637 -0.2996 -1.2118 -2.7772
  236MOL   H15947629   0.464   4.394   6.773  1.4060 -0.4351 -1.3951
  236MOL   H16047630   0.315   4.310   6.809  0.0020 -1.0512  1.1902
  236MOL   H16147631   0.579   4.220   6.895  0.1808  1.0289 -0.3173
  236MOL   C16247632   0.414   4.166   6.994 -0.1781  0.6164  0.3371
  236MOL   O16347633   0.290   4.165   7.004 -0.1764  0.1055 -0.3019
  236MOL   C16447634   0.493   4.088   7.100  0.4508  0.1770  0.4987
  236MOL   C16547635   0.489   3.936   7.072  0.4287 -0.0599  0.0032
  236MOL   N16647636   0.575   3.862   7.165 -0.3777 -0.5544  0.0230
  236MOL   H16747637   0.441   4.098   7.195 -2.1996 -0.2999 -0.8325
  236MOL   H16847638   0.595   4.126   7.104  0.2833  1.1458 -2.7770
  236MOL   H16947639   0.389   3.896   7.060  0.7422 -1.6856  2.4621
  236MOL   H17047640   0.537   3.918   6.976  0.6482 -0.4548  0.1856
  236MOL   H17147641   0.644   3.805   7.120 -0.0438  1.8851 -2.7695
  236MOL   C17247642   0.567   3.856   7.301  0.7868 -0.5609 -0.4120
  236MOL   O17347643   0.497   3.940   7.361 -0.0359 -0.8822 -1.2800
  236MOL   C17447644   0.648   3.740   7.377 -0.2282  0.1250 -1.1605
  236MOL   C17547645   0.639   3.754   7.534 -0.2285 -0.2998  0.1737
  236MOL   N17647646   0.757   3.819   7.589  0.0650 -0.2544 -0.2478
  236MOL   H17747647   0.745   3.712   7.337  0.9056  2.0414  0.1480
  236MOL   H17847648   0.576   3.660   7.359 -0.3380 -0.0989  0.2207
  236MOL   H17947649   0.556   3.810   7.578  1.0183  1.6225  0.1677
  236MOL   H18047650   0.630   3.655   7.577  3.6202 -1.1178 -0.7312
  236MOL   H18147651   0.827   3.844   7.521 -0.6048  0.4324 -0.6885
  236MOL   C18247652   0.803   3.818   7.714  0.6173 -0.2702  0.4810
  236MOL   O18347653   0.737   3.769   0.024 -0.3216  0.4512 -0.2731
  236MOL   C18447654   0.928   3.899   7.746  0.0998 -0.6806  0.0572
  236MOL   C18547655   0.999   3.866   0.097 -0.6991 -0.1553  0.0851
  236MOL   N18647656   0.958   3.958   0.209 -0.3023  0.8897 -0.3469
  236MOL   H18747657   0.891   4.002   7.744  1.0356 -0.3540 -0.9372
  236MOL   H18847658   1.006   3.876   7.674  0.6594 -0.2070  0.4990
  236MOL   H18947659   1.001   3.763   0.133 -1.4995  0.1318  0.9942
  236MOL   H19047660   1.105   3.885   0.080 -0.7497  1.1855  1.1320
  236MOL   H19147661   0.909   4.044   0.192  0.7542  1.2089 -1.8290
  236MOL   C19247662   0.989   3.933   0.336 -0.2322 -0.0419 -0.9305
  236MOL   O19347663   1.073   3.842   0.367  0.2089 -0.1162  0.4398
  236MOL   C19447664   0.916   4.003   0.452  0.0589 -0.5458 -0.2352
  236MOL   C19547665   0.989   4.130   0.511  0.9216 -0.5210  0.1016
  236MOL   N19647666   1.034   4.215   0.416  0.0422 -0.6348 -0.0286
  236MOL   H19747667   0.824   4.033   0.402 -0.7659 -2.1006  0.3204
  236MOL   H19847668   0.883   3.932   0.528 -2.2139 -0.8843 -1.4954
  236MOL   H19947669   0.925   4.192   0.573 -1.0229 -1.1208 -1.2753
  236MOL   H20047670   1.073   4.097   0.574  0.2887  0.5328  1.5163
  236MOL   H20147671   1.036   4.309   0.453  1.0250  0.2825 -2.2741
  236MOL   H20247672   0.974   4.216   0.334 -2.2767  1.4551  1.6351
  237MOL     C147673   0.248   1.236   4.975 -0.1588  0.0782  1.0251
  237MOL     O247674   0.206   1.217   5.086  0.0863  0.4271 -0.0262
  237MOL     C347675   0.232   1.369   4.909 -0.1443 -0.4214  0.7146
  237MOL     C447676   0.164   1.470   4.990 -0.1369 -0.4964  0.8310
  237MOL     N547677   0.117   1.573   4.895  0.4092 -0.2778  0.5128
  237MOL     H647678   0.181   1.357   4.813  0.4159 -0.6046  0.4369
  237MOL     H747679   0.328   1.415   4.887 -0.6125  0.7088  1.0265
  237MOL     H847680   0.232   1.513   5.063  2.4659 -0.5772 -1.4390
  237MOL     H947681   0.078   1.439   5.050 -0.6715 -1.9879 -0.6779
  237MOL    H1047682   0.152   1.574   4.800  0.7709  1.3382  0.6571
  237MOL    H1147683   0.301   1.159   4.919  0.2850  0.6019  0.7187
  237MOL    C1247684   0.028   1.670   4.928  0.9809  0.2745 -0.4678
  237MOL    O1347685   7.754   1.679   5.043 -0.0079 -0.4517 -0.2821
  237MOL    C1447686   0.002   1.767   4.818 -0.2208  0.0931 -0.7947
  237MOL    C1547687   7.743   1.906   4.870  0.2490 -0.4477  0.0665
  237MOL    N1647688   7.718   1.994   4.759 -0.1936 -0.1153  0.1785
  237MOL    H1747689   7.705   1.720   4.757  0.1991 -0.9286 -0.5594
  237MOL    H1847690   0.090   1.775   4.755  0.5103 -0.7524  0.0971
  237MOL    H1947691   7.642   1.901   4.911  0.0946 -1.2403 -0.3856
  237MOL    H2047692   0.031   1.952   4.940  1.7896  0.1599 -1.7807
  237MOL    H2147693   7.619   2.003   4.740 -0.5226 -0.4767  1.6553
  237MOL    C2247694   0.029   2.070   4.697  0.0030 -0.8126  0.0762
  237MOL    O2347695   0.150   2.062   4.717 -1.1289 -0.1817 -0.2013
  237MOL    C2447696   7.752   2.170   4.591 -0.0106  0.0555  0.1888
  237MOL    C2547697   7.726   2.302   4.662  0.1065  0.2140 -0.5203
  237MOL    N2647698   7.640   2.382   4.567 -0.8699  0.2774 -0.3857
  237MOL    H2747699   7.653   2.134   4.562  0.6504 -1.2708 -0.4285
  237MOL    H2847700   0.034   2.182   4.503 -0.8255 -0.5224 -0.4646
  237MOL    H2947701   7.663   2.296   4.751 -1.0540  0.8636 -1.2679
  237MOL    H3047702   0.039   2.353   4.686  0.0805 -0.1514  0.3884
  237MOL    H3147703   7.579   2.330   4.505  0.7028 -1.7973 -0.2764
  237MOL    C3247704   7.632   2.512   4.583 -0.2305 -0.1219 -0.2591
  237MOL    O3347705   7.728   2.572   4.645 -0.0672  0.7569  0.1461
  237MOL    C3447706   7.518   2.586   4.504  0.3981  1.0396 -0.2797
  237MOL    C3547707   7.547   2.739   4.482 -0.0858  0.1140  0.3537
  237MOL    N3647708   7.516   2.821   4.600 -0.4197 -0.3159 -0.6210
  237MOL    H3747709   7.430   2.566   4.566  0.3758  2.9066  0.3092
  237MOL    H3847710   7.495   2.529   4.414 -0.6540  2.3988 -0.8908
  237MOL    H3947711   7.654   2.743   4.458 -0.3303  1.6715 -0.5210
  237MOL    H4047712   7.491   2.778   4.398  0.2324 -1.8718 -0.8208
  237MOL    H4147713   7.596   2.844   4.658 -0.5385 -1.6082  0.0775
  237MOL    C4247714   7.422   2.908   4.601  0.1436  0.0205  0.3859
  237MOL    O4347715   7.312   2.886   4.557 -0.4160 -0.0600  0.0771
  237MOL    C4447716   7.455   3.032   4.689  0.5881  0.5229 -0.5626
  237MOL    C4547717   7.348   3.129   4.749  0.9236  0.3954 -0.5055
  237MOL    N4647718   7.246   3.071   4.831  0.0209  0.3012  0.1395
  237MOL    H4747719   7.504   2.987   4.776 -0.4174 -1.3816 -0.9505
  237MOL    H4847720   7.531   3.092   4.639  1.2094  0.4640  0.2992
  237MOL    H4947721   7.389   3.218   4.796 -2.6508  0.9046  1.8035
  237MOL    H5047722   7.299   3.183   4.669 -0.8076  0.9695  0.9138
  237MOL    H5147723   7.192   2.995   4.792 -0.8325  1.3898 -0.8839
  237MOL    C5247724   7.228   3.104   4.957 -0.3361  0.1884  0.0771
  237MOL    O5347725   7.293   3.193   5.010 -0.0327 -0.2157  0.0454
  237MOL    C5447726   7.123   3.028   5.034  1.0689  0.6397  0.1136
  237MOL    C5547727   7.177   2.941   5.150  0.4708 -0.0416 -0.5745
  237MOL    N5647728   7.301   2.872   5.112  0.1975 -0.0928  0.0176
  237MOL    H5747729   7.030   3.077   5.061  1.3926  1.6230 -0.5152
  237MOL    H5847730   7.077   2.966   4.957 -1.0880  1.4985  0.6919
  237MOL    H5947731   7.095   2.875   5.175  0.4710 -0.3565 -1.3786
  237MOL    H6047732   7.199   3.006   5.235 -1.5240 -0.5454  0.3355
  237MOL    H6147733   7.390   2.911   5.139  1.2541 -0.4905 -2.8123
  237MOL    C6247734   7.310   2.764   5.029  0.2009  0.3668 -0.5194
  237MOL    O6347735   7.212   2.702   4.983  0.8698  0.2849 -0.3782
  237MOL    C6447736   7.450   2.725   4.986  0.3558 -0.9289  0.1381
  237MOL    C6547737   7.467   2.618   4.878  0.4003  0.0089  0.2662
  237MOL    N6647738   7.457   2.482   4.928  0.5597  0.7212  0.0105
  237MOL    H6747739   7.506   2.815   4.958 -0.1479 -0.6153  0.1411
  237MOL    H6847740   7.499   2.682   5.074  2.0776 -0.9942 -0.8417
  237MOL    H6947741   7.388   2.645   4.808  2.0128 -0.0826 -1.6520
  237MOL    H7047742   7.559   2.627   4.819 -0.2670  1.3163 -0.5948
  237MOL    H7147743   7.375   2.432   4.898  0.8983 -0.1282  0.4690
  237MOL    C7247744   7.554   2.420   4.989 -0.1643 -0.0366  0.0708
  237MOL    O7347745   7.663   2.481   5.008 -0.6152 -0.7238 -0.4391
  237MOL    C7447746   7.525   2.286   5.053 -0.3583 -0.5294 -0.8741
  237MOL    C7547747   7.637   2.228   5.140 -0.4597  0.0139  0.0410
  237MOL    N7647748   7.599   2.104   5.208  0.1792 -0.3582  0.1010
  237MOL    H7747749   7.436   2.290   5.115  1.5845 -1.1297  2.0421
  237MOL    H7847750   7.522   2.222   4.964  0.6266 -0.1201 -1.2063
  237MOL    H7947751   7.731   2.221   5.086 -0.4446 -2.1828  0.3058
  237MOL    H8047752   7.647   2.298   5.223  2.1180 -0.8920  0.5324
  237MOL    H8147753   7.503   2.073   5.198  0.4897 -1.2175 -0.1791
  237MOL    C8247754   7.683   2.035   5.280  0.2831  0.1635 -0.8180
  237MOL    O8347755   0.017   2.075   5.311 -0.4921  0.3194  0.3786
  237MOL    C8447756   7.635   1.898   5.327  0.1716  0.2145  0.3415
  237MOL    C8547757   7.736   1.814   5.412 -0.1632 -0.2298  0.3812
  237MOL    N8647758   7.684   1.691   5.466 -0.0358  0.1872 -0.3513
  237MOL    H8747759   7.541   1.900   5.382  0.2613 -1.3260  0.5531
  237MOL    H8847760   7.624   1.832   5.241 -1.6182  1.6161 -0.5613
  237MOL    H8947761   0.042   1.795   5.348 -0.2637 -1.7242  0.6599
  237MOL    H9047762   0.019   1.863   5.487 -0.9178 -2.1898  2.3833
  237MOL    H9147763   7.716   1.604   5.427  1.5670  1.0679 -1.0525
  237MOL    C9247764   7.617   1.679   5.581  0.3037  0.1872 -0.1388
  237MOL    O9347765   7.573   1.776   5.641 -0.1052 -0.4071 -0.4250
  237MOL    C9447766   7.584   1.535   5.620 -0.6386 -0.3468  0.1898
  237MOL    C9547767   7.567   1.525   5.770 -0.5846 -0.3214 -0.0986
  237MOL    N9647768   7.566   1.378   5.793  0.2001  0.3017  0.1822
  237MOL    H9747769   7.498   1.493   5.569 -0.7468 -0.8861  0.8042
  237MOL    H9847770   7.672   1.476   5.598  1.4902  2.0080  2.0972
  237MOL    H9947771   7.654   1.568   5.819  0.7147 -2.0962 -0.8101
  237MOL   H10047772   7.474   1.570   5.805  0.2340  2.2010 -1.0589
  237MOL   H10147773   7.533   1.319   5.719 -2.0897 -1.4173  2.5025
  237MOL   C10247774   7.614   1.319   5.902  0.7356  0.8057  0.1188
  237MOL   O10347775   7.661   1.388   5.992  0.3651 -0.0296  0.2419
  237MOL   C10447776   7.597   1.171   5.905 -0.4941 -0.0715  0.0956
  237MOL   C10547777   7.631   1.109   6.045  0.5440 -0.7238  0.3293
  237MOL   N10647778   7.619   0.968   6.051 -0.2390  0.5899 -0.7692
  237MOL   H10747779   7.661   1.129   5.827  0.9951 -0.3453  1.4456
  237MOL   H10847780   7.498   1.127   5.887 -0.3214 -0.8955  1.0836
  237MOL   H10947781   7.728   1.139   6.087  0.6995 -2.1588  1.0231
  237MOL   H11047782   7.564   1.149   6.121 -0.5662  1.7194 -1.8168
  237MOL   H11147783   7.559   0.930   6.123  1.2990  1.2201  0.8863
  237MOL   C11247784   7.694   0.876   5.985 -0.0504  0.1322 -0.5083
  237MOL   O11347785   0.011   0.911   5.919  0.3791  0.4173  0.3989
  237MOL   C11447786   7.657   0.732   5.995 -0.7116 -0.0013 -0.4374
  237MOL   C11547787   7.646   0.664   5.858 -0.0289  0.3722  0.2642
  237MOL   N11647788   7.601   0.526   5.886  0.2198  0.4418 -0.9686
  237MOL   H11747789   7.562   0.724   6.048  0.2746  0.5799  1.4265
  237MOL   H11847790   7.730   0.689   6.063 -1.4087 -1.7185 -0.7398
  237MOL   H11947791   7.572   0.717   5.797  0.6019  1.4202  0.4014
  237MOL   H12047792   7.739   0.668   5.801 -1.2992  3.2050 -1.7279
  237MOL   H12147793   7.590   0.502   5.984 -1.1256  1.6282 -0.8059
  237MOL   C12247794   7.535   0.449   5.793 -0.3057  0.4139 -0.4439
  237MOL   O12347795   7.551   0.462   5.668 -0.2606 -0.3862  0.0789
  237MOL   C12447796   7.442   0.339   5.849 -0.4470 -0.0254 -0.2580
  237MOL   C12547797   7.411   0.235   5.743 -0.3767  0.3774  0.2617
  237MOL   N12647798   7.300   0.150   5.788  0.3612 -0.0492  0.1465
  237MOL   H12747799   7.359   0.391   5.897 -0.5884  0.2785 -0.8176
  237MOL   H12847800   7.479   0.294   5.941 -1.8662  0.2570  0.4648
  237MOL   H12947801   7.399   0.275   5.642 -1.0377 -2.1826 -0.7148
  237MOL   H13047802   7.498   0.172   5.725 -0.4203  0.2434  0.5232
  237MOL   H13147803   7.326   0.085   5.861 -1.4542 -1.2027 -0.1687
  237MOL   C13247804   7.173   0.166   5.733 -1.1154  0.3458 -0.5592
  237MOL   O13347805   7.151   0.231   5.633 -0.1578 -0.3074 -0.5136
  237MOL   C13447806   7.057   0.082   5.792 -0.5691  0.6639  0.1639
  237MOL   C13547807   6.961   0.143   5.887  0.9677  0.3864 -0.1517
  237MOL   N13647808   7.029   0.228   5.982  0.5788 -0.1767 -0.4348
  237MOL   H13747809   7.117   0.011   5.848 -0.9120 -2.1386 -2.9126
  237MOL   H13847810   7.012   0.022   5.713  1.8919  0.1572 -0.9115
  237MOL   H13947811   6.890   0.201   5.827 -0.8045 -2.1276 -0.5253
  237MOL   H14047812   6.901   0.065   5.933 -0.3681  1.6853  0.3743
  237MOL   H14147813   7.053   0.319   5.945 -0.5269  0.0974 -0.4921
  237MOL   C14247814   7.048   0.200   6.113  0.5570  0.2822 -0.3218
  237MOL   O14347815   7.021   0.085   6.150  1.0121  0.0262  1.0644
  237MOL   C14447816   7.109   0.305   6.199  0.5801  0.3783 -0.3622
  237MOL   C14547817   7.021   0.362   6.317 -0.2856 -0.4361 -0.3483
  237MOL   N14647818   7.085   0.473   6.393 -0.4315  0.8948  0.4625
  237MOL   H14747819   7.146   0.382   6.132 -0.1622  1.1477  0.1070
  237MOL   H14847820   7.201   0.254   6.226  0.1516 -0.3393 -0.2184
  237MOL   H14947821   6.928   0.407   6.282  0.6300  1.5863 -0.2816
  237MOL   H15047822   6.997   0.286   6.391 -0.0114 -1.4307 -1.2739
  237MOL   H15147823   7.043   0.559   6.362 -0.2188  0.9582  0.3444
  237MOL   C15247824   7.170   0.457   6.491 -0.2400 -0.8501  0.1934
  237MOL   O15347825   7.213   0.348   6.519 -0.0354 -0.2894 -0.5757
  237MOL   C15447826   7.200   0.584   6.572  0.2155 -0.2364 -0.5924
  237MOL   C15547827   7.345   0.640   6.549 -0.2183  0.0849  1.0399
  237MOL   N15647828   7.437   0.628   6.656  0.1002  0.6230  0.2501
  237MOL   H15747829   7.198   0.565   6.680  1.0971  2.1818 -0.1117
  237MOL   H15847830   7.117   0.653   6.556 -1.1193 -1.5458  0.5038
  237MOL   H15947831   7.389   0.586   6.465  0.0194  1.9476 -0.0497
  237MOL   H16047832   7.340   0.747   6.533 -0.3364  0.2614  2.2236
  237MOL   H16147833   7.398   0.594   6.743  1.8944 -1.1404  0.4127
  237MOL   C16247834   7.567   0.644   6.640  0.5253  0.7012 -0.1268
  237MOL   O16347835   7.619   0.672   6.533  0.0529  0.3860  0.0577
  237MOL   C16447836   7.648   0.624   6.769 -0.6566 -0.3663 -0.0162
  237MOL   C16547837   7.760   0.734   6.789 -0.5930  0.2579 -0.8334
  237MOL   N16647838   7.712   0.846   6.872 -0.0805 -0.5670 -0.0138
  237MOL   H16747839   7.692   0.524   6.772  2.1143  0.7725 -1.2475
  237MOL   H16847840   7.576   0.637   6.849  2.6936 -0.7748  3.1777
  237MOL   H16947841   0.070   0.684   6.823  0.2048  1.3163 -1.3630
  237MOL   H17047842   0.008   0.770   6.690  0.3315  2.0007  0.0304
  237MOL   H17147843   7.649   0.815   6.944  0.3334  1.6314  1.3260
  237MOL   C17247844   7.733   0.977   6.855  0.4918  0.1999  0.1412
  237MOL   O17347845   0.024   1.019   6.766  0.0689  0.0728 -0.3038
  237MOL   C17447846   7.657   1.073   6.952 -0.0729 -0.0872 -0.0600
  237MOL   C17547847   7.551   1.160   6.879  0.1173 -0.6895  0.0151
  237MOL   N17647848   7.448   1.079   6.817 -0.8236 -0.5681  0.1603
  237MOL   H17747849   7.740   1.122   7.003  0.9381 -1.7066 -0.0765
  237MOL   H17847850   7.600   1.021   7.029  0.1174  1.8288  1.3945
  237MOL   H17947851   7.509   1.243   6.936  2.5781  1.1443 -0.7428
  237MOL   H18047852   7.593   1.204   6.789 -2.0078  1.7761  0.1586
  237MOL   H18147853   7.469   1.037   6.727  0.5745 -0.0324  0.2324
  237MOL   C18247854   7.324   1.059   6.863 -0.2626  0.0639 -0.1991
  237MOL   O18347855   7.281   1.132   6.953 -0.3047 -0.0797  0.1466
  237MOL   C18447856   7.250   0.941   6.813 -0.2504  0.0997 -0.4922
  237MOL   C18547857   7.171   0.864   6.921  0.5446 -0.1418  0.0531
  237MOL   N18647858   7.266   0.811   7.018 -0.0821 -0.1376  0.2747
  237MOL   H18747859   7.325   0.889   6.753  0.7706  1.4352 -0.3786
  237MOL   H18847860   7.179   0.969   6.734  2.0348  0.9181 -2.2990
  237MOL   H18947861   7.101   0.934   6.968  0.3984 -0.5028  0.3726
  237MOL   H19047862   7.116   0.784   6.871 -0.8578  0.5957  0.3775
  237MOL   H19147863   7.267   0.863   7.105 -0.5818 -1.3701  1.0444
  237MOL   C19247864   7.312   0.688   7.029 -0.1966  0.8202  0.2593
  237MOL   O19347865   7.318   0.610   6.936 -0.0010  0.8520  0.2716
  237MOL   C19447866   7.370   0.645   7.161 -0.5582 -0.4911  0.1978
  237MOL   C19547867   7.524   0.635   7.152  0.1470  0.0314  0.0943
  237MOL   N19647868   7.582   0.760   7.124 -0.1676  0.1376  0.1351
  237MOL   H19747869   7.342   0.716   7.238  0.1805 -0.1148  0.1149
  237MOL   H19847870   7.319   0.552   7.188 -1.4845 -0.3014 -0.8593
  237MOL   H19947871   7.566   0.601   7.247  1.8301  0.0645 -0.6259
  237MOL   H20047872   7.553   0.563   7.076 -0.5020 -0.5242  0.3674
  237MOL   H20147873   7.678   0.744   7.150 -0.5389 -0.6042  1.0890
  237MOL   H20247874   7.548   0.828   7.192  0.1794  1.0150 -0.5616
  238MOL     C147875   0.567   7.568   4.816 -0.6831  0.2481 -0.0872
  238MOL     O247876   0.590   7.687   4.812  0.1148  0.0674 -0.6798
  238MOL     C347877   0.425   7.528   4.855 -1.3854  0.4200 -0.0055
  238MOL     C447878   0.372   7.406   4.770  0.1042 -0.4740 -0.4396
  238MOL     N547879   0.282   7.448   4.664 -0.7156  0.5239  0.6615
  238MOL     H647880   0.349   7.604   4.867 -0.4910  1.4895 -1.0104
  238MOL     H747881   0.446   7.487   4.954  1.3662 -2.0989 -1.5236
  238MOL     H847882   0.313   7.339   4.833  0.5794  0.3126  0.8589
  238MOL     H947883   0.455   7.359   4.718  0.6746  0.2219 -0.1762
  238MOL    H1047884   0.325   7.443   4.572 -0.4890 -1.1490  0.8545
  238MOL    H1147885   0.638   7.492   4.785  0.8564  2.0035 -0.9724
  238MOL    C1247886   0.170   7.514   4.669  0.3048  1.4877  0.0813
  238MOL    O1347887   0.114   7.534   4.781 -0.0361 -0.1736  1.1122
  238MOL    C1447888   0.124   7.573   4.537 -0.2510 -0.6179 -0.1382
  238MOL    C1547889   7.764   7.532   4.491 -0.0196 -0.0255  0.7977
  238MOL    N1647890   7.756   7.518   4.346 -0.0774 -0.1696 -0.6887
  238MOL    H1747891   0.190   7.537   4.459  2.9007  1.8914  1.2730
  238MOL    H1847892   0.139   7.680   4.540 -1.6498 -0.4242  0.3829
  238MOL    H1947893   7.722   7.441   4.533 -2.2901  2.3568  3.9521
  238MOL    H2047894   7.690   7.605   4.525  0.0365  0.1804  0.4761
  238MOL    H2147895   0.026   7.589   4.296 -1.1803  0.9315 -0.2521
  238MOL    C2247896   7.682   7.426   4.282 -0.1355 -0.2367 -0.4424
  238MOL    O2347897   7.612   7.338   4.332 -0.6059 -0.3425  1.0298
  238MOL    C2447898   7.674   7.444   4.130  0.2124  0.1418 -0.4452
  238MOL    C2547899   7.534   7.425   4.064 -0.3359  0.3785  0.1522
  238MOL    N2647900   7.540   7.449   3.917 -0.6123  0.1687  0.4082
  238MOL    H2747901   7.730   7.360   4.090 -0.5080  0.1356 -1.4664
  238MOL    H2847902   7.712   7.541   4.100 -0.4106  0.5292 -0.0097
  238MOL    H2947903   7.488   7.328   4.078 -0.7287  0.3763 -1.0816
  238MOL    H3047904   7.463   7.492   4.114 -1.9888  0.8297 -2.6915
  238MOL    H3147905   7.555   7.369   3.857  1.4196  1.0442 -0.2876
  238MOL    C3247906   7.528   7.567   3.856 -0.5539 -0.9117  1.0626
  238MOL    O3347907   7.510   7.671   3.911  0.0007  0.0720  0.5869
  238MOL    C3447908   7.536   7.552   3.703 -0.2996  0.0725  0.1909
  238MOL    C3547909   7.409   7.567   3.618  0.4537 -0.0338 -0.0224
  238MOL    N3647910   7.374   7.711   3.601  0.2633 -0.0166 -0.0135
  238MOL    H3747911   7.583   7.459   3.672  0.5571 -0.2316  2.3233
  238MOL    H3847912   7.613   7.618   3.662 -1.1000  1.2241  0.4965
  238MOL    H3947913   7.417   7.520   3.521 -1.5069  0.9123 -0.6693
  238MOL    H4047914   7.328   7.520   3.673  0.0246  1.1415  0.3858
  238MOL    H4147915   7.289   7.736   3.649  0.4021  1.8104 -0.6797
  238MOL    C4247916   7.452   0.019   3.536  0.3116 -0.1645 -0.2861
  238MOL    O4347917   7.562   7.770   3.485  0.2467 -0.1598  0.0785
  238MOL    C4447918   7.406   0.163   3.521  0.0931 -0.2791  0.0229
  238MOL    C4547919   7.500   0.259   3.438  0.2714 -0.5528  0.0660
  238MOL    N4647920   7.480   0.238   3.297  0.7809  0.2114  0.5611
  238MOL    H4747921   7.300   0.161   3.494 -0.4719  1.6214  1.9392
  238MOL    H4847922   7.404   0.186   3.628  0.0529 -1.1049  0.2060
  238MOL    H4947923   7.484   0.364   3.465  0.7764 -0.2608 -0.7598
  238MOL    H5047924   7.606   0.241   3.456  0.0931  0.2160  2.0378
  238MOL    H5147925   7.412   0.167   3.272  1.1434  0.2249 -0.4631
  238MOL    C5247926   7.525   0.316   3.197 -0.0402 -0.8182  0.4014
  238MOL    O5347927   7.606   0.408   3.208 -0.6628 -0.6158 -1.0766
  238MOL    C5447928   7.474   0.293   3.061  0.0209 -0.4385  0.0273
  238MOL    C5547929   7.555   0.198   2.978  0.2057  0.1690  0.1301
  238MOL    N5647930   7.677   0.254   2.940  0.6103 -0.6108 -0.1090
  238MOL    H5747931   7.375   0.248   3.072  0.1833 -0.6647  0.5779
  238MOL    H5847932   7.456   0.384   3.004 -0.3337 -0.5209  0.0005
  238MOL    H5947933   7.493   0.167   2.894  1.0742  0.1462 -0.5180
  238MOL    H6047934   7.577   0.114   3.043  0.3912 -1.0877 -1.5193
  238MOL    H6147935   7.713   0.328   2.999 -1.7418  0.9771 -0.5979
  238MOL    C6247936   7.746   0.228   2.831 -0.2737 -0.0584 -0.4889
  238MOL    O6347937   7.719   0.143   2.749  0.2935 -0.1590 -1.0607
  238MOL    C6447938   0.090   0.318   2.821 -0.5696 -0.3010 -0.3534
  238MOL    C6547939   0.092   0.424   2.712 -0.3793  0.2627  0.0085
  238MOL    N6647940   0.025   0.554   2.729  0.0776 -0.2805 -0.3144
  238MOL    H6747941   0.120   0.358   2.918 -3.9224  1.8380 -0.1271
  238MOL    H6847942   0.172   0.253   2.793  0.3551  1.8043 -2.6526
  238MOL    H6947943   0.197   0.436   2.688 -0.1946 -1.1350  0.0504
  238MOL    H7047944   0.044   0.382   2.623 -1.1943  3.2315 -1.0217
  238MOL    H7147945   7.723   0.569   2.673 -1.2996 -0.5714  1.5703
  238MOL    C7247946   0.053   0.646   2.824 -0.3292  0.0638  0.4063
  238MOL    O7347947   0.140   0.621   2.906 -1.2875  0.2419  0.0842
  238MOL    C7447948   7.747   0.773   2.821 -0.3281  0.2232  0.1124
  238MOL    C7547949   0.037   0.887   2.736 -0.1824 -0.3716  0.3628
  238MOL    N7647950   0.001   0.877   2.593  0.2561 -0.7156 -0.2471
  238MOL    H7747951   7.653   0.752   2.770 -0.1892  0.9343 -0.4296
  238MOL    H7847952   7.724   0.799   2.924 -1.4664  2.6000 -0.7242
  238MOL    H7947953   0.000   0.982   2.774 -1.0968 -0.2554 -0.7839
  238MOL    H8047954   0.144   0.878   2.752  0.2459  0.1295 -2.1398
  238MOL    H8147955   7.762   0.786   2.555 -1.1754 -1.0364  1.1379
  238MOL    C8247956   0.030   0.980   2.511  0.1465  0.0983 -0.1749
  238MOL    O8347957   0.055   1.093   2.552  0.3693  0.1055 -0.0096
  238MOL    C8447958   0.052   0.949   2.364  0.1538  0.5587 -0.1830
  238MOL    C8547959   0.128   1.046   2.277 -0.4437 -0.1653 -0.0543
  238MOL    N8647960   0.046   1.147   2.215  0.0248 -0.3352 -0.3692
  238MOL    H8747961   0.121   0.865   2.361 -3.0019 -2.1496  0.4106
  238MOL    H8847962   7.744   0.909   2.314  0.7609  0.5677 -1.2668
  238MOL    H8947963   0.207   1.091   2.337 -1.3062  1.9095 -0.4104
  238MOL    H9047964   0.177   0.989   2.198  0.6891  0.7558 -0.0329
  238MOL    H9147965   0.050   1.244   2.241  0.6994  0.2180 -2.4797
  238MOL    C9247966   7.728   1.121   2.139 -0.3883 -0.0833  0.2916
  238MOL    O9347967   7.719   1.013   2.085 -0.5429  0.4304 -0.2142
  238MOL    C9447968   7.618   1.230   2.124 -0.2922  0.9602  0.6249
  238MOL    C9547969   7.470   1.178   2.129  0.2684  0.2358 -0.0047
  238MOL    N9647970   7.424   1.087   2.241  0.3869  0.2318  0.3082
  238MOL    H9747971   7.636   1.305   2.202 -2.2802  1.0874  0.9839
  238MOL    H9847972   7.630   1.276   2.027 -0.2793 -0.7646 -0.2117
  238MOL    H9947973   7.400   1.262   2.128  0.4063  0.3604  0.7263
  238MOL   H10047974   7.449   1.138   2.030 -3.4077 -1.1059  1.2356
  238MOL   H10147975   7.389   0.997   2.211  1.1082  0.0188  0.0949
  238MOL   C10247976   7.422   1.114   2.371 -0.2059 -0.6021 -0.0282
  238MOL   O10347977   7.458   1.222   2.406  0.1488  0.0031 -0.1921
  238MOL   C10447978   7.363   1.006   2.465 -0.3369  0.4278 -0.3358
  238MOL   C10547979   7.315   1.068   2.598 -1.1822  0.2337 -0.0640
  238MOL   N10647980   7.409   1.057   2.709 -0.7825 -0.4475 -0.5284
  238MOL   H10747981   7.420   0.914   2.477  1.1418  1.6869  2.8062
  238MOL   H10847982   7.268   0.984   2.416 -0.1516 -1.4079  0.1094
  238MOL   H10947983   7.276   1.167   2.571 -2.0021 -0.3475 -1.0371
  238MOL   H11047984   7.227   1.012   2.628 -0.7632 -0.0647  0.6047
  238MOL   H11147985   7.423   0.959   2.728  0.8627  0.1857  1.7782
  238MOL   C11247986   7.469   1.146   2.787 -0.2167 -0.1522 -0.2304
  238MOL   O11347987   7.463   1.262   2.762  0.3782 -0.2282  0.1329
  238MOL   C11447988   7.549   1.101   2.907  0.3087  0.0184  0.0801
  238MOL   C11547989   7.530   1.170   3.046 -0.0136  0.2928 -0.3264
  238MOL   N11647990   7.607   1.111   3.154  0.1669 -0.5440  0.4119
  238MOL   H11747991   7.651   1.119   2.872 -0.6193  2.0003 -1.7452
  238MOL   H11847992   7.536   0.994   2.920 -2.0533 -0.1334 -2.9048
  238MOL   H11947993   7.556   1.276   3.039  1.7957 -0.2026 -1.6394
  238MOL   H12047994   7.427   1.173   3.081  0.3354 -0.7132  0.8416
  238MOL   H12147995   7.578   1.027   3.203 -1.9375 -1.1286 -1.7563
  238MOL   C12247996   7.719   1.163   3.206  0.4460  0.3431 -0.1214
  238MOL   O12347997   7.748   1.280   3.175  0.2461 -0.4759  0.2441
  238MOL   C12447998   0.008   1.093   3.320 -0.6791 -0.6892  0.5888
  238MOL   C12547999   0.129   1.004   3.281 -0.6215 -0.4030  0.0164
  238MOL   N12648000   0.083   0.869   3.252  0.7817 -0.3067 -0.0999
  238MOL   H12748001   7.721   1.038   3.386  0.7996 -2.1068  0.9529
  238MOL   H12848002   0.040   1.176   3.383  0.1909 -1.1224  0.7274
  238MOL   H12948003   0.175   1.049   3.193  0.4531 -1.3685  0.0667
  238MOL   H13048004   0.209   1.002   3.355 -0.6278 -0.0234  0.0350
  238MOL   H13148005   7.765   0.848   3.258  1.1548 -2.0111  0.3708
  238MOL   C13248006   0.156   0.766   3.201 -0.5016  0.1316 -0.3312
  238MOL   O13348007   0.271   0.779   3.153  0.4675 -0.3648 -0.3427
  238MOL   C13448008   0.086   0.626   3.212 -0.2454 -0.3020  0.2654
  238MOL   C13548009   0.181   0.513   3.215 -0.3801  0.5392  0.3978
  238MOL   N13648010   0.119   0.392   3.265  0.6831  0.4590  0.2665
  238MOL   H13748011   0.019   0.617   3.127  1.0164 -1.0661 -0.6721
  238MOL   H13848012   0.023   0.626   3.301  1.2006  3.7401  1.4167
  238MOL   H13948013   0.226   0.494   3.118 -0.5488  0.6376  0.2994
  238MOL   H14048014   0.263   0.534   3.284  0.5350  0.0249 -0.5273
  238MOL   H14148015   0.019   0.400   3.282  0.5202  0.4772 -0.6527
  238MOL   C14248016   0.181   0.277   3.296 -0.2938  0.4676 -0.3714
  238MOL   O14348017   0.305   0.260   3.287 -0.1206 -0.1295  0.0269
  238MOL   C14448018   0.093   0.157   3.318  0.1813  0.4496 -0.5715
  238MOL   C14548019   0.154   0.024   3.375  0.2170 -0.6232 -0.0546
  238MOL   N14648020   0.049   7.703   3.402  0.1693  0.1396  0.4558
  238MOL   H14748021   0.044   0.148   3.222  0.0047  1.5679 -0.5951
  238MOL   H14848022   0.016   0.187   3.390 -0.7605  0.0592 -1.4098
  238MOL   H14948023   0.223   7.766   3.300 -1.4214 -0.8136 -1.5070
  238MOL   H15048024   0.207   0.050   3.466  0.2376 -1.3359  0.1378
  238MOL   H15148025   7.750   7.733   3.456 -2.0021 -0.4677 -2.2964
  238MOL   C15248026   0.046   7.576   3.357  0.6590  0.2472 -0.2664
  238MOL   O15348027   0.132   7.532   3.283  0.2398 -0.3381  0.0457
  238MOL   C15448028   7.708   7.487   3.406  0.0621 -0.1927 -0.1285
  238MOL   C15548029   7.693   7.349   3.333 -0.5987  0.1732 -0.0998
  238MOL   N15648030   7.600   7.256   3.409 -0.5104  0.1064 -0.6128
  238MOL   H15748031   7.616   7.540   3.382  0.6511  1.6302  1.4860
  238MOL   H15848032   7.714   7.466   3.513  2.8366  0.5319 -0.1121
  238MOL   H15948033   7.665   7.363   3.229 -3.6218  1.3921  0.8222
  238MOL   H16048034   0.014   7.309   3.327 -0.5875  0.2177 -0.1908
  238MOL   H16148035   7.639   7.196   3.481  0.7802  1.9417  0.2530
  238MOL   C16248036   7.474   7.238   3.372  0.3734 -0.6570 -0.0096
  238MOL   O16348037   7.419   7.323   3.293  0.9077  0.4597  0.0487
  238MOL   C16448038   7.402   7.126   3.447 -0.5145  0.2772 -0.1503
  238MOL   C16548039   7.290   7.052   3.372  0.1405 -0.2927  0.4134
  238MOL   N16648040   7.327   6.969   3.256  0.4260  0.2501 -0.4354
  238MOL   H16748041   7.376   7.193   3.529  2.4322 -1.0710  1.9868
  238MOL   H16848042   7.479   7.055   3.478  0.7293  1.4984 -0.4112
  238MOL   H16948043   7.231   7.001   3.449 -1.3952  0.6672 -0.1045
  238MOL   H17048044   7.224   7.129   3.331 -2.6100 -2.3309  0.8307
  238MOL   H17148045   7.407   6.908   3.262 -0.5534 -0.8085  2.9589
  238MOL   C17248046   7.248   6.963   3.145 -0.4087  0.4651  0.0904
  238MOL   O17348047   7.136   7.019   3.137  0.5719  0.3730 -0.2286
  238MOL   C17448048   7.298   6.881   3.030  0.1320  0.2517  0.5285
  238MOL   C17548049   7.216   6.911   2.900 -0.2616  0.2300  0.2080
  238MOL   N17648050   7.265   6.835   2.784 -0.3858 -0.8435  0.5208
  238MOL   H17748051   7.290   6.778   3.065  0.1050  1.2628  3.6588
  238MOL   H17848052   7.404   6.903   3.018  0.1681 -0.2010  0.0409
  238MOL   H17948053   7.111   6.892   2.920 -0.7759  2.2949 -0.3676
  238MOL   H18048054   7.234   7.017   2.880  0.7864 -0.1182 -0.7215
  238MOL   H18148055   7.264   6.735   2.781 -2.0160 -0.7943 -1.3483
  238MOL   C18248056   7.343   6.886   2.684  0.2136 -0.4541 -0.3005
  238MOL   O18348057   7.360   7.007   2.667 -0.1673 -0.4959  0.0220
  238MOL   C18448058   7.400   6.793   2.582 -0.5483  0.3854  0.3155
  238MOL   C18548059   7.554   6.788   2.565  0.2927  0.0216 -0.5210
  238MOL   N18648060   7.621   6.918   2.556 -0.8338  0.2393  0.0866
  238MOL   H18748061   7.345   6.824   2.493  0.5932 -1.2678 -1.0075
  238MOL   H18848062   7.364   6.692   2.601  1.2083 -0.6454 -1.6598
  238MOL   H18948063   7.598   6.730   2.646  1.9506  1.0787 -0.6185
  238MOL   H19048064   7.572   6.725   2.477 -0.8376 -2.8537  1.2319
  238MOL   H19148065   7.585   6.990   2.618  0.6391  0.8613  0.2276
  238MOL   C19248066   7.726   6.950   2.480 -0.1254 -0.4563 -0.1239
  238MOL   O19348067   7.772   6.873   2.391  0.0919 -0.3766  0.2681
  238MOL   C19448068   0.011   7.092   2.493 -0.3460 -0.1672 -0.1458
  238MOL   C19548069   0.079   7.145   2.366 -0.0299 -0.3921 -0.2738
  238MOL   N19648070   0.210   7.099   2.338 -0.3617  0.1998 -0.3206
  238MOL   H19748071   7.707   7.159   2.511 -0.9368 -0.0127 -3.1939
  238MOL   H19848072   0.073   7.098   2.582  0.9733  0.1358 -1.0695
  238MOL   H19948073   0.023   7.118   2.276  0.6449 -0.2372 -0.7424
  238MOL   H20048074   0.084   7.253   2.378 -2.3358 -0.1170 -1.4922
  238MOL   H20148075   0.210   7.090   2.238  1.9100  1.1740 -0.4406
  238MOL   H20248076   0.219   7.000   2.357 -1.2405  0.2841  0.5509
  239MOL     C148077   1.488   0.621   0.555  0.2308 -0.4419  0.0061
  239MOL     O248078   1.453   0.741   0.540  0.1898  0.1899  0.7452
  239MOL     C348079   1.400   0.514   0.620 -0.1680 -0.3154  0.1198
  239MOL     C448080   1.280   0.484   0.523  0.4857 -0.0828 -0.3878
  239MOL     N548081   1.320   0.401   0.406  0.6763 -0.4504  0.1082
  239MOL     H648082   1.370   0.553   0.717 -0.7923  0.4785 -0.3820
  239MOL     H748083   1.454   0.420   0.636 -0.4145 -0.9396 -2.4083
  239MOL     H848084   1.228   0.572   0.486 -0.6382 -0.3860  0.4455
  239MOL     H948085   1.192   0.446   0.575  0.2242  1.9413  0.6875
  239MOL    H1048086   1.378   0.442   0.334  0.2196  0.9136  0.4886
  239MOL    H1148087   1.583   0.580   0.520  0.2160  0.4555 -1.0746
  239MOL    C1248088   1.314   0.272   0.394 -0.0531  0.2885  0.1040
  239MOL    O1348089   1.263   0.207   0.481  0.6875 -0.5492  0.1412
  239MOL    C1448090   1.358   0.207   0.259  0.3121 -0.0837  0.0958
  239MOL    C1548091   1.498   0.157   0.278  0.0009 -0.0790  0.1710
  239MOL    N1648092   1.597   0.258   0.243 -0.3867 -0.0378 -0.1518
  239MOL    H1748093   1.350   0.274   0.174 -2.9256  3.0808  2.7294
  239MOL    H1848094   1.284   0.130   0.235 -0.7213  0.9867 -0.1919
  239MOL    H1948095   1.508   0.108   0.375  0.5337 -0.4305 -0.0584
  239MOL    H2048096   1.516   0.065   0.222 -1.7399 -0.7464  0.6777
  239MOL    H2148097   1.622   0.278   0.147 -0.5254 -1.2997 -0.4599
  239MOL    C2248098   1.680   0.313   0.331  0.7310 -0.4121  0.7015
  239MOL    O2348099   1.663   0.289   0.451 -0.7782 -0.2331  0.1041
  239MOL    C2448100   1.795   0.402   0.285 -0.5511 -0.2246  0.6037
  239MOL    C2548101   1.900   0.453   0.392 -0.0717  0.3969  0.1461
  239MOL    N2648102   1.984   0.342   0.426  0.2512  0.0062 -0.2134
  239MOL    H2748103   1.751   0.490   0.239 -0.8279 -0.5642  0.2149
  239MOL    H2848104   1.841   0.352   0.199  0.8404  0.3331  1.0084
  239MOL    H2948105   1.947   0.548   0.367 -0.7986  0.4479 -1.0193
  239MOL    H3048106   1.848   0.467   0.487  0.4668 -3.2111  1.0703
  239MOL    H3148107   1.967   0.306   0.519  2.1743 -0.1018  0.1106
  239MOL    C3248108   2.064   0.269   0.345 -1.1313  0.0708  0.2056
  239MOL    O3348109   2.088   0.304   0.227 -0.8023 -0.2805 -0.4467
  239MOL    C3448110   2.136   0.152   0.411  0.0445  0.0070  0.4998
  239MOL    C3548111   2.131   0.021   0.328  0.5297  0.0871 -0.8540
  239MOL    N3648112   2.003   7.737   0.300  0.7418 -0.0454 -0.6250
  239MOL    H3748113   2.105   0.138   0.515 -1.0666 -1.2706  0.0276
  239MOL    H3848114   2.242   0.175   0.402  0.1797 -1.6873 -3.2921
  239MOL    H3948115   2.173   0.037   0.229  0.7666 -1.1859 -0.9620
  239MOL    H4048116   2.196   7.724   0.369  0.8338  1.5006  1.4099
  239MOL    H4148117   1.993   7.712   0.202 -0.8466  1.0188 -0.7590
  239MOL    C4248118   1.906   7.709   0.390  0.5513 -0.1963 -0.5252
  239MOL    O4348119   1.925   7.732   0.511  0.0547  0.0005  0.1410
  239MOL    C4448120   1.781   7.642   0.334  0.0620 -0.8137 -0.0740
  239MOL    C4548121   1.720   7.531   0.416  0.4118  0.1295 -0.4175
  239MOL    N4648122   1.657   7.572   0.541 -1.0012 -0.6133 -0.2572
  239MOL    H4748123   1.702   7.716   0.319  0.8065 -0.0940 -0.4235
  239MOL    H4848124   1.808   7.596   0.239  1.3269  0.1132 -0.1794
  239MOL    H4948125   1.648   7.476   0.356 -0.8743  1.6619 -0.3179
  239MOL    H5048126   1.802   7.462   0.439  1.2389  0.2386 -2.9085
  239MOL    H5148127   1.720   7.582   0.620  1.7087  0.7714 -2.4930
  239MOL    C5248128   1.537   7.633   0.543  0.6503 -0.3362 -0.1312
  239MOL    O5348129   1.471   7.641   0.441  0.3540  0.0535  0.1092
  239MOL    C5448130   1.490   7.702   0.674 -0.3754 -0.0743  0.3272
  239MOL    C5548131   1.339   7.723   0.691  0.4406 -0.4942 -0.4874
  239MOL    N5648132   1.278   7.627   0.780  0.4793  0.0027  0.5328
  239MOL    H5748133   1.527   7.638   0.754 -1.3421 -2.3496 -1.0078
  239MOL    H5848134   1.550   0.013   0.687  2.0221 -1.1281 -2.8968
  239MOL    H5948135   1.296   7.736   0.591  1.5917  1.2071 -0.7915
  239MOL    H6048136   1.321   0.038   0.741  1.9253  0.5246 -1.8316
  239MOL    H6148137   1.262   7.667   0.871 -0.1290 -1.8863  1.2763
  239MOL    C6248138   1.226   7.509   0.762  0.8527  0.3723  0.4939
  239MOL    O6348139   1.235   7.451   0.655  0.0531  0.8786 -0.4255
  239MOL    C6448140   1.141   7.452   0.874  0.2453  0.3385 -0.3314
  239MOL    C6548141   1.016   7.383   0.814 -0.3796  0.1575 -0.1438
  239MOL    N6648142   0.917   7.475   0.764  0.0289 -0.3266 -0.1577
  239MOL    H6748143   1.212   7.382   0.919  1.2334  1.0681 -0.7499
  239MOL    H6848144   1.109   7.523   0.950 -2.7898 -2.7954  1.4394
  239MOL    H6948145   1.056   7.314   0.740 -2.8923  0.1380 -1.5250
  239MOL    H7048146   0.966   7.334   0.898 -0.9460 -1.4082 -1.3884
  239MOL    H7148147   0.916   7.493   0.664  2.0086 -2.5157 -0.6133
  239MOL    C7248148   0.837   7.554   0.834  0.2721  1.0739 -0.0804
  239MOL    O7348149   0.844   7.567   0.959  0.0347  0.1963  0.1894
  239MOL    C7448150   0.731   7.632   0.751  0.0992 -0.1996  1.0301
  239MOL    C7548151   0.598   7.661   0.823 -0.1762  0.1343 -0.5107
  239MOL    N7648152   0.546   7.538   0.889 -0.0210 -0.4435 -0.6389
  239MOL    H7748153   0.778   7.724   0.718 -2.1964  0.3551 -0.8030
  239MOL    H7848154   0.716   7.572   0.661  2.9180  1.4874 -0.6425
  239MOL    H7948155   0.610   7.732   0.904 -3.2937 -0.3002  0.3895
  239MOL    H8048156   0.521   7.704   0.760 -1.3881  1.3566  1.7676
  239MOL    H8148157   0.563   7.541   0.989 -0.8330  1.2546 -0.5194
  239MOL    C8248158   0.510   7.423   0.831  0.3544  0.1296  0.1457
  239MOL    O8348159   0.480   7.409   0.714  0.3841 -0.0829  0.3762
  239MOL    C8448160   0.502   7.296   0.922 -0.7383  0.3117  0.0947
  239MOL    C8548161   0.643   7.238   0.950 -0.2906 -0.5235 -0.2288
  239MOL    N8648162   0.713   7.314   1.056 -0.2767  0.5755  0.2569
  239MOL    H8748163   0.454   7.317   1.017 -0.8225 -1.0282  0.3654
  239MOL    H8848164   0.438   7.222   0.873 -0.0478 -1.0723  1.2311
  239MOL    H8948165   0.638   7.135   0.985  1.6419  0.4407  3.0991
  239MOL    H9048166   0.713   7.231   0.867  0.3068  3.4895 -0.2100
  239MOL    H9148167   0.759   7.399   1.027  2.7493 -0.3585  2.2013
  239MOL    C9248168   0.736   7.284   1.184 -0.1361 -0.4193  0.0803
  239MOL    O9348169   0.677   7.184   1.237 -0.6508 -0.5440  0.0999
  239MOL    C9448170   0.815   7.391   1.260  0.5110  0.1929 -0.1379
  239MOL    C9548171   0.813   7.361   1.409  0.6657 -0.1489 -0.1843
  239MOL    N9648172   0.854   7.464   1.503 -0.3874  0.4252 -0.6697
  239MOL    H9748173   0.914   7.398   1.217  0.7166 -0.7606  0.1617
  239MOL    H9848174   0.777   7.492   1.246  0.8596  0.2890 -0.3879
  239MOL    H9948175   0.712   7.336   1.440  0.1188 -0.9261 -2.5161
  239MOL   H10048176   0.868   7.271   1.436 -0.6363 -0.9440 -0.1852
  239MOL   H10148177   0.796   7.476   1.585  0.5888 -0.0422  0.1018
  239MOL   C10248178   0.967   7.533   1.503  0.0362 -0.3820 -0.2193
  239MOL   O10348179   1.054   7.506   1.425  0.2134  0.3086 -0.3333
  239MOL   C10448180   1.000   7.628   1.619  0.5912 -0.4560  0.0574
  239MOL   C10548181   1.132   7.709   1.618 -0.2638  0.0224  0.2196
  239MOL   N10648182   1.137   0.030   1.512 -0.1840 -0.4110 -0.4041
  239MOL   H10748183   1.006   7.567   1.709  0.0813  1.1259  1.1847
  239MOL   H10848184   0.916   7.695   1.637  0.0483 -1.3844  1.0721
  239MOL   H10948185   1.150   7.763   1.711  0.2585 -2.9112  1.8716
  239MOL   H11048186   1.214   7.638   1.609  0.9459  1.5799 -1.8085
  239MOL   H11148187   1.063   0.037   1.445  0.9840 -4.9482 -2.3341
  239MOL   C11248188   1.239   0.113   1.498  0.2523  0.1139 -0.2001
  239MOL   O11348189   1.326   0.121   1.583 -0.0830 -0.5898 -0.0856
  239MOL   C11448190   1.237   0.198   1.372 -0.3542  0.6083 -0.1719
  239MOL   C11548191   1.237   0.355   1.410 -0.0295  0.2143  0.1669
  239MOL   N11648192   1.100   0.401   1.450  0.3555  0.2276  0.8175
  239MOL   H11748193   1.157   0.175   1.302 -0.9582  3.1243 -0.3488
  239MOL   H11848194   1.331   0.183   1.318 -0.9838  2.0563 -1.6943
  239MOL   H11948195   1.303   0.371   1.495  0.6228 -1.6478  0.0296
  239MOL   H12048196   1.269   0.415   1.325  1.3818  0.8410  1.1251
  239MOL   H12148197   1.028   0.343   1.409  0.6873 -0.7569  1.5859
  239MOL   C12248198   1.071   0.517   1.511 -0.3768  0.8942  0.0140
  239MOL   O12348199   1.159   0.594   1.554  0.2548 -0.4914  0.2311
  239MOL   C12448200   0.922   0.547   1.501  0.3917 -0.3903  0.0621
  239MOL   C12548201   0.868   0.652   1.600 -0.4552  0.2772  0.2507
  239MOL   N12648202   0.843   0.608   1.737  0.2438 -0.4839 -0.3949
  239MOL   H12748203   0.871   0.455   1.529 -0.5455  0.8124  2.4676
  239MOL   H12848204   0.885   0.564   1.400  1.4226  0.5758 -0.1604
  239MOL   H12948205   0.949   0.725   1.608 -0.4990  0.2829  0.6183
  239MOL   H13048206   0.782   0.709   1.563  1.1670  3.4760  1.2602
  239MOL   H13148207   0.876   0.518   1.768 -1.2096 -0.1718  2.2157
  239MOL   C13248208   0.751   0.667   1.813 -0.7741  0.2485 -0.1598
  239MOL   O13348209   0.698   0.775   1.781  0.3594  0.5481  0.7903
  239MOL   C13448210   0.688   0.588   1.924 -1.0070  0.1097  0.6282
  239MOL   C13548211   0.559   0.649   1.975  0.1657  0.4138  0.1053
  239MOL   N13648212   0.500   0.575   2.088  0.4191  0.2090  0.9961
  239MOL   H13748213   0.762   0.600   2.003 -0.9078 -0.4616  0.6196
  239MOL   H13848214   0.688   0.485   1.888  0.6174  0.1218  0.5533
  239MOL   H13948215   0.580   0.751   2.008 -2.1455  1.1662 -0.7007
  239MOL   H14048216   0.486   0.654   1.894  1.1087 -0.1447 -0.8048
  239MOL   H14148217   0.543   0.488   2.117 -0.9066 -0.0381  2.2581
  239MOL   C14248218   0.393   0.612   2.158  0.4054 -0.7347  0.1765
  239MOL   O14348219   0.329   0.715   2.136 -0.0326  0.2906 -0.1747
  239MOL   C14448220   0.346   0.508   2.257 -0.1158  0.3864 -0.8786
  239MOL   C14548221   0.236   0.556   2.355  0.2181 -0.2084  0.1222
  239MOL   N14648222   0.107   0.568   2.289 -0.3179 -0.9457  0.5452
  239MOL   H14748223   0.429   0.479   2.321 -1.8378  0.3843  1.4158
  239MOL   H14848224   0.309   0.425   2.197 -0.6115  0.4145 -0.6208
  239MOL   H14948225   0.222   0.474   2.426  0.2631 -1.1738 -0.9567
  239MOL   H15048226   0.256   0.650   2.405 -1.3601  0.0531  0.2758
  239MOL   H15148227   0.120   0.559   2.189  0.7637  2.8901  0.2793
  239MOL   C15248228   7.769   0.597   2.339 -0.4734  0.4645  0.0720
  239MOL   O15348229   7.739   0.617   2.457  0.0651  0.0774 -0.3618
  239MOL   C15448230   7.655   0.587   2.244 -0.3521  0.0093  0.1984
  239MOL   C15548231   7.550   0.703   2.254  0.1405  0.0194 -0.2260
  239MOL   N15648232   7.558   0.787   2.135 -0.0784 -0.2822 -0.6796
  239MOL   H15748233   7.603   0.497   2.278 -1.0126  0.1415 -0.4559
  239MOL   H15848234   7.693   0.581   2.142  2.9489 -1.3125  1.4401
  239MOL   H15948235   7.452   0.655   2.263  0.5498 -0.6280  0.8131
  239MOL   H16048236   7.576   0.752   2.347  0.8865 -0.3899 -0.2157
  239MOL   H16148237   7.610   0.874   2.136  3.0242 -2.0560 -0.8121
  239MOL   C16248238   7.505   0.736   2.021  0.2609 -0.5898  0.4466
  239MOL   O16348239   7.436   0.633   2.020  0.2197 -0.0874  0.0319
  239MOL   C16448240   7.514   0.826   1.900  0.3079  0.5586  0.3055
  239MOL   C16548241   7.405   0.820   1.798 -0.2030 -0.4033  0.9067
  239MOL   N16648242   7.287   0.902   1.843 -1.0838 -0.0558  0.6744
  239MOL   H16748243   7.600   0.786   1.846  0.6453  2.8767 -0.9033
  239MOL   H16848244   7.554   0.926   1.916  0.3056  0.3568  1.6164
  239MOL   H16948245   7.444   0.854   1.702  0.2598 -1.1439  0.8274
  239MOL   H17048246   7.375   0.716   1.787  0.1929 -0.1118 -3.5453
  239MOL   H17148247   7.296   1.002   1.836  1.1439 -0.0088  3.2920
  239MOL   C17248248   7.162   0.854   1.849 -0.4802  0.4712  1.3274
  239MOL   O17348249   7.139   0.738   1.820 -0.0442 -0.2179  0.5516
  239MOL   C17448250   7.050   0.941   1.890  0.2910 -0.8815  0.3156
  239MOL   C17548251   6.904   0.909   1.842 -0.1043 -0.2344 -0.3246
  239MOL   N17648252   6.849   0.803   1.934  0.3260 -0.6153  0.2004
  239MOL   H17748253   7.067   1.040   1.847 -2.3176 -1.4976 -2.4012
  239MOL   H17848254   7.054   0.940   1.998  1.7846 -0.2452  0.2743
  239MOL   H17948255   6.836   0.994   1.846 -1.2347 -0.9792 -2.9090
  239MOL   H18048256   6.906   0.867   1.741 -0.4536 -1.4760  0.1739
  239MOL   H18148257   6.856   0.704   1.912 -0.3766 -0.4846 -0.6501
  239MOL   C18248258   6.772   0.836   2.044  0.5564 -0.1502  0.5504
  239MOL   O18348259   6.756   0.952   2.075  0.0120 -0.7274 -0.1389
  239MOL   C18448260   6.701   0.728   2.121 -0.3246 -0.1612  0.2650
  239MOL   C18548261   6.552   0.751   2.141  1.0788 -0.6734  0.5520
  239MOL   N18648262   6.474   0.642   2.215  0.7712 -0.0122 -0.5124
  239MOL   H18748263   6.755   0.718   2.216 -0.2506  2.2706  0.5123
  239MOL   H18848264   6.713   0.634   2.066  0.1291 -0.0336  0.1435
  239MOL   H18948265   6.541   0.836   2.208  0.7263  0.2598 -0.6690
  239MOL   H19048266   6.498   0.759   2.047  0.1942  0.8985  1.1699
  239MOL   H19148267   6.469   0.644   2.316 -0.1292 -2.6840 -0.4650
  239MOL   C19248268   6.448   0.523   2.158 -0.2270  0.1216 -0.0530
  239MOL   O19348269   6.461   0.499   2.037  0.3874  0.5188 -0.4367
  239MOL   C19448270   6.394   0.424   2.262  0.6814 -0.1317 -0.3753
  239MOL   C19548271   6.417   0.282   2.232  0.1944  0.1258  0.2429
  239MOL   N19648272   6.390   0.191   2.340 -0.5513  0.5428 -0.5899
  239MOL   H19748273   6.430   0.442   2.364  1.8127  0.9057 -0.9450
  239MOL   H19848274   6.287   0.445   2.270  0.2953 -1.6262 -1.5154
  239MOL   H19948275   6.348   0.254   2.153 -1.1919  4.1620 -0.0647
  239MOL   H20048276   6.518   0.264   2.194  0.4380  0.6805  0.6106
  239MOL   H20148277   6.304   0.204   2.392 -0.2719  2.0996 -0.5088
  239MOL   H20248278   6.386   0.098   2.302 -0.4144  0.1003  0.4469
  240MOL     C148279   4.051   1.932   5.946 -0.0124 -0.4347  0.0471
  240MOL     O248280   3.968   2.025   5.932  0.2746  0.1748 -0.1156
  240MOL     C348281   4.107   1.905   6.086  0.3165  0.2367 -0.8848
  240MOL     C448282   3.995   1.938   6.197 -0.2785 -0.8172 -0.1198
  240MOL     N548283   4.046   1.932   6.336  0.2700 -0.1185 -0.2672
  240MOL     H648284   4.185   1.980   6.100 -0.4077  0.6412  1.2169
  240MOL     H748285   4.144   1.804   6.098 -0.4384  0.2169  1.5851
  240MOL     H848286   3.909   1.874   6.178 -1.7075  0.6989  1.1176
  240MOL     H948287   3.950   2.036   6.185 -0.1137 -0.4801  1.8237
  240MOL    H1048288   3.995   1.860   6.386 -1.7067  1.4359  0.0376
  240MOL    H1148289   4.097   1.869   5.870 -0.5537  1.1527 -1.6237
  240MOL    C1248290   4.141   2.006   6.385 -0.1756  0.2452  0.6296
  240MOL    O1348291   4.191   2.098   6.320 -0.0823  0.0245  0.0936
  240MOL    C1448292   4.182   1.980   6.532  0.3740  0.3856  0.1183
  240MOL    C1548293   4.325   2.035   6.573 -0.2387 -0.1486  0.0073
  240MOL    N1648294   4.437   1.941   6.563 -0.0460 -0.2397  0.2778
  240MOL    H1748295   4.171   1.872   6.540 -0.8030  0.5823  1.3565
  240MOL    H1848296   4.107   2.019   6.601 -0.1193  1.1262 -0.8281
  240MOL    H1948297   4.352   2.131   6.530 -1.0373  0.0629 -0.0393
  240MOL    H2048298   4.319   2.049   6.681  0.5776  1.7364 -0.1681
  240MOL    H2148299   4.405   1.847   6.583  1.8054 -0.7801  0.7190
  240MOL    C2248300   4.570   1.964   6.552 -0.0765 -0.3061 -0.1728
  240MOL    O2348301   4.616   2.082   6.550 -1.0087  0.4713  0.2542
  240MOL    C2448302   4.664   1.851   6.538 -0.2405 -0.6625  0.0913
  240MOL    C2548303   4.619   1.703   6.532 -0.3866  0.0354 -0.0134
  240MOL    N2648304   4.529   1.678   6.420  0.0703 -0.2103  0.0933
  240MOL    H2748305   4.746   1.849   6.610  0.8266  0.5025 -1.0679
  240MOL    H2848306   4.709   1.871   6.441 -1.6248  3.7960  0.2463
  240MOL    H2948307   4.717   1.656   6.541  0.4871  1.8796  0.3410
  240MOL    H3048308   4.572   1.681   6.628 -0.6939  0.7078 -0.0051
  240MOL    H3148309   4.569   1.650   6.332 -0.7731 -0.3564 -0.2424
  240MOL    C3248310   4.401   1.663   6.431  0.0487 -0.8179  0.0296
  240MOL    O3348311   4.347   1.679   6.540 -0.4753 -0.9481  0.1260
  240MOL    C3448312   4.327   1.618   6.304  0.3313  0.1140 -0.6217
  240MOL    C3548313   4.203   1.529   6.340  0.6120  0.1337  0.1279
  240MOL    N3648314   4.169   1.449   6.226 -0.5150 -0.0701 -0.1374
  240MOL    H3748315   4.390   1.569   6.230  0.3013  0.7862 -1.1064
  240MOL    H3848316   4.285   1.709   6.259 -1.0991 -0.2257  0.0046
  240MOL    H3948317   4.236   1.469   6.425  0.6249 -0.0631 -0.0128
  240MOL    H4048318   4.129   1.604   6.365  0.1416  0.2225 -1.4538
  240MOL    H4148319   4.170   1.497   6.137  3.2778  3.6113  1.7466
  240MOL    C4248320   4.149   1.318   6.230  0.0110 -0.4043 -0.2199
  240MOL    O4348321   4.144   1.254   6.333  0.0099 -0.8738 -0.0767
  240MOL    C4448322   4.112   1.253   6.097  0.5040  0.1205  0.1099
  240MOL    C4548323   4.231   1.178   6.033  0.3684 -0.1073 -0.0794
  240MOL    N4648324   4.216   1.134   5.898 -0.0626  0.0716 -0.1815
  240MOL    H4748325   4.031   1.183   6.120  0.7504 -0.0541  0.4575
  240MOL    H4848326   4.082   1.331   6.027  0.0217 -1.6036 -1.6701
  240MOL    H4948327   4.328   1.228   6.040 -0.1145  0.9443 -0.7213
  240MOL    H5048328   4.248   1.095   6.102  1.2318  0.4080  0.3413
  240MOL    H5148329   4.129   1.092   5.869 -0.8606  2.7513 -1.7779
  240MOL    C5248330   4.309   1.146   5.800 -0.6052 -0.4648  0.0238
  240MOL    O5348331   4.422   1.192   5.816 -0.2632 -0.2112 -0.5682
  240MOL    C5448332   4.267   1.105   5.662 -0.1877 -0.6981  0.1130
  240MOL    C5548333   4.282   1.211   5.543 -0.0540  0.0062 -0.2815
  240MOL    N5648334   4.417   1.260   5.523  0.1931 -0.3350 -0.0051
  240MOL    H5748335   4.336   1.024   5.640  0.0143 -0.3665 -0.4817
  240MOL    H5848336   4.168   1.059   5.656  0.6467 -2.2136 -2.6164
  240MOL    H5948337   4.195   1.277   5.539 -1.1328 -1.3838  0.2020
  240MOL    H6048338   4.271   1.147   5.456 -1.5472 -1.3729  0.8933
  240MOL    H6148339   4.487   1.193   5.495 -0.1025 -0.7114  0.1598
  240MOL    C6248340   4.456   1.389   5.526  0.2402 -0.1533  0.8980
  240MOL    O6348341   4.371   1.485   5.530 -0.3662  0.6848  0.0458
  240MOL    C6448342   4.608   1.417   5.538  0.8351 -0.7478  0.1544
  240MOL    C6548343   4.642   1.566   5.496  0.2475 -0.2294  0.0175
  240MOL    N6648344   4.778   1.577   5.444  0.1883  0.9224 -0.6141
  240MOL    H6748345   4.651   1.389   5.634  1.1605 -0.4394  0.0992
  240MOL    H6848346   4.651   1.356   5.458  0.5432 -1.0246  0.2085
  240MOL    H6948347   4.579   1.613   5.420  1.8481  1.7372 -0.1492
  240MOL    H7048348   4.634   1.636   5.579 -1.4432  0.7218 -0.9176
  240MOL    H7148349   4.793   1.562   5.345 -0.7754 -1.5068 -0.4203
  240MOL    C7248350   4.887   1.588   5.526 -0.0712  0.2848 -0.1040
  240MOL    O7348351   4.878   1.590   5.648  0.7768 -0.6480 -0.4778
  240MOL    C7448352   5.028   1.613   5.470 -0.0385 -1.1751  0.1971
  240MOL    C7548353   5.145   1.546   5.547  0.6092 -0.1687 -0.9017
  240MOL    N7648354   5.125   1.400   5.545 -0.7012 -0.0883 -0.2706
  240MOL    H7748355   5.029   1.590   5.364 -0.4134 -0.0622 -0.0587
  240MOL    H7848356   5.047   1.720   5.466 -1.9017 -0.8447 -0.1417
  240MOL    H7948357   5.245   1.576   5.515  1.4064 -0.9337  0.8189
  240MOL    H8048358   5.136   1.578   5.651 -0.4380 -0.4274 -0.9053
  240MOL    H8148359   5.064   1.378   5.623 -0.6027 -0.2927 -0.2495
  240MOL    C8248360   5.156   1.305   5.454 -0.1812 -0.5467 -0.3940
  240MOL    O8348361   5.226   1.332   5.354  0.6974 -0.2803  0.1834
  240MOL    C8448362   5.079   1.173   5.472 -0.2370  0.1380  0.1783
  240MOL    C8548363   5.156   1.045   5.458  0.1673  0.4051  0.1913
  240MOL    N8648364   5.264   1.021   5.561 -0.4270  0.0866 -0.1703
  240MOL    H8748365   5.039   1.169   5.573  0.5716  1.6198  0.5623
  240MOL    H8848366   4.991   1.171   5.407  0.4142 -0.1923 -0.6996
  240MOL    H8948367   5.091   0.959   5.443 -1.1091  1.6851 -1.7689
  240MOL    H9048368   5.215   1.057   5.368  0.3984 -3.1411 -0.1648
  240MOL    H9148369   5.358   1.016   5.524  0.1564  1.7703  1.0361
  240MOL    C9248370   5.247   0.988   5.683  0.7168 -0.5646 -0.1369
  240MOL    O9348371   5.136   0.995   5.738 -0.1693 -0.0576 -0.5513
  240MOL    C9448372   5.368   0.941   5.770  0.2864  0.3698  0.6170
  240MOL    C9548373   5.406   0.789   5.770 -0.0616  0.1373 -0.2678
  240MOL    N9648374   5.503   0.758   5.665  0.6320  0.4229 -0.4809
  240MOL    H9748375   5.447   1.012   5.747 -1.3730  2.2709  0.7272
  240MOL    H9848376   5.329   0.957   5.870 -0.2738  1.3010  0.2536
  240MOL    H9948377   5.451   0.775   5.868 -2.3096  1.1718  0.9762
  240MOL   H10048378   5.320   0.723   5.782 -0.6167  0.8487 -0.2857
  240MOL   H10148379   5.587   0.813   5.677 -0.1189  1.8213 -1.4983
  240MOL   C10248380   5.481   0.664   5.575  0.4886 -0.2210 -0.1469
  240MOL   O10348381   5.368   0.614   5.550 -0.3825 -0.8764 -0.0940
  240MOL   C10448382   5.611   0.634   5.494  0.3289  0.0366 -0.9075
  240MOL   C10548383   5.613   0.497   5.427  0.5266 -0.3856  0.4017
  240MOL   N10648384   5.523   0.496   5.308  0.0454 -0.1077 -0.1502
  240MOL   H10748385   5.696   0.638   5.562 -0.0154 -3.4153 -0.1625
  240MOL   H10848386   5.630   0.714   5.423  1.7311  0.2648 -0.2924
  240MOL   H10948387   5.714   0.470   5.396  0.6253 -0.3088  0.6577
  240MOL   H11048388   5.582   0.423   5.500 -0.2274 -0.6240 -0.1603
  240MOL   H11148389   5.424   0.476   5.316 -0.0886 -0.4775 -2.4109
  240MOL   C11248390   5.560   0.500   5.177 -0.0846 -0.2948  1.0511
  240MOL   O11348391   5.679   0.516   5.140  0.6178  0.5466 -0.8149
  240MOL   C11448392   5.453   0.505   5.067  0.5012 -0.0221 -0.0533
  240MOL   C11548393   5.453   0.630   4.984 -0.1063 -0.0165  0.0526
  240MOL   N11648394   5.428   0.755   5.062  0.5561 -0.2787  0.1137
  240MOL   H11748395   5.352   0.500   5.109 -0.5390  0.3324 -2.4387
  240MOL   H11848396   5.469   0.412   5.012 -0.6096  0.1345 -0.6594
  240MOL   H11948397   5.553   0.636   4.942 -0.1497  0.1259 -0.0315
  240MOL   H12048398   5.384   0.629   4.899 -0.7190 -0.4733  0.5505
  240MOL   H12148399   5.506   0.819   5.069 -0.5134  1.1620 -0.9328
  240MOL   C12248400   5.310   0.805   5.089 -0.0440 -0.0235  0.7496
  240MOL   O12348401   5.206   0.740   5.083  0.0051  0.2606 -0.3063
  240MOL   C12448402   5.303   0.956   5.131 -0.1643  0.6720  0.0612
  240MOL   C12548403   5.319   1.045   5.004  0.0153  0.1527 -0.6449
  240MOL   N12648404   5.269   1.177   5.041 -0.0673 -0.1880 -0.3673
  240MOL   H12748405   5.381   0.966   5.206  1.4530  2.0685 -1.7541
  240MOL   H12848406   5.207   0.967   5.182 -2.1180 -0.6535 -3.1229
  240MOL   H12948407   5.427   1.042   4.986  0.3549  1.0134  1.0983
  240MOL   H13048408   5.278   1.001   4.913  2.1941  0.3594 -1.7752
  240MOL   H13148409   5.319   1.238   5.104  0.0340 -2.0952  1.4547
  240MOL   C13248410   5.174   1.245   4.977 -0.3835 -0.5896 -0.0919
  240MOL   O13348411   5.098   1.200   4.894  0.4741 -0.0436  0.1721
  240MOL   C13448412   5.163   1.391   5.014 -0.4854 -0.1090 -0.4980
  240MOL   C13548413   5.025   1.427   5.057  0.2290 -0.5644 -0.8358
  240MOL   N13648414   5.011   1.572   5.069 -0.3876 -0.7717  0.0071
  240MOL   H13748415   5.193   1.453   4.930  0.2926  0.2665  0.0475
  240MOL   H13848416   5.232   1.419   5.094 -0.8692 -0.9703  0.1482
  240MOL   H13948417   4.943   1.392   4.994 -1.1234  0.8807  0.0825
  240MOL   H14048418   5.007   1.386   5.157 -0.6205  2.3697  0.2535
  240MOL   H14148419   5.095   1.627   5.064 -1.6789  1.1613 -1.3218
  240MOL   C14248420   4.906   1.636   5.120 -0.4257  0.0818 -0.6532
  240MOL   O14348421   4.798   1.583   5.147  0.6670  0.2930  0.1459
  240MOL   C14448422   4.926   1.787   5.153 -0.5708 -0.6665 -0.2674
  240MOL   C14548423   4.830   1.879   5.088 -0.0843 -0.1159  0.8950
  240MOL   N14648424   4.888   2.014   5.097  0.2559  0.3680  0.1261
  240MOL   H14748425   5.026   1.808   5.115 -0.2199 -2.0942 -0.1833
  240MOL   H14848426   4.930   1.809   5.259 -0.7860 -2.9177  0.2411
  240MOL   H14948427   4.805   1.852   4.986  0.6043 -0.2292  0.7595
  240MOL   H15048428   4.737   1.888   5.144 -0.5471 -0.8191  0.2436
  240MOL   H15148429   4.932   2.038   5.185  0.1747 -0.1799  0.3162
  240MOL   C15248430   4.876   2.117   5.013 -0.4276 -0.5436 -0.0353
  240MOL   O15348431   4.816   2.109   4.905 -0.2526 -0.7963 -0.5151
  240MOL   C15448432   4.933   2.247   5.069 -0.0173  0.2695 -0.2949
  240MOL   C15548433   4.967   2.349   4.956 -0.1939  0.3431 -0.2093
  240MOL   N15648434   5.004   2.481   5.004 -0.1877  0.4818 -0.6206
  240MOL   H15748435   5.032   2.227   5.108 -0.6904  0.4666  1.5394
  240MOL   H15848436   4.862   2.279   5.146  0.1018  0.5065 -0.2821
  240MOL   H15948437   5.054   2.311   4.902  0.4291 -2.1556  2.4370
  240MOL   H16048438   4.880   2.364   4.893 -1.4988  1.2107  1.7290
  240MOL   H16148439   4.945   2.513   5.080  1.8560 -0.2902  1.3551
  240MOL   C16248440   5.094   2.562   4.951 -0.1881 -1.0666 -0.2051
  240MOL   O16348441   5.163   2.526   4.854 -0.9525 -0.2642  0.4492
  240MOL   C16448442   5.116   2.696   5.026  1.0908  0.2318  0.5121
  240MOL   C16548443   5.238   2.778   4.990 -0.0397  0.4710 -0.1523
  240MOL   N16648444   5.245   2.898   5.077 -0.7742 -0.1276 -0.1886
  240MOL   H16748445   5.128   2.691   5.134  0.7708 -0.0113  0.5370
  240MOL   H16848446   5.028   2.758   5.016  0.6064 -0.5406 -0.0486
  240MOL   H16948447   5.326   2.716   5.004  0.6949  1.3834 -0.6882
  240MOL   H17048448   5.231   2.803   4.884  0.1152 -0.9422 -0.5046
  240MOL   H17148449   5.196   2.898   5.165 -2.0895 -0.4301 -0.8949
  240MOL   C17248450   5.338   2.990   5.058  0.4665 -0.0281  0.5214
  240MOL   O17348451   5.414   2.988   4.962  0.3366  0.3583 -0.0511
  240MOL   C17448452   5.339   3.107   5.151 -0.9868  1.2241  0.5426
  240MOL   C17548453   5.242   3.221   5.106 -0.1153 -0.1858  0.2864
  240MOL   N17648454   5.162   3.268   5.212  0.5226 -0.0693 -0.4735
  240MOL   H17748455   5.441   3.141   5.163 -1.2526  2.0991  0.3334
  240MOL   H17848456   5.302   3.069   5.247 -0.3758 -0.4585  0.1246
  240MOL   H17948457   5.302   3.301   5.061 -0.4354 -0.0202  0.1481
  240MOL   H18048458   5.176   3.188   5.026 -0.3055  3.6327 -1.2612
  240MOL   H18148459   5.178   3.362   5.245  0.2701  0.4815 -1.8889
  240MOL   C18248460   5.065   3.203   5.273  0.3489 -0.1790 -0.1776
  240MOL   O18348461   5.035   3.085   5.253 -0.5518 -0.4345 -0.0122
  240MOL   C18448462   4.999   3.282   5.391 -0.2018  0.3480 -0.3129
  240MOL   C18548463   4.853   3.238   5.406  0.3625 -0.4794  0.6828
  240MOL   N18648464   4.766   3.307   5.309  0.3301  0.0664  0.1415
  240MOL   H18748465   4.994   3.390   5.376 -0.1596  0.1988 -1.4676
  240MOL   H18848466   5.040   3.269   5.491 -0.6153  1.4486  0.0068
  240MOL   H18948467   4.837   3.133   5.383  0.1859 -0.6247  1.4589
  240MOL   H19048468   4.818   3.256   5.508 -0.7461 -1.3189  0.4570
  240MOL   H19148469   4.759   3.407   5.312  0.2626  0.0589  0.2386
  240MOL   C19248470   4.689   3.242   5.216 -0.0842  0.1044 -0.2750
  240MOL   O19348471   4.659   3.121   5.207  0.5623 -0.0884 -0.5485
  240MOL   C19448472   4.621   3.344   5.115 -0.4960  0.3719 -0.8608
  240MOL   C19548473   4.560   3.264   4.992 -0.0752  0.1717 -0.7740
  240MOL   N19648474   4.507   3.348   4.890  0.0551  0.4658 -0.2023
  240MOL   H19748475   4.544   3.398   5.171 -1.3447 -1.9759  0.3019
  240MOL   H19848476   4.692   3.419   5.081 -1.0922  0.6143 -1.5777
  240MOL   H19948477   4.633   3.206   4.936  0.5854 -0.3975  0.6410
  240MOL   H20048478   4.480   3.201   5.032 -0.2267 -0.0373 -1.4023
  240MOL   H20148479   4.564   3.430   4.877 -3.8088  3.6602  1.9343
  240MOL   H20248480   4.522   3.304   4.801  4.4366 -0.1994  0.7115
  241MOL     C148481   2.153   2.347   0.269  0.0926 -0.4560 -0.0293
  241MOL     O248482   2.203   2.398   0.166 -0.3824 -0.0345  0.0278
  241MOL     C348483   2.074   2.219   0.273 -0.1873 -0.3826  0.1285
  241MOL     C448484   1.988   2.194   0.151  0.7931  0.3087  0.9992
  241MOL     N548485   1.907   2.071   0.173 -0.0719  0.0622 -0.2059
  241MOL     H648486   2.013   2.220   0.363  0.3026  2.4472  0.4636
  241MOL     H748487   2.147   2.140   0.291 -1.6223 -1.3612  1.7186
  241MOL     H848488   2.055   2.175   0.068 -0.8762  2.2066 -0.8430
  241MOL     H948489   1.935   2.287   0.131 -1.5551 -1.7237 -2.9386
  241MOL    H1048490   1.817   2.082   0.218  0.2328 -2.4064  1.1358
  241MOL    H1148491   2.161   2.394   0.368 -0.6050  0.1045 -0.2336
  241MOL    C1248492   1.938   1.950   0.135 -0.3003 -0.1432  0.9290
  241MOL    O1348493   2.038   1.927   0.067 -0.3192 -0.1126  0.0690
  241MOL    C1448494   1.843   1.838   0.180  0.1928  0.8863 -0.3711
  241MOL    C1548495   1.704   1.849   0.111 -0.8446 -0.2196 -0.4220
  241MOL    N1648496   1.704   1.854   7.750 -0.1991  0.1183  0.0055
  241MOL    H1748497   1.829   1.836   0.288 -3.7134 -0.0286 -0.8381
  241MOL    H1848498   1.889   1.745   0.147  0.6247  0.4341  1.4794
  241MOL    H1948499   1.650   1.758   0.138  0.5551 -1.0915 -0.4829
  241MOL    H2048500   1.653   1.937   0.150  1.9639  0.7729  1.1826
  241MOL    H2148501   1.666   1.934   7.701  0.3067  0.2151 -0.2369
  241MOL    C2248502   1.743   1.756   7.667 -0.3670 -0.0946 -0.2289
  241MOL    O2348503   1.796   1.650   7.701 -0.1899 -0.0558 -0.1269
  241MOL    C2448504   1.710   1.788   7.521  0.0672  0.0103  0.0061
  241MOL    C2548505   1.737   1.674   7.420 -0.5820  0.0475 -0.4524
  241MOL    N2648506   1.620   1.586   7.410  0.3601  1.2271 -0.6223
  241MOL    H2748507   1.774   1.870   7.488  1.7913 -0.9262  0.9261
  241MOL    H2848508   1.606   1.818   7.508  0.3468  1.3568  0.7779
  241MOL    H2948509   1.771   1.708   7.323 -0.6234  2.0423  0.2099
  241MOL    H3048510   1.818   1.607   7.451 -0.1056  1.5963  1.8336
  241MOL    H3148511   1.596   1.538   7.496 -0.3269  0.0094 -1.4799
  241MOL    C3248512   1.535   1.595   7.302  0.8762 -0.2871  0.4369
  241MOL    O3348513   1.567   1.663   7.201 -0.3421  0.2482 -0.4023
  241MOL    C3448514   1.395   1.527   7.312  0.2832  0.2011  0.6045
  241MOL    C3548515   1.289   1.627   7.264 -0.2598  0.1339  0.0681
  241MOL    N3648516   1.271   1.737   7.358 -0.2291 -0.9469 -0.3842
  241MOL    H3748517   1.364   1.483   7.406 -1.3859  1.5541  0.7183
  241MOL    H3848518   1.400   1.439   7.247  1.7074 -1.5853  3.0532
  241MOL    H3948519   1.314   1.672   7.167 -0.7324 -0.1658 -0.1974
  241MOL    H4048520   1.195   1.581   7.233 -0.0727 -0.8822  0.9990
  241MOL    H4148521   1.358   1.788   7.360 -1.2089  0.7881 -1.3098
  241MOL    C4248522   1.169   1.752   7.447  0.8320  0.1557  0.1435
  241MOL    O4348523   1.074   1.672   7.451  0.4401 -0.0884  0.1267
  241MOL    C4448524   1.156   1.877   7.529 -0.0258  0.2090  0.1952
  241MOL    C4548525   1.178   2.006   7.446 -0.0153 -0.1268  0.3707
  241MOL    N4648526   1.062   2.048   7.356 -0.9405 -0.2493 -0.1275
  241MOL    H4748527   1.061   1.884   7.581 -0.2263  0.9740 -0.2707
  241MOL    H4848528   1.227   1.884   7.612  0.7857  1.9853 -0.6260
  241MOL    H4948529   1.194   2.087   7.518 -0.5789 -0.0507  0.4084
  241MOL    H5048530   1.273   2.007   7.393  0.1667  1.6816  0.6926
  241MOL    H5148531   1.042   1.986   7.279 -1.5576 -0.8839  0.5384
  241MOL    C5248532   0.975   2.143   7.380 -0.4539 -0.2170  0.3740
  241MOL    O5348533   0.986   2.210   7.483 -0.4851  0.3307  0.8417
  241MOL    C5448534   0.859   2.169   7.286  0.0785  0.1491 -0.8737
  241MOL    C5548535   0.778   2.291   7.327 -0.2536  0.2759 -0.2501
  241MOL    N5648536   0.662   2.307   7.241 -0.0762  0.6541 -0.0644
  241MOL    H5748537   0.896   2.163   7.184  2.4713 -0.1418 -0.0347
  241MOL    H5848538   0.804   2.075   7.295  1.8227 -0.7592  0.8997
  241MOL    H5948539   0.844   2.377   7.317  0.0620 -0.1223 -1.7709
  241MOL    H6048540   0.743   2.296   7.430 -1.1199 -1.6663 -0.4314
  241MOL    H6148541   0.672   2.351   7.151 -0.1891 -1.7539 -1.2654
  241MOL    C6248542   0.538   2.264   7.280  0.2678  0.4974  0.3557
  241MOL    O6348543   0.520   2.214   7.396 -0.0930 -0.3131 -0.1976
  241MOL    C6448544   0.424   2.281   7.182 -0.0817 -0.5822 -0.2866
  241MOL    C6548545   0.325   2.394   7.232 -0.1735  0.1947 -0.0011
  241MOL    N6648546   0.259   2.356   7.356  0.1420 -0.4749  0.8131
  241MOL    H6748547   0.465   2.304   7.083 -1.1323 -1.4967 -0.9437
  241MOL    H6848548   0.384   2.181   7.167 -2.4244  0.1484  0.9518
  241MOL    H6948549   0.392   2.470   7.274 -0.8865 -0.2545  2.0235
  241MOL    H7048550   0.258   2.421   7.151 -1.2841 -0.8571  0.5499
  241MOL    H7148551   0.313   2.317   7.432 -0.3551 -2.2375  0.2748
  241MOL    C7248552   0.127   2.349   7.377 -0.4307 -0.5516  0.5353
  241MOL    O7348553   0.049   2.387   7.291 -0.8438  0.3141  0.0209
  241MOL    C7448554   0.078   2.316   7.518  0.2783  0.3349 -0.3811
  241MOL    C7548555   0.023   2.169   7.526 -0.1490 -0.2343  0.0630
  241MOL    N7648556   0.089   2.086   7.624  0.5092 -0.3825  0.1432
  241MOL    H7748557   0.169   2.329   7.577  0.9297 -2.2648 -0.7873
  241MOL    H7848558   0.006   2.390   7.553 -0.9503 -1.4514  0.9202
  241MOL    H7948559   7.700   2.166   7.560 -0.5335  0.0194 -1.0530
  241MOL    H8048560   0.026   2.132   7.424  1.4582 -1.7511  0.6448
  241MOL    H8148561   0.036   2.043   7.698 -1.0353  0.1438 -0.6475
  241MOL    C8248562   0.220   2.051   7.621  0.4665  0.2623  0.1354
  241MOL    O8348563   0.295   2.106   7.543  0.3616  0.9439 -0.5084
  241MOL    C8448564   0.271   1.939   7.712  0.0053  0.3933 -0.0716
  241MOL    C8548565   0.411   1.971   7.772  0.0159  0.4498  0.0801
  241MOL    N8648566   0.409   1.995   0.134 -0.7196 -0.1651 -0.1057
  241MOL    H8748567   0.200   1.932   0.014  0.7206 -0.5683  0.4802
  241MOL    H8848568   0.267   1.844   7.659 -1.6268  0.2694  0.2396
  241MOL    H8948569   0.492   1.900   7.757 -0.1678  0.0085  1.1325
  241MOL    H9048570   0.456   2.058   7.725  1.3146  0.3650  1.1372
  241MOL    H9148571   0.463   1.938   0.198  1.7920  3.2588  0.9779
  241MOL    C9248572   0.367   2.112   0.194  0.2304  0.3179 -0.4193
  241MOL    O9348573   0.300   2.195   0.133  0.8069  0.0535  0.1756
  241MOL    C9448574   0.401   2.129   0.342 -0.0257 -0.1341  0.6591
  241MOL    C9548575   0.477   2.261   0.364  1.0396 -0.1049 -0.3076
  241MOL    N9648576   0.618   2.253   0.362 -1.0977 -0.4871  0.3307
  241MOL    H9748577   0.303   2.136   0.391 -0.1687  2.9453  0.0505
  241MOL    H9848578   0.446   2.040   0.386 -0.5810 -0.8692 -0.2398
  241MOL    H9948579   0.429   2.342   0.309  0.7175 -0.0014  0.1162
  241MOL   H10048580   0.455   2.301   0.464 -1.0814  0.4369 -0.9653
  241MOL   H10148581   0.672   2.292   0.286  0.6449 -2.7934  0.3226
  241MOL   C10248582   0.705   2.203   0.451  0.4110  0.3576 -0.4346
  241MOL   O10348583   0.670   2.139   0.552  0.4146 -0.0469  0.0921
  241MOL   C10448584   0.853   2.212   0.413 -0.0359 -0.3548  0.1653
  241MOL   C10548585   0.918   2.337   0.480 -0.4445 -0.1703 -0.7441
  241MOL   N10648586   0.864   2.472   0.450 -0.8571 -0.2615  0.1948
  241MOL   H10748587   0.864   2.218   0.305 -2.8677 -2.9684 -0.3220
  241MOL   H10848588   0.899   2.118   0.444 -1.9406 -0.7844  1.7522
  241MOL   H10948589   0.908   2.327   0.588  1.3340  1.5892 -0.3938
  241MOL   H11048590   1.026   2.349   0.465 -0.3035 -1.6704 -1.0838
  241MOL   H11148591   0.848   2.520   0.537  0.9465 -0.9057  0.8923
  241MOL   C11248592   0.856   2.531   0.331 -0.0815 -0.2316 -0.2147
  241MOL   O11348593   0.900   2.483   0.229 -0.1466  0.3124  0.2169
  241MOL   C11448594   0.787   2.667   0.319 -0.3160 -0.1661 -0.3152
  241MOL   C11548595   0.673   2.662   0.215  0.0274 -0.4194  0.7748
  241MOL   N11648596   0.590   2.781   0.227 -0.2587  0.1122 -0.4793
  241MOL   H11748597   0.867   2.739   0.304 -0.3031  0.1721  1.2337
  241MOL   H11848598   0.733   2.697   0.409  0.9919  0.6255  0.2249
  241MOL   H11948599   0.714   2.653   0.114  2.4221  0.0134  1.6933
  241MOL   H12048600   0.607   2.575   0.227 -1.2804  0.6368  1.4077
  241MOL   H12148601   0.526   2.785   0.306 -1.4796  2.3980 -1.5455
  241MOL   C12248602   0.568   2.876   0.133 -0.1515  0.2298 -0.3886
  241MOL   O12348603   0.643   2.890   0.034  0.2954 -0.4456 -0.4180
  241MOL   C12448604   0.447   2.963   0.148  0.0801 -0.1999  0.2093
  241MOL   C12548605   0.383   2.984   0.005  0.2847 -0.3117 -0.3868
  241MOL   N12648606   0.371   3.127   7.760  0.3188 -0.0580  0.2826
  241MOL   H12748607   0.484   3.054   0.195 -1.5593  0.0938  0.9923
  241MOL   H12848608   0.369   2.928   0.216 -1.8610  1.4545 -1.0806
  241MOL   H12948609   0.434   2.938   7.700 -0.1599 -0.3415 -0.6401
  241MOL   H13048610   0.282   2.943   0.007 -0.8162  2.2726 -0.9754
  241MOL   H13148611   0.386   3.194   0.054  1.1422 -1.0000  0.9872
  241MOL   C13248612   0.369   3.182   7.637 -0.1094 -1.0173 -0.2521
  241MOL   O13348613   0.369   3.124   7.534 -0.1291  0.2189 -0.0730
  241MOL   C13448614   0.355   3.334   7.644  0.4469 -0.4510 -0.1021
  241MOL   C13548615   0.485   3.414   7.619  0.2895 -0.7565 -0.8411
  241MOL   N13648616   0.540   3.404   7.487 -0.4287  0.2319  0.7623
  241MOL   H13748617   0.317   3.357   7.744  0.5726 -2.5440  0.4662
  241MOL   H13848618   0.277   3.374   7.580  1.0359 -1.9193 -1.7706
  241MOL   H13948619   0.462   3.516   7.648  3.0038 -0.8241  1.8006
  241MOL   H14048620   0.565   3.391   7.690 -1.7361  2.0287  2.5033
  241MOL   H14148621   0.481   3.448   7.417 -0.2330 -0.9363 -0.1717
  241MOL   C14248622   0.650   3.343   7.448  0.1007  0.1099  0.1600
  241MOL   O14348623   0.725   3.291   7.528  0.2696 -0.4273 -0.4278
  241MOL   C14448624   0.675   3.329   7.298  0.0218  0.1554  0.7739
  241MOL   C14548625   0.815   3.295   7.247 -0.4755 -0.1386  0.3405
  241MOL   N14648626   0.892   3.416   7.202  0.3838 -0.3715  0.0622
  241MOL   H14748627   0.637   3.418   7.247 -2.1609 -0.1203  1.8845
  241MOL   H14848628   0.614   3.248   7.258 -2.0269  2.6199 -1.3211
  241MOL   H14948629   0.863   3.229   7.318 -1.6577 -3.0793 -1.5172
  241MOL   H15048630   0.811   3.241   7.152  1.6925  0.5953 -0.1976
  241MOL   H15148631   0.858   3.464   7.120  2.0090 -1.3451 -1.2266
  241MOL   C15248632   1.012   3.444   7.254  0.2477  0.2045  0.2426
  241MOL   O15348633   1.071   3.368   7.334  0.5038 -0.5379  0.7578
  241MOL   C15448634   1.080   3.577   7.222 -0.6418  0.0267  0.3729
  241MOL   C15548635   1.237   3.574   7.215  0.5713 -0.0257  0.1832
  241MOL   N15648636   1.288   3.518   7.089 -0.0848  0.6940  0.1377
  241MOL   H15748637   1.045   3.643   7.302 -1.1366  2.5732 -1.8597
  241MOL   H15848638   1.032   3.620   7.133  0.5041  0.9635  0.1958
  241MOL   H15948639   1.274   3.675   7.230 -0.1915  0.1968  0.5805
  241MOL   H16048640   1.267   3.514   7.301  0.1593  0.1835  0.4776
  241MOL   H16148641   1.326   3.425   7.090 -1.3026  0.1859 -0.1827
  241MOL   C16248642   1.280   3.571   6.968  0.7736  0.1888  0.1568
  241MOL   O16348643   1.222   3.671   6.949  0.0346 -0.0066 -0.1143
  241MOL   C16448644   1.347   3.492   6.859 -0.4616 -0.1466  0.8853
  241MOL   C16548645   1.257   3.442   6.742  0.1431  0.1513 -0.5973
  241MOL   N16648646   1.181   3.322   6.781  0.1086  0.1762 -0.0241
  241MOL   H16748647   1.390   3.404   6.906 -0.3858 -0.7427 -0.2860
  241MOL   H16848648   1.432   3.545   6.819  1.6928 -3.4574  0.8701
  241MOL   H16948649   1.181   3.517   6.721  0.9163  0.1495 -3.4995
  241MOL   H17048650   1.298   3.426   6.642 -1.0078  2.2994 -1.4269
  241MOL   H17148651   1.230   3.241   6.746  0.2562  0.0594  0.4422
  241MOL   C17248652   1.066   3.319   6.844  0.0059  0.8163 -0.3908
  241MOL   O17348653   0.996   3.418   6.864  0.6338  0.0402 -0.4558
  241MOL   C17448654   1.016   3.183   6.902 -0.1592  0.0497  0.0109
  241MOL   C17548655   1.081   3.152   7.039  0.0309 -0.3745  0.4299
  241MOL   N17648656   1.201   3.065   7.030 -0.2807 -0.3892 -0.2376
  241MOL   H17748657   1.023   3.099   6.833  0.6102 -0.0567  0.2127
  241MOL   H17848658   0.910   3.201   6.921  0.6352  1.9962  2.8402
  241MOL   H17948659   1.100   3.245   7.091  0.9090 -2.0342  3.2071
  241MOL   H18048660   1.002   3.097   7.090 -1.1893  0.8446 -0.1089
  241MOL   H18148661   1.178   2.974   6.992 -0.0261 -0.8585  0.7178
  241MOL   C18248662   1.326   3.107   7.056 -0.4819  0.1828 -0.1122
  241MOL   O18348663   1.361   3.219   7.089 -0.6422 -0.1701 -0.9757
  241MOL   C18448664   1.430   2.997   7.030 -0.3047  0.0503  0.7069
  241MOL   C18548665   1.428   2.880   7.138 -0.2681  0.3344  0.4300
  241MOL   N18648666   1.437   2.919   7.276 -0.8045  0.1176 -0.2319
  241MOL   H18748667   1.525   3.050   7.034 -0.3948  0.1676  1.4551
  241MOL   H18848668   1.434   2.962   6.927  2.5355 -0.9977  1.1309
  241MOL   H18948669   1.344   2.812   7.127  1.3535 -1.5622 -0.6375
  241MOL   H19048670   1.511   2.810   7.124  0.4502  1.2908 -0.1928
  241MOL   H19148671   1.359   2.964   7.321 -2.2650 -3.3338  0.8784
  241MOL   C19248672   1.554   2.926   7.344 -0.1788  0.0950  0.2836
  241MOL   O19348673   1.663   2.943   7.294  0.0022  0.2481  0.2535
  241MOL   C19448674   1.545   2.929   7.496  0.5971  0.9927 -0.0087
  241MOL   C19548675   1.511   2.799   7.567 -0.3972 -0.1217 -0.1029
  241MOL   N19648676   1.625   2.716   7.590  0.7245  0.0414  0.3985
  241MOL   H19748677   1.640   2.971   7.530 -0.2573  1.4226  1.8941
  241MOL   H19848678   1.462   2.994   7.522  0.9709  1.0181  1.1837
  241MOL   H19948679   1.466   2.812   7.665 -2.2444  0.1998 -0.9822
  241MOL   H20048680   1.438   2.745   7.508  0.5173  0.8702 -2.1968
  241MOL   H20148681   1.637   2.649   7.516 -0.1236 -0.4613  0.7117
  241MOL   H20248682   1.591   2.658   7.665 -0.8864 -0.1805 -0.4752
  242MOL     C148683   1.174   0.773   3.846 -0.0618  0.1500 -0.8547
  242MOL     O248684   1.177   0.668   3.778  1.2718 -0.1731 -0.4718
  242MOL     C348685   1.281   0.774   3.961 -0.2275 -0.3504  0.1362
  242MOL     C448686   1.404   0.861   3.940  0.1495 -0.3938  0.1942
  242MOL     N548687   1.480   0.909   4.060 -0.0648 -0.0901  0.5472
  242MOL     H648688   1.309   0.669   3.970 -1.3279 -0.7232 -0.8001
  242MOL     H748689   1.217   0.820   4.037  2.2184  3.6778 -0.0865
  242MOL     H848690   1.371   0.948   3.883  0.1939 -0.7322 -0.3517
  242MOL     H948691   1.481   0.822   3.874 -1.5632 -1.9507 -0.9406
  242MOL    H1048692   1.510   0.841   4.129 -0.9201 -0.1346  0.8861
  242MOL    H1148693   1.113   0.863   3.831  1.6514  1.2874 -1.1440
  242MOL    C1248694   1.523   1.037   4.074  0.1491  0.3413 -0.3421
  242MOL    O1348695   1.478   1.132   4.014  0.0069  0.6384  0.2013
  242MOL    C1448696   1.630   1.063   4.182 -0.1424  0.1980  0.2600
  242MOL    C1548697   1.570   1.099   4.322 -0.1763  0.3554  0.4209
  242MOL    N1648698   1.675   1.121   4.424  0.7410  0.5027  0.1275
  242MOL    H1748699   1.698   1.145   4.156  0.8285 -1.1001 -1.4089
  242MOL    H1848700   1.691   0.973   4.182  0.1897  0.4200  0.5958
  242MOL    H1948701   1.504   1.185   4.311 -1.3745 -0.4333  1.3472
  242MOL    H2048702   1.502   1.017   4.345  0.0436  0.0960  0.1502
  242MOL    H2148703   1.689   1.063   4.505  0.9350  3.6763  2.4695
  242MOL    C2248704   1.743   1.240   4.429 -0.5752 -0.2016  0.5476
  242MOL    O2348705   1.745   1.323   4.332  0.3030  0.2297 -0.2687
  242MOL    C2448706   1.833   1.252   4.552  0.3157 -0.4924 -0.1075
  242MOL    C2548707   1.866   1.395   4.610 -0.6412  0.3341 -0.1544
  242MOL    N2648708   1.750   1.489   4.625  0.7695  0.3783 -0.3145
  242MOL    H2748709   1.922   1.196   4.523 -1.0569 -1.1006 -3.3587
  242MOL    H2848710   1.785   1.205   4.638  1.1882 -1.1439  0.0356
  242MOL    H2948711   1.917   1.387   4.706 -1.3099 -0.1195  0.1716
  242MOL    H3048712   1.956   1.426   4.557 -1.5127 -2.2164 -3.2892
  242MOL    H3148713   1.671   1.454   4.572  0.9785  0.2073 -0.5106
  242MOL    C3248714   1.738   1.602   4.697 -0.2923  0.3268  0.3936
  242MOL    O3348715   1.827   1.635   4.775 -0.2679  0.9276  0.1125
  242MOL    C3448716   1.607   1.685   4.688 -0.1898  0.6274  0.0545
  242MOL    C3548717   1.597   1.800   4.786 -1.1975  0.0675 -0.1488
  242MOL    N3648718   1.634   1.762   4.926  0.5525  0.0889 -0.0493
  242MOL    H3748719   1.529   1.611   4.706 -1.0171  1.1025 -1.5436
  242MOL    H3848720   1.596   1.720   4.586  0.8928  0.9913  0.0612
  242MOL    H3948721   1.659   1.883   4.753 -2.5015  0.8897 -0.5586
  242MOL    H4048722   1.493   1.833   4.786 -1.1815  0.2508  2.6882
  242MOL    H4148723   1.723   1.718   4.944  0.5693  0.2453  0.2603
  242MOL    C4248724   1.559   1.780   5.037 -0.7335  0.2719 -0.0480
  242MOL    O4348725   1.444   1.826   5.027 -0.2718  0.7715  0.1192
  242MOL    C4448726   1.612   1.729   5.174 -0.0436 -0.3763  0.2020
  242MOL    C4548727   1.667   1.581   5.182 -0.6292 -0.6482 -0.3267
  242MOL    N4648728   1.780   1.554   5.094  0.1162 -0.1781 -0.0437
  242MOL    H4748729   1.683   1.803   5.212 -1.8539  0.7231  1.5598
  242MOL    H4848730   1.517   1.733   5.229 -1.5820  0.6749 -2.4402
  242MOL    H4948731   1.699   1.572   5.286  3.3943 -2.1078 -1.6057
  242MOL    H5048732   1.589   1.508   5.161  0.3055 -1.1645 -2.0689
  242MOL    H5148733   1.761   1.506   5.008 -0.1308  0.6980 -0.4807
  242MOL    C5248734   1.907   1.567   5.127 -0.4169  0.1135  0.7652
  242MOL    O5348735   1.942   1.619   5.230 -0.4482 -0.2035 -0.5562
  242MOL    C5448736   2.027   1.531   5.039  0.4763 -0.3538  0.1054
  242MOL    C5548737   2.155   1.484   5.110  0.6633 -0.4656  0.2193
  242MOL    N5648738   2.231   1.582   5.190 -0.1277  0.7847 -0.0027
  242MOL    H5748739   1.983   1.461   4.967  0.9562  0.0533 -0.5932
  242MOL    H5848740   2.048   1.614   4.972 -0.0936 -0.0796  0.2664
  242MOL    H5948741   2.230   1.446   5.041  1.6612 -0.1830  1.1317
  242MOL    H6048742   2.128   1.402   5.176  1.0420  0.8103  1.9953
  242MOL    H6148743   2.179   1.666   5.213  1.1428  1.5047  0.3286
  242MOL    C6248744   2.341   1.550   5.254  0.2249  0.1484 -0.0274
  242MOL    O6348745   2.392   1.437   5.247 -0.5442  0.1187 -0.2159
  242MOL    C6448746   2.406   1.650   5.346  0.7615  0.0544  0.5550
  242MOL    C6548747   2.557   1.643   5.377 -0.0563  0.0791 -0.4556
  242MOL    N6648748   2.581   1.566   5.505 -0.0066 -0.7638 -0.5308
  242MOL    H6748749   2.390   1.741   5.288 -0.6725 -1.2524 -1.1879
  242MOL    H6848750   2.346   1.672   5.434 -1.3105  0.5532 -0.9204
  242MOL    H6948751   2.608   1.606   5.288 -1.6839 -2.2808 -0.4686
  242MOL    H7048752   2.599   1.741   5.401 -0.3214 -0.2122  1.3090
  242MOL    H7148753   2.502   1.518   5.545 -1.4453  1.2545 -0.8633
  242MOL    C7248754   2.705   1.534   5.556  0.3786  0.0505  0.0589
  242MOL    O7348755   2.802   1.580   5.500 -0.3414  0.2882 -0.1599
  242MOL    C7448756   2.711   1.429   5.662  0.0195  0.8488  0.4932
  242MOL    C7548757   2.791   1.477   5.777  0.2968  0.1769 -0.1269
  242MOL    N7648758   2.823   1.368   5.869  0.2284  0.3320  0.1363
  242MOL    H7748759   2.612   1.403   5.701 -0.3328  0.2974 -0.7343
  242MOL    H7848760   2.755   1.342   5.612  0.3054 -0.1121  2.3914
  242MOL    H7948761   2.883   1.519   5.739  1.4003 -0.9289  1.2748
  242MOL    H8048762   2.747   1.564   5.826  1.4645  0.2091  0.8785
  242MOL    H8148763   2.756   1.292   5.867  0.1555  0.4071 -0.2721
  242MOL    C8248764   2.904   1.382   5.971 -0.2672  0.0186 -0.4200
  242MOL    O8348765   2.969   1.480   5.978 -0.0104  0.1698  0.5003
  242MOL    C8448766   2.925   1.261   6.076 -0.7157  0.4189 -0.5466
  242MOL    C8548767   2.952   1.304   6.220  0.0207  0.0892 -0.0321
  242MOL    N8648768   2.832   1.333   6.304 -0.0159 -0.3669 -1.0298
  242MOL    H8748769   2.844   1.188   6.082 -1.1014  0.9745  1.7515
  242MOL    H8848770   3.014   1.209   6.041 -0.0765  0.4937  0.9343
  242MOL    H8948771   3.031   1.238   6.256  1.6491  0.9251 -1.9971
  242MOL    H9048772   3.015   1.392   6.236  1.1801 -0.6251 -0.5988
  242MOL    H9148773   2.782   1.419   6.285  2.2175  1.3796  0.6333
  242MOL    C9248774   2.794   1.271   6.416  0.2572  0.2658 -0.0663
  242MOL    O9348775   2.867   1.184   6.463  0.0136  0.4768  0.3763
  242MOL    C9448776   2.667   1.319   6.486  0.3278  0.7221 -1.1947
  242MOL    C9548777   2.700   1.393   6.623  0.5958  0.0641  0.3710
  242MOL    N9648778   2.704   1.313   6.746 -0.1904  0.3923 -0.4110
  242MOL    H9748779   2.608   1.390   6.427  0.1294  1.5782  0.0252
  242MOL    H9848780   2.597   1.239   6.510 -0.2991  1.7599  0.4969
  242MOL    H9948781   2.800   1.436   6.621  0.4936  0.3185  0.6942
  242MOL   H10048782   2.632   1.474   6.650 -0.2061 -0.4725 -0.0114
  242MOL   H10148783   2.794   1.280   6.778 -0.9553  0.3987  1.8631
  242MOL   C10248784   2.594   1.275   6.812 -0.9315  0.1577 -0.0517
  242MOL   O10348785   2.481   1.305   6.772  0.0124 -0.0568 -0.4679
  242MOL   C10448786   2.608   1.209   6.947  0.4945 -0.2357  0.1256
  242MOL   C10548787   2.476   1.176   7.013 -0.0106 -0.0943  0.5191
  242MOL   N10648788   2.416   1.050   6.960 -0.7898  0.8957  0.0999
  242MOL   H10748789   2.675   1.265   7.012 -1.6978  1.4189  1.0127
  242MOL   H10848790   2.665   1.121   6.919 -1.7740 -1.0443 -2.1299
  242MOL   H10948791   2.493   1.150   7.118  2.7769 -1.8305 -0.2896
  242MOL   H11048792   2.410   1.262   7.006  0.0423 -0.2300 -2.3343
  242MOL   H11148793   2.451   1.009   6.875 -0.4090 -1.2682  1.2672
  242MOL   C11248794   2.301   0.992   7.004 -0.1030 -0.5405  0.1972
  242MOL   O11348795   2.232   1.026   7.099 -0.1090  0.2808 -0.4781
  242MOL   C11448796   2.255   0.886   6.913 -0.1668 -0.0969  0.6896
  242MOL   C11548797   2.093   0.890   6.887  0.2233 -0.2491 -0.1655
  242MOL   N11648798   2.017   0.839   7.004  0.2430  0.0705 -0.6540
  242MOL   H11748799   2.288   0.803   6.975 -0.3993 -0.6158  0.1208
  242MOL   H11848800   2.302   0.885   6.814 -2.6325  1.7249 -0.5647
  242MOL   H11948801   2.068   0.992   6.856  0.8857  0.1575  0.6340
  242MOL   H12048802   2.063   0.827   6.803 -1.5830  0.0663  0.2316
  242MOL   H12148803   1.952   0.901   7.052  0.7364 -0.7710  1.1432
  242MOL   C12248804   2.030   0.727   7.079 -0.7314 -0.3748 -0.3047
  242MOL   O12348805   2.102   0.630   7.050  0.2046  0.1730 -0.6377
  242MOL   C12448806   1.953   0.725   7.204 -0.4823 -0.4954 -0.3501
  242MOL   C12548807   1.980   0.841   7.303 -0.7654  0.4644 -0.0914
  242MOL   N12648808   2.124   0.879   7.317 -0.7115 -0.2912 -0.5482
  242MOL   H12748809   1.957   0.631   7.259 -1.2484  1.6576  3.5953
  242MOL   H12848810   1.845   0.729   7.186 -0.7018 -1.5328  0.6883
  242MOL   H12948811   1.916   0.926   7.279 -1.4296 -0.0248 -0.0608
  242MOL   H13048812   1.951   0.804   7.401  2.1842  1.2629  1.1511
  242MOL   H13148813   2.165   0.927   7.238 -1.6486  0.8121 -0.3756
  242MOL   C13248814   2.205   0.848   7.412  0.3362  0.2412  0.5013
  242MOL   O13348815   2.167   0.785   7.508  0.6112 -1.0688 -0.1532
  242MOL   C13448816   2.350   0.892   7.391  0.5889 -0.0084 -0.0972
  242MOL   C13548817   2.429   0.883   7.527  0.1189 -0.3002  0.8697
  242MOL   N13648818   2.568   0.870   7.502  0.3411  0.1697 -0.3612
  242MOL   H13748819   2.361   0.992   7.351  0.4628  1.0906  2.5018
  242MOL   H13848820   2.389   0.820   7.319  0.1182  0.0050 -0.3723
  242MOL   H13948821   2.410   0.974   7.584  1.3081 -0.2521  1.1883
  242MOL   H14048822   2.401   0.789   7.576 -0.4395 -0.4233  0.3278
  242MOL   H14148823   2.591   0.838   7.409  0.1863  0.8095 -0.6199
  242MOL   C14248824   2.659   0.889   7.593 -0.8527  0.0760  0.2702
  242MOL   O14348825   2.621   0.943   7.698 -0.2692  0.2593 -0.4212
  242MOL   C14448826   2.808   0.853   7.567 -0.3763  0.6219  0.3572
  242MOL   C14548827   2.873   0.767   7.677 -0.7341 -0.5757 -0.0740
  242MOL   N14648828   2.889   0.847   0.021 -0.0132 -0.2778 -0.3243
  242MOL   H14748829   2.864   0.947   7.564 -1.8269  1.5209  0.9710
  242MOL   H14848830   2.821   0.809   7.468  0.1161 -2.3042  1.6702
  242MOL   H14948831   2.829   0.667   7.684 -0.8906 -0.3309  3.3650
  242MOL   H15048832   2.972   0.740   7.642  0.8400  2.4126  1.8070
  242MOL   H15148833   2.822   0.922   0.029  0.6071  0.3882 -1.2161
  242MOL   C15248834   2.978   0.817   0.116  0.4427  0.4398  0.6058
  242MOL   O15348835   3.071   0.738   0.105  0.0276 -0.1110 -0.1126
  242MOL   C15448836   2.964   0.903   0.245  0.1077  0.3013  0.0476
  242MOL   C15548837   3.090   0.904   0.350  0.1213  0.0344 -0.7807
  242MOL   N15648838   3.097   0.779   0.425  0.4679  0.4430  0.1590
  242MOL   H15748839   2.866   0.873   0.280  0.9386 -2.7443 -0.0590
  242MOL   H15848840   2.944   1.004   0.211 -3.6811 -1.2463 -2.7118
  242MOL   H15948841   3.182   0.938   0.302  0.2884  0.6647 -0.0265
  242MOL   H16048842   3.073   0.990   0.415 -0.7478 -1.7301  1.4145
  242MOL   H16148843   3.125   0.694   0.379  0.5689  0.6533 -0.1718
  242MOL   C16248844   3.057   0.769   0.551  0.1001 -0.0803  0.5729
  242MOL   O16348845   3.014   0.864   0.622 -0.4360  0.2730 -0.2507
  242MOL   C16448846   3.087   0.640   0.622  0.8436 -0.0677  0.5676
  242MOL   C16548847   2.953   0.563   0.636 -0.0178 -0.0874 -0.0212
  242MOL   N16648848   2.973   0.420   0.642 -0.7188  0.9337 -0.2864
  242MOL   H16748849   3.134   0.654   0.719  0.5046 -0.7055  0.8274
  242MOL   H16848850   3.163   0.591   0.561 -0.8583 -2.4666  0.3022
  242MOL   H16948851   2.908   0.576   0.734 -2.0449  1.0438 -1.0789
  242MOL   H17048852   2.890   0.596   0.554 -0.4679  1.0046  0.7573
  242MOL   H17148853   2.920   0.377   0.716  0.0925 -1.5762 -1.1110
  242MOL   C17248854   3.022   0.345   0.543  0.1952  0.6640  0.5319
  242MOL   O17348855   3.065   0.395   0.433 -0.3774 -0.6320 -0.4961
  242MOL   C17448856   3.033   0.198   0.573 -0.8974  0.2075  0.0785
  242MOL   C17548857   3.180   0.154   0.600 -0.0847 -0.2236  0.1262
  242MOL   N17648858   3.214   0.142   0.745  0.1564 -0.4510 -0.3301
  242MOL   H17748859   3.001   0.136   0.489 -0.9987 -0.3649  0.5327
  242MOL   H17848860   2.965   0.176   0.655 -0.1774 -0.1135  0.5999
  242MOL   H17948861   3.199   0.065   0.540 -0.1835  0.3226 -0.7256
  242MOL   H18048862   3.241   0.233   0.557 -1.3253  0.3301 -0.6523
  242MOL   H18148863   3.278   0.210   0.783 -0.8700 -0.6023  1.7788
  242MOL   C18248864   3.178   0.049   0.835 -1.1605  0.1801  0.2106
  242MOL   O18348865   3.101   7.741   0.811 -0.5779  0.4635  0.2641
  242MOL   C18448866   3.235   0.063   0.974 -0.5501 -0.1543  0.0655
  242MOL   C18548867   3.143   0.130   1.072  0.6045 -0.2289  0.0513
  242MOL   N18648868   3.143   0.275   1.076 -0.7802 -0.1125  0.5233
  242MOL   H18748869   3.339   0.097   0.977 -0.5880 -0.0964  1.1621
  242MOL   H18848870   3.241   7.744   1.019  0.6971  0.1952  0.7084
  242MOL   H18948871   3.039   0.103   1.056  0.5971  0.6157 -1.4973
  242MOL   H19048872   3.164   0.099   1.174  1.5767 -0.5934 -0.2554
  242MOL   H19148873   3.217   0.313   1.134  1.0307 -1.0491 -1.1052
  242MOL   C19248874   3.054   0.362   1.018  0.3003  0.0085  0.2867
  242MOL   O19348875   2.965   0.315   0.942  0.3798 -0.4963 -0.1801
  242MOL   C19448876   3.078   0.510   1.056 -0.4494 -0.2075 -1.1513
  242MOL   C19548877   2.980   0.620   1.024 -0.0926 -0.6756  0.2877
  242MOL   N19648878   2.874   0.646   1.119 -0.4556  0.7976 -0.3523
  242MOL   H19748879   3.115   0.517   1.158  0.5716 -0.4894 -1.4938
  242MOL   H19848880   3.166   0.524   0.993  1.2972 -1.7703  0.8831
  242MOL   H19948881   3.034   0.714   1.013 -0.7115 -0.2878  0.5822
  242MOL   H20048882   2.931   0.602   0.928  0.1006 -0.4982  0.1543
  242MOL   H20148883   2.813   0.711   1.071 -0.0666  1.7356  0.4053
  242MOL   H20248884   2.912   0.710   1.188 -3.0734  0.0852  1.8858
  243MOL     C148885   5.324   2.329   5.827 -0.7649  0.4531  0.6761
  243MOL     O248886   5.210   2.356   5.785 -0.2162 -0.1866  0.4395
  243MOL     C348887   5.382   2.183   5.816 -0.0047  0.2072  0.0848
  243MOL     C448888   5.276   2.091   5.758 -0.4156  0.3302  0.1778
  243MOL     N548889   5.282   2.074   5.605  0.7537 -0.3541 -0.0042
  243MOL     H648890   5.420   2.153   5.914  1.0467  4.2761  0.9958
  243MOL     H748891   5.462   2.171   5.743  0.3700 -0.7684  0.6363
  243MOL     H848892   5.174   2.111   5.788 -0.0086  0.1351  1.7188
  243MOL     H948893   5.293   1.993   5.802 -1.6281  0.5524  1.1365
  243MOL    H1048894   5.311   2.149   5.545  0.5406  0.6798  1.1549
  243MOL    H1148895   5.391   2.386   5.891 -0.8122  0.9082  0.3264
  243MOL    C1248896   5.244   1.959   5.544  0.1804 -0.0372 -0.1094
  243MOL    O1348897   5.203   1.855   5.595 -0.3872 -0.0685  0.0725
  243MOL    C1448898   5.263   1.962   5.397 -0.4655  0.0167 -0.1173
  243MOL    C1548899   5.357   1.845   5.358 -0.8105 -0.0676 -0.1167
  243MOL    N1648900   5.403   1.865   5.220 -0.2888 -1.1702  0.0914
  243MOL    H1748901   5.308   2.056   5.365  0.4730 -0.8450 -1.3600
  243MOL    H1848902   5.171   1.974   5.340  0.1120  0.1977 -1.0323
  243MOL    H1948903   5.443   1.844   5.426  0.2246 -4.8202 -1.3396
  243MOL    H2048904   5.305   1.750   5.370  0.0815 -0.6329 -0.6726
  243MOL    H2148905   5.474   1.935   5.207 -2.1398  0.2723 -2.4413
  243MOL    C2248906   5.353   1.799   5.109  0.0901  0.3324 -0.3100
  243MOL    O2348907   5.265   1.713   5.114 -0.7188 -0.6187  0.2137
  243MOL    C2448908   5.426   1.831   4.973  0.9858  0.4640  0.4013
  243MOL    C2548909   5.327   1.823   4.861 -0.1979 -0.1629  0.6166
  243MOL    N2648910   5.268   1.950   4.833  0.1049  0.0691 -0.1422
  243MOL    H2748911   5.494   1.747   4.960  0.7538  0.0781  1.6334
  243MOL    H2848912   5.478   1.927   4.973 -1.6076  1.9117 -1.2318
  243MOL    H2948913   5.382   1.791   4.773  1.5154  0.2863  1.5018
  243MOL    H3048914   5.250   1.746   4.866 -0.5514  0.2651  2.0153
  243MOL    H3148915   5.292   2.023   4.899  0.8059 -0.5382  0.2828
  243MOL    C3248916   5.172   1.971   4.735 -0.4358  0.8835 -0.3196
  243MOL    O3348917   5.124   1.880   4.669  0.3984  0.2722 -0.5055
  243MOL    C3448918   5.119   2.118   4.723  0.8648  0.2177 -0.3584
  243MOL    C3548919   5.148   2.176   4.582  0.7513  0.6255  0.3869
  243MOL    N3648920   5.126   2.315   4.588 -0.1153  0.3974  0.6417
  243MOL    H3748921   5.157   2.178   4.806 -1.5914  2.5029 -0.8201
  243MOL    H3848922   5.012   2.105   4.736  0.9015 -0.3937 -0.6686
  243MOL    H3948923   5.253   2.154   4.561  1.0923  1.5121  1.0943
  243MOL    H4048924   5.088   2.126   4.507  1.3125 -0.2501  0.5068
  243MOL    H4148925   5.204   2.368   4.625  0.3658 -0.5637  1.0301
  243MOL    C4248926   5.024   2.381   4.539 -0.1107  0.7530  0.3153
  243MOL    O4348927   4.937   2.319   4.482  0.2531  0.9542 -0.2499
  243MOL    C4448928   5.014   2.529   4.537  0.1468  0.6335 -0.1027
  243MOL    C4548929   4.900   2.585   4.623  0.1176  0.1675  0.3946
  243MOL    N4648930   4.767   2.552   4.573  0.2547 -0.2391  0.4655
  243MOL    H4748931   5.110   2.564   4.575 -0.4664  0.5560  1.6041
  243MOL    H4848932   5.016   2.570   4.437 -0.9282  2.9459  0.7761
  243MOL    H4948933   4.924   2.551   4.724  1.6232 -1.3816 -0.4537
  243MOL    H5048934   4.925   2.690   4.633 -0.7095  0.3539  0.5436
  243MOL    H5148935   4.739   2.579   4.479 -1.7694 -1.4998  0.6887
  243MOL    C5248936   4.680   2.474   4.635 -0.3487  0.2075 -0.0260
  243MOL    O5348937   4.691   2.448   4.757  0.4788 -0.2768  0.1247
  243MOL    C5448938   4.557   2.431   4.548 -0.2055  0.2186 -0.3933
  243MOL    C5548939   4.446   2.379   4.644 -0.5874  0.3461 -0.3840
  243MOL    N5648940   4.327   2.342   4.571 -0.3832  0.3432 -0.0966
  243MOL    H5748941   4.517   2.502   4.475  0.6199  0.3154 -0.7646
  243MOL    H5848942   4.600   2.353   4.485  0.6930 -0.1633  0.6718
  243MOL    H5948943   4.422   2.451   4.723 -0.2452 -1.1114  1.0728
  243MOL    H6048944   4.480   2.288   4.693 -2.2270  0.1167  0.3561
  243MOL    H6148945   4.291   2.417   4.514 -0.2416 -0.3007 -1.0397
  243MOL    C6248946   4.263   2.219   4.569  0.0548 -0.4941  0.2001
  243MOL    O6348947   4.288   2.131   4.643 -0.4110  0.5724 -0.0082
  243MOL    C6448948   4.152   2.198   4.469  0.0830  0.0773  0.0786
  243MOL    C6548949   4.012   2.212   4.538 -0.0916 -0.4443  0.3272
  243MOL    N6648950   3.974   2.353   4.554  0.0835  0.8334 -0.3431
  243MOL    H6748951   4.166   2.271   4.390 -0.1737 -0.1889 -0.2118
  243MOL    H6848952   4.173   2.104   4.419  1.2471  1.6106 -2.3930
  243MOL    H6948953   3.938   2.154   4.482  0.3773  1.1649 -2.0175
  243MOL    H7048954   4.013   2.158   4.632 -2.2515 -1.5034 -0.2247
  243MOL    H7148955   4.040   2.428   4.541  1.0200  0.1224  0.2180
  243MOL    C7248956   3.856   2.393   4.608 -0.1196 -0.4282  0.1079
  243MOL    O7348957   3.763   2.317   4.643 -0.2768 -0.0515 -0.2931
  243MOL    C7448958   3.850   2.540   4.628  0.4114 -0.8027  0.2245
  243MOL    C7548959   3.801   2.586   4.767  0.2211 -0.2225 -0.7176
  243MOL    N7648960   3.915   2.618   4.856 -0.1640  0.4115 -0.0174
  243MOL    H7748961   3.944   2.586   4.599  0.0152  0.9310  1.6129
  243MOL    H7848962   3.781   2.584   4.555  2.2921  1.3268 -0.3323
  243MOL    H7948963   3.732   2.670   4.761 -0.2216 -0.3925  1.4219
  243MOL    H8048964   3.752   2.505   4.822  0.0494 -0.3380 -1.0390
  243MOL    H8148965   4.005   2.582   4.828  0.0857  1.9476 -1.2327
  243MOL    C8248966   3.908   2.699   4.960  0.4843 -0.1663  0.8801
  243MOL    O8348967   3.804   2.745   5.009 -0.2034  0.5622  0.4530
  243MOL    C8448968   4.042   2.735   5.020  0.2218 -0.0757 -0.1627
  243MOL    C8548969   4.072   2.644   5.149 -1.0220 -0.3007  0.0235
  243MOL    N8648970   4.145   2.528   5.108 -0.2993  0.1333  1.0330
  243MOL    H8748971   4.126   2.746   4.952  0.0557  0.9179 -0.2007
  243MOL    H8848972   4.029   2.839   5.050 -1.2313  0.0077 -1.0556
  243MOL    H8948973   4.128   2.688   5.232 -1.0059 -1.1782  0.4780
  243MOL    H9048974   3.979   2.616   5.199 -0.6497  0.8577  1.3901
  243MOL    H9148975   4.245   2.523   5.115 -0.3185 -1.3333  0.4391
  243MOL    C9248976   4.094   2.405   5.078  0.1872  0.1034  0.3919
  243MOL    O9348977   3.973   2.377   5.091 -0.0678 -0.0998  0.1308
  243MOL    C9448978   4.195   2.298   5.038  0.1373 -1.3075  0.9622
  243MOL    C9548979   4.127   2.183   4.959 -0.1843 -0.5961  0.0848
  243MOL    N9648980   4.217   2.079   4.912  0.1705  0.3398  0.3109
  243MOL    H9748981   4.273   2.348   4.981 -2.2955  1.7865  0.2356
  243MOL    H9848982   4.245   2.275   5.133  1.6464 -0.9106  0.2821
  243MOL    H9948983   4.050   2.139   5.022 -2.4869  0.9203 -1.5947
  243MOL   H10048984   4.072   2.220   4.873 -1.0338 -1.3877  0.2814
  243MOL   H10148985   4.247   2.079   4.815 -0.3049 -0.8290  0.1535
  243MOL   C10248986   4.295   1.999   4.986  0.2933 -0.3747  0.1781
  243MOL   O10348987   4.305   2.014   5.108 -0.2685 -0.4407  0.2144
  243MOL   C10448988   4.373   1.888   4.905  0.7028  0.4808 -0.5620
  243MOL   C10548989   4.528   1.896   4.916 -0.2244 -0.0896  0.2319
  243MOL   N10648990   4.587   1.981   4.815  0.7269 -0.0769 -0.0233
  243MOL   H10748991   4.339   1.889   4.802 -0.2031 -0.4140 -0.2837
  243MOL   H10848992   4.337   1.798   4.956 -0.9471 -0.2838 -3.0427
  243MOL   H10948993   4.556   1.921   5.018  0.0915 -1.2837  0.4459
  243MOL   H11048994   4.571   1.796   4.912  0.4899  0.1785  1.0061
  243MOL   H11148995   4.644   2.055   4.854  1.4452 -0.7549  0.1982
  243MOL   C11248996   4.600   1.951   4.686 -0.4545  0.1644  0.1714
  243MOL   O11348997   4.545   1.850   4.640  0.0820 -0.1470 -0.5587
  243MOL   C11448998   4.699   2.039   4.604 -0.1491  0.2779  0.2381
  243MOL   C11548999   4.658   2.041   4.455  0.6349 -0.1817  0.1497
  243MOL   N11649000   4.737   2.134   4.374 -0.0151 -0.4472 -0.4615
  243MOL   H11749001   4.802   2.005   4.612 -0.3465 -0.4678 -0.2816
  243MOL   H11849002   4.690   2.138   4.649 -1.9491  1.0690 -1.7849
  243MOL   H11949003   4.655   1.946   4.401  2.7022 -0.5929  0.7050
  243MOL   H12049004   4.556   2.078   4.452  0.5260  0.0148  3.6876
  243MOL   H12149005   4.807   2.189   4.422  0.3960 -1.8204  0.5207
  243MOL   C12249006   4.745   2.132   4.240  0.4391 -0.2439 -0.4423
  243MOL   O12349007   4.685   2.052   4.173 -0.2435  0.2858 -0.0380
  243MOL   C12449008   4.845   2.225   4.163  0.3431  0.0054 -0.4938
  243MOL   C12549009   4.931   2.156   4.052 -0.6940  0.3300 -0.3271
  243MOL   N12649010   5.001   2.037   4.093  0.2393  0.5006  0.0221
  243MOL   H12749011   4.906   2.269   4.241  0.2563 -2.0458  0.7603
  243MOL   H12849012   4.805   2.313   4.112 -1.1900 -0.0474  0.5758
  243MOL   H12949013   4.868   2.125   3.969  1.9277 -0.6058 -2.0394
  243MOL   H13049014   5.006   2.230   4.025 -2.4651  1.9387 -0.8617
  243MOL   H13149015   5.069   2.046   4.167 -1.0563  1.5442  1.1180
  243MOL   C13249016   4.995   1.921   4.027 -0.2680 -0.4382  1.1766
  243MOL   O13349017   4.916   1.902   3.932  0.4516 -0.2375 -0.6504
  243MOL   C13449018   5.064   1.807   4.092  0.2435 -0.2192 -0.1780
  243MOL   C13549019   5.097   1.687   3.992 -0.4505  0.2340 -0.1531
  243MOL   N13649020   5.228   1.627   4.021 -0.2434  0.2090  0.4122
  243MOL   H13749021   4.993   1.751   4.152  1.2814 -0.3495  0.9445
  243MOL   H13849022   5.144   1.841   4.157  0.8909 -2.5980  0.2890
  243MOL   H13949023   5.022   1.609   4.006  0.1954 -0.0174  2.2041
  243MOL   H14049024   5.089   1.722   3.889 -1.5317  0.7547  0.1017
  243MOL   H14149025   5.258   1.618   4.117  1.8594  0.5294 -0.2001
  243MOL   C14249026   5.325   1.607   3.926  0.8502  0.0148  0.4795
  243MOL   O14349027   5.316   1.628   3.803 -0.3813  0.3842 -0.1995
  243MOL   C14449028   5.457   1.553   3.994 -0.0225  0.6019 -0.1671
  243MOL   C14549029   5.583   1.535   3.906  0.0829  0.8364  0.9255
  243MOL   N14649030   5.608   1.653   3.823 -0.6209 -0.4842 -0.4880
  243MOL   H14749031   5.430   1.449   4.011 -0.3607  0.8675  0.9548
  243MOL   H14849032   5.489   1.593   4.090  1.7363 -1.2586  0.0543
  243MOL   H14949033   5.675   1.498   3.950  1.0797  0.7041 -1.2120
  243MOL   H15049034   5.562   1.457   3.833 -1.6256  3.1019 -1.0614
  243MOL   H15149035   5.525   1.692   3.780 -0.8883 -0.8674 -0.3197
  243MOL   C15249036   5.726   1.713   3.803  0.0222 -0.5442 -0.2357
  243MOL   O15349037   5.829   1.666   3.846 -0.2078 -0.3753 -0.3271
  243MOL   C15449038   5.729   1.842   3.719  0.0064  0.5051  0.2395
  243MOL   C15549039   5.756   1.982   3.794  0.1673 -0.8122  0.0388
  243MOL   N15649040   5.795   2.089   3.703  0.2141  0.0614  0.1235
  243MOL   H15749041   5.640   1.841   3.657  0.3243  0.6755 -0.2202
  243MOL   H15849042   5.815   1.823   3.655  0.1161  1.4559  0.0983
  243MOL   H15949043   5.688   2.003   3.876 -1.0156 -4.0134 -0.0182
  243MOL   H16049044   5.840   1.961   3.860  1.8270  0.8618 -1.4968
  243MOL   H16149045   5.827   2.055   3.614  3.2346  0.0991  1.1368
  243MOL   C16249046   5.793   2.222   3.726 -0.1368 -0.2796 -0.5077
  243MOL   O16349047   5.757   2.271   3.829 -0.1416  0.0772 -0.5376
  243MOL   C16449048   5.852   2.318   3.622  0.2171  0.4764 -0.5711
  243MOL   C16549049   5.983   2.397   3.668 -0.5373 -0.0412 -0.0660
  243MOL   N16649050   5.965   2.486   3.778  0.1371  0.1635 -0.4418
  243MOL   H16749051   5.778   2.387   3.582  1.1073  1.2093 -0.9729
  243MOL   H16849052   5.893   2.258   3.541 -2.4707  0.3498 -1.8920
  243MOL   H16949053   6.060   2.333   3.710 -2.4684 -0.9285  2.1894
  243MOL   H17049054   6.030   2.454   3.587  2.0348  0.0565  1.4527
  243MOL   H17149055   5.996   2.445   3.865  0.5797 -0.5552 -0.9448
  243MOL   C17249056   5.868   2.579   3.796 -0.1325  0.0832 -0.0861
  243MOL   O17349057   5.799   2.619   3.703  0.1712  0.0795  0.3760
  243MOL   C17449058   5.862   2.640   3.941  0.4436  0.1357  0.2928
  243MOL   C17549059   5.748   2.578   4.025 -0.3015  0.3268  0.0792
  243MOL   N17649060   5.792   2.444   4.062 -0.0698 -0.3565 -0.5179
  243MOL   H17749061   5.856   2.749   3.935 -0.9520 -0.0199 -1.5827
  243MOL   H17849062   5.961   2.630   3.984 -0.5060 -0.9282  2.3366
  243MOL   H17949063   5.723   2.635   4.115 -0.4464 -0.3170  0.4550
  243MOL   H18049064   5.660   2.570   3.962 -0.6548  0.4682  0.5497
  243MOL   H18149065   5.759   2.371   4.000 -1.2347 -1.4029  1.3129
  243MOL   C18249066   5.872   2.409   4.162 -0.5158 -0.3752 -0.2095
  243MOL   O18349067   5.933   2.497   4.223  1.3847 -0.0327 -0.1292
  243MOL   C18449068   5.899   2.263   4.193 -0.7402 -0.2955  0.0646
  243MOL   C18549069   5.918   2.228   4.342  0.5432  0.2105 -0.2092
  243MOL   N18649070   5.840   2.111   4.388  0.2552  0.1442  0.0098
  243MOL   H18749071   5.993   2.235   4.145 -1.7181  0.6295 -2.4954
  243MOL   H18849072   5.821   2.203   4.145 -0.5895 -0.5517  0.1388
  243MOL   H18949073   6.023   2.214   4.367  0.6351  0.6946 -0.3086
  243MOL   H19049074   5.892   2.309   4.411  0.3652 -1.7433  2.0735
  243MOL   H19149075   5.892   2.026   4.401 -0.0141 -0.3414 -1.9632
  243MOL   C19249076   5.709   2.101   4.404  0.5833  0.9994 -0.1263
  243MOL   O19349077   5.634   2.188   4.371  0.0542 -0.0856 -0.3515
  243MOL   C19449078   5.650   1.968   4.459  0.1674  0.1381 -0.7565
  243MOL   C19549079   5.572   1.977   4.596 -0.0660 -0.9437  0.6704
  243MOL   N19649080   5.658   2.009   4.715 -0.2954  0.1493 -0.4547
  243MOL   H19749081   5.578   1.929   4.387  0.2008  0.7244 -1.1068
  243MOL   H19849082   5.727   1.891   4.459  0.3087  0.2800 -0.7930
  243MOL   H19949083   5.489   2.047   4.588  1.6158  0.9653 -1.0499
  243MOL   H20049084   5.539   1.876   4.617 -2.0392 -0.4128  0.2276
  243MOL   H20149085   5.606   2.030   4.800  0.3450  0.0099 -0.0203
  243MOL   H20249086   5.724   2.085   4.714  0.5941 -0.5631  1.2517
  244MOL     C149087   7.009   7.655   4.952 -0.0990 -0.1165  0.0771
  244MOL     O249088   6.948   7.642   4.849 -0.1924  0.3540 -0.5771
  244MOL     C349089   7.137   7.588   4.986 -0.0898 -0.0972 -0.0532
  244MOL     C449090   7.215   7.534   4.867 -0.6921 -0.5030 -0.0989
  244MOL     N549091   7.267   7.622   4.759  0.4579 -0.3150  0.1950
  244MOL     H649092   7.103   7.506   5.050 -1.3378  1.3103  1.1029
  244MOL     H749093   7.203   7.652   5.045 -2.7686  2.9640 -0.2706
  244MOL     H849094   7.155   7.458   4.816  0.0054 -2.5574  2.0472
  244MOL     H949095   7.302   7.486   4.912  0.2815  2.2662  1.0916
  244MOL    H1049096   7.220   7.602   4.672 -1.5336  1.7147  0.7674
  244MOL    H1149097   6.977   7.733   5.021 -0.2171  1.4912 -1.7401
  244MOL    C1249098   7.382   7.692   4.765 -0.4303  0.2369  0.0181
  244MOL    O1349099   7.439   7.709   4.875  0.1377  0.5887  0.1489
  244MOL    C1449100   7.440   7.751   4.628 -0.8001 -0.3055 -0.6004
  244MOL    C1549101   7.571   0.053   4.648 -0.2367  0.0393 -0.4444
  244MOL    N1649102   7.642   0.083   4.529 -0.3066 -0.0172 -0.4496
  244MOL    H1749103   7.360   0.036   4.594 -1.2023  0.1189  1.0783
  244MOL    H1849104   7.449   7.669   4.558 -0.9617  0.2259 -1.2407
  244MOL    H1949105   7.544   0.144   4.701 -2.5510 -1.7668  1.6118
  244MOL    H2049106   7.633   7.775   4.717  0.5460 -1.0328 -2.0140
  244MOL    H2149107   7.737   0.048   4.526 -0.4400 -0.3483 -0.8244
  244MOL    C2249108   7.602   0.140   4.416 -0.1151  0.3494  0.4803
  244MOL    O2349109   7.488   0.183   4.416  0.0496 -0.3448 -0.0169
  244MOL    C2449110   7.686   0.136   4.286  0.9016  0.0882 -1.3298
  244MOL    C2549111   7.593   0.140   4.154  0.9543 -0.1382  0.5995
  244MOL    N2649112   7.657   0.093   4.031  0.3639  0.7103  0.3609
  244MOL    H2749113   7.727   0.035   4.295 -0.1177 -0.3438 -1.4526
  244MOL    H2849114   7.767   0.208   4.297  0.1988  0.6384  0.5681
  244MOL    H2949115   7.507   0.073   4.164 -0.2645  1.2253 -0.4438
  244MOL    H3049116   7.540   0.234   4.138 -1.9827 -1.8934 -0.4813
  244MOL    H3149117   7.621   0.012   3.983  0.2914  0.8195  0.2338
  244MOL    C3249118   7.759   0.156   3.975 -0.1859 -0.1022  0.2261
  244MOL    O3349119   0.021   0.263   4.021  0.1294  0.2095 -0.6461
  244MOL    C3449120   0.037   0.099   3.847 -0.3992  0.2576 -0.7384
  244MOL    C3549121   7.756   0.173   3.725 -0.1265  0.2537 -0.5807
  244MOL    N3649122   7.770   0.317   3.722  0.0881  0.0926  0.5699
  244MOL    H3749123   0.031   7.770   3.841  2.1255 -0.1239  2.3726
  244MOL    H3849124   0.144   0.118   3.841 -0.0587 -1.1848  0.4771
  244MOL    H3949125   7.771   0.115   3.634 -0.5112 -1.0033  0.1416
  244MOL    H4049126   7.649   0.169   3.747 -0.4401 -0.2042 -2.1758
  244MOL    H4149127   7.692   0.376   3.750 -0.6080  0.0638 -1.2424
  244MOL    C4249128   0.090   0.374   3.653 -0.2263 -0.2245 -0.1139
  244MOL    O4349129   0.179   0.307   3.604 -0.3082  0.0238  0.3161
  244MOL    C4449130   0.100   0.526   3.661 -0.1733  0.4310 -0.3472
  244MOL    C4549131   0.228   0.586   3.599  0.5852  0.2221  0.6374
  244MOL    N4649132   0.266   0.717   3.652  0.4035  0.0927  0.7577
  244MOL    H4749133   0.006   0.576   3.636 -2.0284 -2.9435 -0.3981
  244MOL    H4849134   0.096   0.548   3.767 -0.7260 -0.0973 -0.2544
  244MOL    H4949135   0.311   0.516   3.612 -0.2533 -0.8155  0.4217
  244MOL    H5049136   0.208   0.593   3.492  2.4480  0.0651  0.2574
  244MOL    H5149137   0.357   0.732   3.692  0.7586 -0.2004  0.0636
  244MOL    C5249138   0.196   0.829   3.639  0.0250 -1.0860 -0.2238
  244MOL    O5349139   0.092   0.838   3.576 -0.0245 -0.1662  0.7718
  244MOL    C5449140   0.254   0.952   3.714  0.0833 -0.5311  0.1062
  244MOL    C5549141   0.211   1.104   3.675 -0.0043 -0.3944  0.4184
  244MOL    N5649142   0.294   1.153   3.565 -0.0624 -0.1796 -0.2184
  244MOL    H5749143   0.221   0.940   3.817 -0.6675  1.0682  0.0651
  244MOL    H5849144   0.358   0.938   3.742 -0.0725 -0.6410  0.6439
  244MOL    H5949145   0.204   1.161   3.768  0.3444  0.8220 -0.2880
  244MOL    H6049146   0.106   1.095   3.647 -0.0727 -2.8789  1.3685
  244MOL    H6149147   0.367   1.094   3.527 -0.5322 -0.2229 -1.0435
  244MOL    C6249148   0.269   1.274   3.505  0.2006  0.1775 -0.3938
  244MOL    O6349149   0.175   1.339   3.548 -0.0450  0.3894  0.5988
  244MOL    C6449150   0.342   1.310   3.378  0.2697 -0.0588  0.1279
  244MOL    C6549151   0.490   1.261   3.374  0.4941 -0.2076  0.0172
  244MOL    N6649152   0.504   1.160   3.266  0.3420 -0.3540 -0.4195
  244MOL    H6749153   0.276   1.262   3.306  0.2159  3.1241 -2.0450
  244MOL    H6849154   0.331   1.415   3.353 -2.2373  0.0835  1.7247
  244MOL    H6949155   0.550   1.351   3.360 -0.5588  0.6891  1.0950
  244MOL    H7049156   0.529   1.222   3.468  0.6835  0.8116  0.3657
  244MOL    H7149157   0.492   1.192   3.170  1.1500  0.1302 -0.3592
  244MOL    C7249158   0.543   1.035   3.283 -0.7205 -0.0710  0.3245
  244MOL    O7349159   0.579   0.989   3.393  0.1986 -0.5799 -0.7025
  244MOL    C7449160   0.535   0.949   3.162  0.4230  0.0269 -0.2836
  244MOL    C7549161   0.683   0.918   3.101 -0.3950 -0.1772 -0.0001
  244MOL    N7649162   0.730   1.028   3.012  0.3428  0.1313  0.0468
  244MOL    H7749163   0.488   0.854   3.186 -0.4201  0.7016  0.8006
  244MOL    H7849164   0.472   0.999   3.088 -1.1961  0.0733  1.0948
  244MOL    H7949165   0.757   0.901   3.179  0.3894  1.1375 -0.4489
  244MOL    H8049166   0.682   0.824   3.045 -4.7316 -0.6088  0.6248
  244MOL    H8149167   0.759   1.108   3.068  1.3147  0.2650 -0.6385
  244MOL    C8249168   0.722   1.028   2.879  0.0029  0.2550 -0.3290
  244MOL    O8349169   0.691   0.930   2.814  0.6490 -0.0121 -0.4927
  244MOL    C8449170   0.734   1.161   2.812  0.1644 -0.1455 -0.3372
  244MOL    C8549171   0.624   1.266   2.860 -0.1207  0.2158  0.0963
  244MOL    N8649172   0.487   1.217   2.838  0.3095 -0.4560 -0.7958
  244MOL    H8749173   0.835   1.200   2.824  0.1193 -0.2795  0.5080
  244MOL    H8849174   0.714   1.146   2.706 -0.0258  0.5995 -0.4138
  244MOL    H8949175   0.651   1.285   2.964  0.0451 -2.7459  0.6355
  244MOL    H9049176   0.638   1.354   2.798  0.0345  0.6115  0.6910
  244MOL    H9149177   0.470   1.159   2.757  1.0724  0.9514 -1.9859
  244MOL    C9249178   0.382   1.238   2.922 -0.0042  0.2954  0.7522
  244MOL    O9349179   0.399   1.306   3.020 -0.5388 -0.4835 -0.5081
  244MOL    C9449180   0.243   1.174   2.885  0.2433 -0.1224  0.1768
  244MOL    C9549181   0.139   1.282   2.869 -0.0512  0.0682  0.6452
  244MOL    N9649182   0.075   1.289   2.737 -0.3996  0.4329 -0.7548
  244MOL    H9749183   0.250   1.108   2.798  1.0587 -0.2710  0.3482
  244MOL    H9849184   0.208   1.107   2.964 -2.1305  0.5878 -0.2517
  244MOL    H9949185   0.077   1.285   2.958 -1.4716 -1.5854 -0.2640
  244MOL   H10049186   0.200   1.370   2.887  0.6258 -0.2183 -0.2025
  244MOL   H10149187   0.067   1.201   2.687  0.5350 -0.6165  0.8995
  244MOL   C10249188   0.025   1.402   2.685 -0.8594 -0.1174 -0.1948
  244MOL   O10349189   0.063   1.509   2.733 -0.0770  0.0590  0.2126
  244MOL   C10449190   7.704   1.393   2.568  0.5247  0.3343 -0.1701
  244MOL   C10549191   7.598   1.511   2.573 -0.1860 -0.3347 -0.1387
  244MOL   N10649192   7.469   1.462   2.525 -0.3792 -0.1797 -0.4804
  244MOL   H10749193   7.660   1.293   2.576  3.6345 -1.1789 -0.8940
  244MOL   H10849194   7.752   1.398   2.470 -1.1721  0.5530 -1.0005
  244MOL   H10949195   7.589   1.534   2.679  0.8127  0.2959 -0.1809
  244MOL   H11049196   7.627   1.604   2.524 -0.7595 -0.0805  0.0054
  244MOL   H11149197   7.466   1.364   2.502  3.0521 -1.1784  2.8095
  244MOL   C11249198   7.370   1.542   2.498 -0.4631  0.5699  0.1250
  244MOL   O11349199   7.372   1.655   2.536 -0.1506 -0.5305 -0.4856
  244MOL   C11449200   7.245   1.479   2.428 -0.7245  0.7725  0.3673
  244MOL   C11549201   7.121   1.503   2.518  0.1652  0.2653  0.4994
  244MOL   N11649202   7.002   1.535   2.441 -0.1786  0.2117  0.5488
  244MOL   H11749203   7.262   1.372   2.415  0.2602  0.7687  1.5758
  244MOL   H11849204   7.234   1.511   2.325  0.8894 -3.1438 -1.1014
  244MOL   H11949205   7.103   1.415   2.579  1.6795  0.1089  0.7547
  244MOL   H12049206   7.145   1.583   2.588  1.4647  0.1798  0.1620
  244MOL   H12149207   7.005   1.544   2.341 -2.0037  0.7287  0.5199
  244MOL   C12249208   6.886   1.578   2.496 -0.3968  0.2378 -0.3817
  244MOL   O12349209   6.876   1.583   2.621  1.1879  0.0733  0.1409
  244MOL   C12449210   6.779   1.621   2.407 -0.3884 -0.5971  0.0477
  244MOL   C12549211   6.692   1.743   2.447  0.1707  1.1025  0.5986
  244MOL   N12649212   6.712   1.873   2.376  0.3063 -0.0482  0.3040
  244MOL   H12749213   6.717   1.533   2.385  1.5282 -1.8477 -0.5011
  244MOL   H12849214   6.828   1.639   2.311  0.2106 -0.3560  0.3997
  244MOL   H12949215   6.587   1.716   2.446  0.7527 -1.2417  0.4797
  244MOL   H13049216   6.722   1.780   2.546  3.7414  0.4621 -0.1929
  244MOL   H13149217   6.788   1.928   2.413 -0.2471  0.2625  0.9864
  244MOL   C13249218   6.641   1.919   2.273 -0.4848 -0.1393 -0.2434
  244MOL   O13349219   6.554   1.853   2.220  0.0973 -0.2415 -0.0256
  244MOL   C13449220   6.666   2.065   2.222 -0.8944 -0.6382  0.4901
  244MOL   C13549221   6.605   2.177   2.307 -0.7888  0.4998  0.2141
  244MOL   N13649222   6.635   2.303   2.242  0.0056  0.2454 -0.6280
  244MOL   H13749223   6.602   2.073   2.134 -0.5013  1.9960  0.4019
  244MOL   H13849224   6.766   2.086   2.186 -0.8888  0.7033  1.2575
  244MOL   H13949225   6.502   2.152   2.331 -0.4193  0.0409  1.3940
  244MOL   H14049226   6.651   2.166   2.406 -0.3613 -3.3002 -0.3516
  244MOL   H14149227   6.720   2.354   2.262 -0.1741  0.1824  0.3248
  244MOL   C14249228   6.560   2.348   2.146  0.7002  0.1853  0.0550
  244MOL   O14349229   6.462   2.291   2.102  0.5699  0.1613 -0.4918
  244MOL   C14449230   6.604   2.472   2.079 -0.1856  0.6198  0.5823
  244MOL   C14549231   6.678   2.436   1.947  0.2878  0.3997  0.4980
  244MOL   N14649232   6.820   2.411   1.969  0.2943 -0.2071 -0.1846
  244MOL   H14749233   6.674   2.541   2.125  2.5873 -2.0737  0.6204
  244MOL   H14849234   6.511   2.525   2.058 -1.0171 -1.0011  0.0744
  244MOL   H14949235   6.642   2.336   1.920 -0.7428  0.5015  1.4846
  244MOL   H15049236   6.660   2.516   1.875  1.0861  0.3159  0.1970
  244MOL   H15149237   6.867   2.419   2.058  0.2519  1.4400 -0.3056
  244MOL   C15249238   6.904   2.380   1.876  0.0672 -0.3217  0.4615
  244MOL   O15349239   6.865   2.363   1.760  0.0051 -0.0082  0.0851
  244MOL   C15449240   7.055   2.371   1.920 -0.3259 -0.7180 -0.0488
  244MOL   C15549241   7.164   2.379   1.807  0.5177  0.0904  0.1363
  244MOL   N15649242   7.139   2.492   1.720 -0.3881 -0.6460  0.4789
  244MOL   H15749243   7.067   2.273   1.966 -0.2208 -0.6759  0.0141
  244MOL   H15849244   7.069   2.447   1.998 -1.9985 -0.8395  0.3862
  244MOL   H15949245   7.259   2.380   1.860  0.2614  0.9457  0.5816
  244MOL   H16049246   7.160   2.288   1.746  3.3947  0.6453 -0.9179
  244MOL   H16149247   7.052   2.499   1.669 -0.6158 -0.5682  0.8774
  244MOL   C16249248   7.241   2.572   1.691 -0.2670 -0.0759  1.4520
  244MOL   O16349249   7.353   2.560   1.734 -0.3028  0.3491 -0.0399
  244MOL   C16449250   7.194   2.702   1.622 -0.7053  0.6269 -0.1602
  244MOL   C16549251   7.310   2.793   1.571 -0.2447 -0.4990 -0.0611
  244MOL   N16649252   7.269   2.912   1.502  0.6194 -0.1333 -0.1095
  244MOL   H16749253   7.126   2.752   1.691  0.6870  0.4543  1.3672
  244MOL   H16849254   7.136   2.688   1.532  2.4070 -1.5758 -1.9134
  244MOL   H16949255   7.363   2.827   1.660 -0.7149  0.0470  0.0145
  244MOL   H17049256   7.386   2.741   1.512 -0.7920 -0.2612 -0.9916
  244MOL   H17149257   7.269   2.997   1.557  2.4961 -1.2652  1.7169
  244MOL   C17249258   7.224   2.917   1.376 -0.6299 -0.1202  0.1620
  244MOL   O17349259   7.234   2.818   1.303 -0.2626  0.1121  0.1142
  244MOL   C17449260   7.146   3.047   1.342 -0.4738 -0.7892 -0.2910
  244MOL   C17549261   7.234   3.140   1.258 -0.2891 -0.0304 -0.1082
  244MOL   N17649262   7.301   3.243   1.341 -0.3024 -1.3749 -0.3017
  244MOL   H17749263   7.101   3.090   1.432  2.0661 -3.0090  2.1444
  244MOL   H17849264   7.060   3.013   1.285 -1.3066 -0.4565  0.7459
  244MOL   H17949265   7.315   3.095   1.200 -1.6049 -0.2065 -1.8428
  244MOL   H18049266   7.167   3.185   1.185 -0.9179 -0.7361  0.0344
  244MOL   H18149267   7.377   3.203   1.393  1.2503  1.1716 -0.5432
  244MOL   C18249268   7.246   3.367   1.360  0.2041  0.3601 -0.1706
  244MOL   O18349269   7.144   3.396   1.299 -0.5946  0.0368 -0.3022
  244MOL   C18449270   7.315   3.462   1.456 -0.0981 -0.5546  0.1230
  244MOL   C18549271   7.239   3.593   1.478 -0.1319 -0.8111  0.1371
  244MOL   N18649272   7.272   3.667   1.609  0.1084  0.0494 -0.1969
  244MOL   H18749273   7.415   3.471   1.413 -0.8879 -0.1324 -1.6623
  244MOL   H18849274   7.322   3.417   1.555  1.4228 -1.7728 -0.5250
  244MOL   H18949275   7.274   3.647   1.391  0.6274  1.6840  1.9380
  244MOL   H19049276   7.132   3.584   1.457  0.1872 -1.6315 -1.1658
  244MOL   H19149277   7.363   3.710   1.622 -0.0452  0.0521  0.9306
  244MOL   C19249278   7.182   3.675   1.712  0.6044  0.7054  0.2660
  244MOL   O19349279   7.072   3.614   1.705  0.1759 -0.4285 -0.4981
  244MOL   C19449280   7.224   3.744   1.843  0.5111  0.0755 -0.8967
  244MOL   C19549281   7.161   3.889   1.854 -0.2677 -0.4004 -0.6381
  244MOL   N19649282   7.019   3.879   1.871  0.0884 -0.0085 -0.0097
  244MOL   H19749283   7.218   3.683   1.933 -0.1156  1.9088  0.3405
  244MOL   H19849284   7.332   3.748   1.829  0.7775  0.3864  1.0776
  244MOL   H19949285   7.203   3.942   1.939  0.7551 -0.1037 -1.3153
  244MOL   H20049286   7.186   3.942   1.762  0.2947  0.1140 -0.1915
  244MOL   H20149287   6.968   3.951   1.823  1.5011  0.2847 -1.1156
  244MOL   H20249288   6.993   3.800   1.812 -2.6517  0.0673  0.9987
  245MOL     C149289   2.065   3.342   5.128  0.6704  0.2478 -0.3566
  245MOL     O249290   2.010   3.239   5.172 -0.8890  0.4285  0.0261
  245MOL     C349291   2.118   3.346   4.989 -0.4106  0.0495  0.5683
  245MOL     C449292   2.267   3.365   4.990  0.1197 -0.2504  0.1836
  245MOL     N549293   2.307   3.503   4.974  0.5370  0.9864 -0.9915
  245MOL     H649294   2.065   3.425   4.936 -0.1703  0.0549  0.3322
  245MOL     H749295   2.092   3.249   4.946 -1.5088  0.5144  0.1770
  245MOL     H849296   2.306   3.330   4.895 -2.3793  1.9442 -1.7314
  245MOL     H949297   2.308   3.315   5.078  0.6442  1.1893  0.7650
  245MOL    H1049298   2.354   3.541   5.055  0.9319  1.1241 -1.2833
  245MOL    H1149299   2.067   3.435   5.184 -0.7699  1.0715 -1.6650
  245MOL    C1249300   2.291   3.588   4.875 -0.0650 -0.1086  0.0422
  245MOL    O1349301   2.238   3.556   4.768  0.4736  1.4994 -0.2621
  245MOL    C1449302   2.356   3.719   4.896 -0.6757 -0.5863 -0.2719
  245MOL    C1549303   2.392   3.800   4.768  0.4502 -0.5031 -0.3436
  245MOL    N1649304   2.284   3.889   4.723  0.1980 -0.2962  0.2964
  245MOL    H1749305   2.453   3.704   4.944 -0.9106 -2.5599 -0.3489
  245MOL    H1849306   2.301   3.773   4.973  3.0651  2.6376  0.3030
  245MOL    H1949307   2.483   3.856   4.790  0.4260 -0.1328 -1.1766
  245MOL    H2049308   2.425   3.727   4.693  1.0077 -1.7859  1.1194
  245MOL    H2149309   2.253   3.972   4.771 -1.3226 -0.7661  0.1675
  245MOL    C2249310   2.208   3.861   4.614 -0.0464 -0.4611  0.2427
  245MOL    O2349311   2.217   3.756   4.553 -0.3804 -0.2384 -0.3477
  245MOL    C2449312   2.087   3.955   4.608  0.5795 -0.3001 -0.2324
  245MOL    C2549313   1.950   3.879   4.625 -0.2479 -0.0258 -0.2826
  245MOL    N2649314   1.934   3.810   4.754 -0.5083  0.2856  0.0802
  245MOL    H2749315   2.095   4.009   4.514  0.9893 -1.7073 -1.0319
  245MOL    H2849316   2.085   4.026   4.690 -0.7368 -0.1112 -0.4234
  245MOL    H2949317   1.891   3.970   4.633 -0.8543 -0.5248  1.1734
  245MOL    H3049318   1.919   3.819   4.540  0.6246 -1.3601  0.3254
  245MOL    H3149319   2.021   3.788   4.800 -0.0439 -0.3560 -1.0807
  245MOL    C3249320   1.820   3.804   4.820 -0.2635 -0.2004  0.4320
  245MOL    O3349321   1.718   3.838   4.769 -0.0402 -0.3343 -0.1956
  245MOL    C3449322   1.819   3.743   4.954  0.3797  0.0656 -0.2357
  245MOL    C3549323   1.713   3.629   4.962 -0.4618  1.0377 -0.1495
  245MOL    N3649324   1.726   3.539   5.075 -0.3651  0.4993 -0.3185
  245MOL    H3749325   1.796   3.823   5.025  1.2236  0.3913 -0.3223
  245MOL    H3849326   1.918   3.707   4.981  0.7346  0.1887 -1.3339
  245MOL    H3949327   1.610   3.656   4.939  0.0973  1.3112 -2.5362
  245MOL    H4049328   1.737   3.564   4.877  0.6943 -1.2148  1.8374
  245MOL    H4149329   1.809   3.557   5.130  0.1117  0.2532 -0.9473
  245MOL    C4249330   1.650   3.431   5.103  0.4746 -0.1174 -0.4250
  245MOL    O4349331   1.533   3.415   5.056 -0.4874 -0.3392 -0.3852
  245MOL    C4449332   1.711   3.345   5.213 -0.1139  0.5280  0.9308
  245MOL    C4549333   1.634   3.346   5.346  0.3396  0.6214 -0.5122
  245MOL    N4649334   1.667   3.468   5.429 -0.0297  0.0936  0.5837
  245MOL    H4749335   1.712   3.239   5.187 -1.2412  0.1363  2.4610
  245MOL    H4849336   1.815   3.376   5.227  0.0694  0.0676  0.6296
  245MOL    H4949337   1.526   3.341   5.335 -0.0092  0.7356  2.4908
  245MOL    H5049338   1.658   3.255   5.401  1.0049  1.3386  0.3927
  245MOL    H5149339   1.661   3.560   5.386  0.2409  0.7606  1.9635
  245MOL    C5249340   1.676   3.473   5.561  0.1699  0.2843  0.2243
  245MOL    O5349341   1.642   3.374   5.636 -0.2693  0.5430 -0.0451
  245MOL    C5449342   1.735   3.601   5.627  0.1343 -0.4824 -0.6152
  245MOL    C5549343   1.651   3.658   5.736 -0.5472  0.0836 -0.7282
  245MOL    N5649344   1.717   3.773   5.784  0.1672 -0.8320 -0.0410
  245MOL    H5749345   1.828   3.577   5.679  0.1045 -1.6452 -1.0844
  245MOL    H5849346   1.759   3.674   5.550 -2.0712  1.2181  0.2587
  245MOL    H5949347   1.626   3.586   5.814 -2.5014  0.9625 -0.5046
  245MOL    H6049348   1.553   3.688   5.699 -0.1889  1.0587 -0.9129
  245MOL    H6149349   1.761   3.840   5.722 -2.3704  0.4787 -0.4891
  245MOL    C6249350   1.714   3.804   5.916  0.2125  0.2422 -0.6701
  245MOL    O6349351   1.671   3.740   6.009  0.0963 -0.5832  0.1585
  245MOL    C6449352   1.775   3.942   5.951  0.1300 -0.1603 -0.7909
  245MOL    C6549353   1.686   4.031   6.025 -0.9953  0.3796 -0.4844
  245MOL    N6649354   1.657   3.989   6.161 -0.2637  0.1723  0.0330
  245MOL    H6749355   1.873   3.932   5.998 -1.0191 -2.1546  1.3311
  245MOL    H6849356   1.796   3.988   5.855  0.3664  2.0512  0.3092
  245MOL    H6949357   1.713   4.136   6.020  0.8639  0.0367  1.4934
  245MOL    H7049358   1.583   4.038   5.989 -1.0802  0.7141 -0.1755
  245MOL    H7149359   1.658   3.889   6.177  1.8416  0.0431 -0.7599
  245MOL    C7249360   1.648   4.067   6.271 -0.3360 -0.3687 -0.0805
  245MOL    O7349361   1.646   4.187   6.268 -0.4086 -0.6635 -0.4107
  245MOL    C7449362   1.642   3.993   6.397 -0.2604 -0.3871 -0.1762
  245MOL    C7549363   1.783   3.951   6.446 -0.4448  0.1745 -0.1762
  245MOL    N7649364   1.855   3.846   6.375 -0.7092 -0.7446  0.0390
  245MOL    H7749365   1.602   4.055   6.478  0.2248  1.3206 -1.2336
  245MOL    H7849366   1.587   3.902   6.370  0.0914 -0.0032 -2.2440
  245MOL    H7949367   1.860   4.028   6.447  1.7376 -1.9435  0.3479
  245MOL    H8049368   1.777   3.930   6.553 -0.9815  1.7554  0.1261
  245MOL    H8149369   1.889   3.880   6.286 -0.4997 -1.7938 -0.2901
  245MOL    C8249370   1.870   3.722   6.414  0.7193  0.7720  0.1255
  245MOL    O8349371   1.816   3.684   6.516  0.1861 -0.6598  0.3945
  245MOL    C8449372   1.957   3.628   6.320 -0.5316  0.6603  0.2812
  245MOL    C8549373   2.046   3.530   6.406  0.2630  0.3670 -0.1386
  245MOL    N8649374   2.124   3.443   6.319 -0.3988 -0.4970 -0.4645
  245MOL    H8749375   1.899   3.580   6.241 -0.9249  1.8823 -0.1893
  245MOL    H8849376   2.024   3.699   6.272  1.5251  0.2962  2.4879
  245MOL    H8949377   2.109   3.598   6.464  2.5040 -1.1388 -0.7519
  245MOL    H9049378   1.979   3.471   6.468 -1.4977  1.3285 -1.0841
  245MOL    H9149379   2.094   3.438   6.223  0.4153  1.2475 -0.8419
  245MOL    C9249380   2.229   3.378   6.353  0.0256  0.2701 -0.3793
  245MOL    O9349381   2.261   3.361   6.471  0.1811  0.4241  0.1745
  245MOL    C9449382   2.319   3.325   6.242  0.7196  0.8163 -0.2843
  245MOL    C9549383   2.385   3.439   6.153  0.6111  0.4339  0.3916
  245MOL    N9649384   2.532   3.426   6.153 -0.2758 -0.2572 -1.0414
  245MOL    H9749385   2.394   3.266   6.294  0.6425  0.3116 -0.7402
  245MOL    H9849386   2.261   3.268   6.169  1.9772  0.1294 -0.7683
  245MOL    H9949387   2.353   3.427   6.050  0.9488 -2.2650  0.5790
  245MOL   H10049388   2.355   3.541   6.178 -0.3627  0.3446 -0.4033
  245MOL   H10149389   2.580   3.494   6.210 -0.1324 -0.6722 -0.6694
  245MOL   C10249390   2.613   3.338   6.091  0.8747 -0.3279  0.1353
  245MOL   O10349391   2.574   3.248   6.015 -0.0555  0.4923 -0.0448
  245MOL   C10449392   2.759   3.353   6.118 -0.7247  0.2863  0.0353
  245MOL   C10549393   2.841   3.229   6.161 -0.8727 -0.4574 -0.8012
  245MOL   N10649394   2.951   3.259   6.245  0.0676  0.7708  0.1679
  245MOL   H10749395   2.784   3.437   6.183 -0.9492 -0.0936  0.6202
  245MOL   H10849396   2.793   3.403   6.027 -1.0264  1.7650  0.7191
  245MOL   H10949397   2.788   3.147   6.209 -2.5620  1.2819  0.3646
  245MOL   H11049398   2.873   3.198   6.061 -1.6113 -0.7539 -0.9490
  245MOL   H11149399   2.938   3.252   6.345  0.7993 -0.3173  0.1905
  245MOL   C11249400   3.079   3.278   6.205  0.0788 -0.0148  1.2387
  245MOL   O11349401   3.115   3.260   6.088  0.3109  0.2634 -0.0817
  245MOL   C11449402   3.185   3.306   6.311 -0.8535 -0.1159  0.3166
  245MOL   C11549403   3.227   3.459   6.296  0.0717 -0.3581  0.2269
  245MOL   N11649404   3.337   3.481   6.199 -0.5109 -0.0598 -0.2992
  245MOL   H11749405   3.275   3.245   6.299 -1.6834 -1.1266 -0.9655
  245MOL   H11849406   3.147   3.287   6.411  1.7335 -1.5501  1.0601
  245MOL   H11949407   3.133   3.514   6.295 -0.1741 -0.6960  2.0762
  245MOL   H12049408   3.273   3.496   6.388 -0.0337  1.9435 -0.6238
  245MOL   H12149409   3.387   3.399   6.168  0.2655  0.4725 -0.4984
  245MOL   C12249410   3.380   3.598   6.154  0.0457  0.2391 -0.5006
  245MOL   O12349411   3.325   3.702   6.187 -0.6326 -0.6000  0.2287
  245MOL   C12449412   3.501   3.595   6.072  0.4907 -0.6136 -0.6332
  245MOL   C12549413   3.534   3.716   5.980 -0.1179 -0.4108  0.2677
  245MOL   N12649414   3.483   3.719   5.847  0.3249 -0.3266 -0.0130
  245MOL   H12749415   3.511   3.501   6.017  0.2214 -0.7149 -0.5083
  245MOL   H12849416   3.587   3.592   6.139 -0.0182  3.9217  0.3588
  245MOL   H12949417   3.503   3.803   6.037  2.2598  0.0083  0.9800
  245MOL   H13049418   3.643   3.717   5.986 -0.0805  0.0666 -0.4733
  245MOL   H13149419   3.391   3.681   5.834  0.0136 -0.6275  2.8569
  245MOL   C13249420   3.547   3.765   5.736 -0.1959 -0.8170  0.3846
  245MOL   O13349421   3.665   3.791   5.731 -0.0705 -0.2148 -0.4336
  245MOL   C13449422   3.468   3.797   5.606 -0.4288  0.4727 -0.1918
  245MOL   C13549423   3.554   3.860   5.492 -0.3191  0.7606 -0.5817
  245MOL   N13649424   3.476   3.931   5.386 -0.5352  0.8476  0.3656
  245MOL   H13749425   3.375   3.853   5.620  0.7651  2.5348 -0.2936
  245MOL   H13849426   3.428   3.702   5.571  2.8649 -0.5552 -1.2661
  245MOL   H13949427   3.634   3.927   5.524  0.0417  0.7529 -1.4362
  245MOL   H14049428   3.611   3.790   5.431  0.6857  0.0768  1.1094
  245MOL   H14149429   3.429   4.010   5.428  2.3375  2.3120  1.0063
  245MOL   C14249430   3.481   3.911   5.253 -0.7048  0.2240  0.6263
  245MOL   O14349431   3.534   3.822   5.188 -0.0371  0.3058  0.4058
  245MOL   C14449432   3.398   4.008   5.161  0.6113  0.8879 -0.0574
  245MOL   C14549433   3.482   4.108   5.078  0.0127 -0.2903  0.1086
  245MOL   N14649434   3.408   4.173   4.971 -0.2665  0.0077 -0.4097
  245MOL   H14749435   3.325   4.059   5.223 -0.1513 -0.2455 -0.0197
  245MOL   H14849436   3.338   3.944   5.096 -1.2090  0.9059  1.5593
  245MOL   H14949437   3.517   4.177   5.153 -0.6252  0.7611 -0.5483
  245MOL   H15049438   3.569   4.057   5.037  1.1638  0.8611  1.1026
  245MOL   H15149439   3.382   4.268   4.993 -0.2688 -0.4726  1.7667
  245MOL   C15249440   3.402   4.130   4.846 -0.0154 -0.3736 -0.5207
  245MOL   O15349441   3.428   4.017   4.817  0.4056  0.3148 -0.9733
  245MOL   C15449442   3.347   4.227   4.747  0.2142  0.0644  0.6792
  245MOL   C15549443   3.291   4.156   4.621  0.2889 -0.3898 -0.7036
  245MOL   N15649444   3.181   4.229   4.562 -0.0758 -0.0685  0.2293
  245MOL   H15749445   3.423   4.302   4.726  1.3120 -1.1351  0.2949
  245MOL   H15849446   3.265   4.279   4.796 -1.4353 -0.5743 -1.3458
  245MOL   H15949447   3.357   4.142   4.537 -1.4351  1.2146 -2.3769
  245MOL   H16049448   3.249   4.060   4.654  1.0706 -0.4034  0.2683
  245MOL   H16149449   3.205   4.296   4.490  0.7801 -1.1223 -0.4897
  245MOL   C16249450   3.052   4.200   4.581  0.5638  0.2322 -0.0105
  245MOL   O16349451   3.012   4.111   4.662  0.5791 -0.5771 -0.4288
  245MOL   C16449452   2.951   4.263   4.493  0.0454 -0.5328  0.2965
  245MOL   C16549453   2.811   4.198   4.497  0.7200  0.1373 -0.4717
  245MOL   N16649454   2.742   4.218   4.625 -0.9113  0.2703 -0.3395
  245MOL   H16749455   2.987   4.277   4.391 -0.7138  0.6132  0.1716
  245MOL   H16849456   2.952   4.365   4.531  1.9238 -0.2951 -0.3509
  245MOL   H16949457   2.745   4.233   4.417 -2.1087  0.3578  1.8825
  245MOL   H17049458   2.814   4.091   4.476  1.1138  0.0144  0.2141
  245MOL   H17149459   2.797   4.253   4.702  0.1488  0.5027 -1.1854
  245MOL   C17249460   2.609   4.221   4.649  0.1720 -0.3151 -0.0982
  245MOL   O17349461   2.524   4.187   4.560  0.4846 -0.0094  0.1334
  245MOL   C17449462   2.556   4.253   4.792 -0.1747 -0.4197  0.9363
  245MOL   C17549463   2.409   4.239   4.806 -0.1375  0.1387 -0.2778
  245MOL   N17649464   2.337   4.354   4.746  0.5395  0.2780  0.6199
  245MOL   H17749465   2.600   4.348   4.821  0.6067 -0.5191  0.1117
  245MOL   H17849466   2.607   4.184   4.860 -1.0705 -3.4314 -1.3028
  245MOL   H17949467   2.372   4.150   4.755 -0.2808  0.4717 -0.7568
  245MOL   H18049468   2.374   4.219   4.907  1.8043 -0.9585  0.2154
  245MOL   H18149469   2.286   4.330   4.662 -0.7154  0.8457  1.2039
  245MOL   C18249470   2.314   4.470   4.810  0.1001 -0.3555 -0.6780
  245MOL   O18349471   2.368   4.488   4.924  0.4379 -0.2022 -0.4757
  245MOL   C18449472   2.221   4.570   4.748 -0.3423  0.4357  0.7760
  245MOL   C18549473   2.284   4.711   4.723 -0.0129 -0.1866 -0.2326
  245MOL   N18649474   2.296   4.754   4.581 -0.3946 -0.1029 -0.1515
  245MOL   H18749475   2.143   4.579   4.823 -0.8461  0.0370  0.3091
  245MOL   H18849476   2.170   4.542   4.655  0.7205  0.3800  0.2070
  245MOL   H18949477   2.220   4.778   4.780 -1.0111 -2.9923  2.0698
  245MOL   H19049478   2.383   4.720   4.768  0.4562 -3.7071 -0.4487
  245MOL   H19149479   2.244   4.698   4.515 -0.7507 -0.0568  0.0857
  245MOL   C19249480   2.352   4.870   4.545 -0.1753 -0.1979 -0.2095
  245MOL   O19349481   2.412   4.938   4.630  0.1615 -0.1557 -0.1628
  245MOL   C19449482   2.339   4.911   4.401 -0.2246 -0.2041 -0.7625
  245MOL   C19549483   2.474   4.916   4.322  0.4229  1.0361  0.4285
  245MOL   N19649484   2.539   4.786   4.299 -0.3610 -0.0505  0.5751
  245MOL   H19749485   2.253   4.876   4.344 -1.9532  2.5944  0.0722
  245MOL   H19849486   2.304   5.013   4.418  3.8473  1.4863 -2.0222
  245MOL   H19949487   2.462   4.964   4.224 -1.6641  3.6669  1.8938
  245MOL   H20049488   2.541   4.973   4.386  3.7125  0.9564 -2.7633
  245MOL   H20149489   2.608   4.794   4.225  0.9271 -3.8629  1.2835
  245MOL   H20249490   2.476   4.715   4.265 -1.1209  0.9870 -0.2293
  246MOL     C149491   4.974   5.497   0.749 -0.0383 -0.6966  0.2754
  246MOL     O249492   4.862   5.514   0.800  0.1920 -0.1543 -0.2557
  246MOL     C349493   4.987   5.447   0.606 -0.2149  0.3827 -0.5291
  246MOL     C449494   4.852   5.432   0.536  0.0481 -1.0496 -0.7821
  246MOL     N549495   4.811   5.556   0.472 -0.0838 -0.9696 -0.2476
  246MOL     H649496   5.025   5.346   0.621 -1.4591 -0.1560 -0.9198
  246MOL     H749497   5.065   5.499   0.549 -1.1040  2.2514 -0.0759
  246MOL     H849498   4.764   5.394   0.587 -0.6431  1.8703  0.2843
  246MOL     H949499   4.882   5.355   0.465 -0.3643 -1.0442 -0.9643
  246MOL    H1049500   4.838   5.642   0.518  1.1590 -1.4449 -0.0793
  246MOL    H1149501   5.071   5.505   0.798 -0.7734  1.8284  1.4330
  246MOL    C1249502   4.737   5.564   0.365  0.1334  0.3392 -0.2312
  246MOL    O1349503   4.717   5.468   0.291 -0.2526 -0.6304  0.0552
  246MOL    C1449504   4.656   5.687   0.331  0.2223 -0.4316  0.7352
  246MOL    C1549505   4.737   5.773   0.225  0.3168 -0.9756 -0.2438
  246MOL    N1649506   4.863   5.833   0.278 -0.5508  0.6154  0.0305
  246MOL    H1749507   4.641   5.752   0.417  0.5620 -0.3149  0.7054
  246MOL    H1849508   4.562   5.651   0.288  0.9315 -1.2287 -0.1672
  246MOL    H1949509   4.757   5.712   0.136 -0.0439 -1.9990  0.3678
  246MOL    H2049510   4.668   5.852   0.194  0.2150 -1.4707 -1.3188
  246MOL    H2149511   4.852   5.904   0.349 -0.0463 -1.6959  2.5125
  246MOL    C2249512   4.984   5.781   0.276 -1.1403  0.1487 -0.3502
  246MOL    O2349513   5.006   5.670   0.230 -0.0218  0.5180  0.0184
  246MOL    C2449514   5.108   5.867   0.311  0.2147  0.0141  0.1546
  246MOL    C2549515   5.178   5.804   0.430 -0.5551 -0.0631  0.2483
  246MOL    N2649516   5.150   5.867   0.557 -0.0665  0.6376  0.3000
  246MOL    H2749517   5.095   5.974   0.331  1.2440  0.4016 -1.1444
  246MOL    H2849518   5.168   5.871   0.220 -0.2163  0.6601 -0.1085
  246MOL    H2949519   5.156   5.697   0.432 -0.0212 -0.2221 -1.5257
  246MOL    H3049520   5.287   5.806   0.425 -0.6103  2.8672 -1.1261
  246MOL    H3149521   5.211   5.942   0.583  1.4103 -0.1789 -0.7202
  246MOL    C3249522   5.055   5.835   0.644 -0.2927 -0.2100 -0.3534
  246MOL    O3349523   4.969   5.751   0.621  0.0466  0.1134 -0.1755
  246MOL    C3449524   5.064   5.912   0.774  0.1840  0.3131  0.2280
  246MOL    C3549525   4.965   5.868   0.885 -0.0561  0.7513  0.2033
  246MOL    N3649526   5.050   5.837   0.999 -0.2341 -0.2580 -0.3934
  246MOL    H3749527   5.045   6.018   0.754 -0.0926 -0.0960 -1.7757
  246MOL    H3849528   5.170   5.903   0.798  0.3557  1.1916 -0.1614
  246MOL    H3949529   4.886   5.941   0.902 -1.2076 -0.3767 -0.2011
  246MOL    H4049530   4.909   5.776   0.866  1.0573 -0.1228  1.0528
  246MOL    H4149531   5.141   5.796   0.985 -0.0590 -0.2231  0.6308
  246MOL    C4249532   5.037   5.888   1.124 -0.1787  0.0865 -0.4536
  246MOL    O4349533   4.943   5.966   1.159  0.3030  0.3823 -0.3320
  246MOL    C4449534   5.150   5.859   1.223 -0.4131 -0.0774 -0.3684
  246MOL    C4549535   5.259   5.970   1.236 -0.2870  0.5570  0.5902
  246MOL    N4649536   5.358   5.964   1.131 -0.2035  0.3059 -0.5973
  246MOL    H4749537   5.099   5.838   1.317  0.1367  2.1450  0.4636
  246MOL    H4849538   5.201   5.764   1.216  1.3251  0.7680  0.6659
  246MOL    H4949539   5.219   6.072   1.234 -1.8298 -0.0741 -2.8257
  246MOL    H5049540   5.314   5.967   1.330  1.3701 -3.3902 -0.4156
  246MOL    H5149541   5.362   5.871   1.094 -0.6797 -1.0062  2.4611
  246MOL    C5249542   5.426   6.070   1.084 -0.4301  0.2829 -0.8092
  246MOL    O5349543   5.412   6.178   1.137  0.6155 -0.1264  0.1904
  246MOL    C5449544   5.516   6.052   0.957 -0.4732  0.0780 -0.2229
  246MOL    C5549545   5.500   6.181   0.873 -0.2746 -0.6305  0.5877
  246MOL    N5649546   5.527   6.155   0.730 -0.2408 -0.1517 -0.2293
  246MOL    H5749547   5.622   6.045   0.983 -0.4852  1.7899  0.3398
  246MOL    H5849548   5.486   5.970   0.892 -2.0104  0.0262  0.5294
  246MOL    H5949549   5.580   6.249   0.901 -1.4261  1.4774 -1.1480
  246MOL    H6049550   5.404   6.231   0.878  0.6609  1.1826  0.6135
  246MOL    H6149551   5.615   6.191   0.695  1.2771 -1.6534  1.8943
  246MOL    C6249552   5.440   6.094   0.643  0.0404 -0.1365  0.0591
  246MOL    O6349553   5.325   6.060   0.680 -0.3408  0.4537 -0.1486
  246MOL    C6449554   5.499   6.080   0.499 -0.1240 -0.0769  0.3050
  246MOL    C6549555   5.386   6.101   0.395 -0.8152  0.2531 -0.3592
  246MOL    N6649556   5.370   6.241   0.363  0.2076 -0.2860 -0.3750
  246MOL    H6749557   5.576   6.155   0.478  1.1092 -2.0076 -2.3332
  246MOL    H6849558   5.547   5.983   0.485  1.7037  0.4195  2.7437
  246MOL    H6949559   5.417   6.046   0.306  2.4934  0.5009  0.5900
  246MOL    H7049560   5.286   6.067   0.421 -1.0778  1.0022 -0.3661
  246MOL    H7149561   5.432   6.313   0.396 -2.3776  2.2894 -0.9531
  246MOL    C7249562   5.268   6.301   0.298 -0.1201  0.2508  0.1262
  246MOL    O7349563   5.172   6.237   0.246 -0.2912 -0.0275  0.4452
  246MOL    C7449564   5.283   6.455   0.294  0.1110  0.5516 -0.3853
  246MOL    C7549565   5.146   6.520   0.276  0.2929 -0.8060 -0.3117
  246MOL    N7649566   5.098   6.608   0.381  0.0212  0.1363 -0.8349
  246MOL    H7749567   5.331   6.508   0.376 -0.2798  0.1607  0.1038
  246MOL    H7849568   5.347   6.483   0.210  0.7844 -2.3380 -0.9158
  246MOL    H7949569   5.158   6.576   0.184  1.6056 -0.3566  0.1213
  246MOL    H8049570   5.065   6.447   0.270 -0.4715  0.1112 -1.2942
  246MOL    H8149571   5.043   6.570   0.457  2.3576 -0.9587  0.3793
  246MOL    C8249572   5.119   6.737   0.389 -0.2076 -0.6936 -0.3298
  246MOL    O8349573   5.186   6.796   0.305 -0.0701  0.2031 -0.0851
  246MOL    C8449574   5.066   6.816   0.510  0.1167 -0.0277  0.3637
  246MOL    C8549575   4.980   6.934   0.473  0.0295  0.4466  0.0450
  246MOL    N8649576   5.068   7.043   0.437  0.0643 -0.3107  0.1684
  246MOL    H8749577   4.994   6.759   0.569  0.9254 -0.0141  1.3819
  246MOL    H8849578   5.140   6.836   0.587 -2.2307  0.6241  2.5223
  246MOL    H8949579   4.917   6.916   0.386  0.9404 -0.0602 -0.5226
  246MOL    H9049580   4.928   6.977   0.558 -1.6384 -1.9682  0.2990
  246MOL    H9149581   5.154   7.050   0.489 -0.0152 -1.4288  0.4549
  246MOL    C9249582   5.073   7.113   0.323  0.7853  0.5204 -0.7004
  246MOL    O9349583   4.986   7.100   0.236  0.9322 -0.9457  0.0657
  246MOL    C9449584   5.185   7.213   0.311  0.1651  0.2608 -0.2920
  246MOL    C9549585   5.135   7.332   0.229  0.1866 -0.6643 -0.4606
  246MOL    N9649586   5.247   7.424   0.216 -0.1955 -0.3696 -0.2302
  246MOL    H9749587   5.222   7.232   0.411  0.9021 -1.9457 -0.1227
  246MOL    H9849588   5.265   7.163   0.257 -0.3261  0.1517 -0.9263
  246MOL    H9949589   5.105   7.312   0.126  0.0433 -0.9846 -0.3565
  246MOL   H10049590   5.050   7.367   0.288  0.7995 -0.9660  0.6005
  246MOL   H10149591   5.333   7.411   0.267 -0.3506  2.6192  0.8917
  246MOL   C10249592   5.225   7.551   0.169 -0.6041 -0.4560 -0.3106
  246MOL   O10349593   5.118   7.593   0.130 -0.5444 -0.4300 -0.4636
  246MOL   C10449594   5.345   7.641   0.169  0.2918 -0.3824  0.8338
  246MOL   C10549595   5.340   7.763   0.068 -0.5205 -0.0883  0.3624
  246MOL   N10649596   5.454   0.082   0.087  0.3833 -0.0509  0.2631
  246MOL   H10749597   5.436   7.586   0.146  0.8136  0.7515  0.1269
  246MOL   H10849598   5.354   7.694   0.264  1.6701  0.7864  0.0596
  246MOL   H10949599   5.347   7.738   7.743 -1.6490  0.9595  0.0263
  246MOL   H11049600   5.247   0.038   0.082 -0.4052  0.1947  0.0323
  246MOL   H11149601   5.544   0.057   0.049  0.0040 -0.4193 -0.4075
  246MOL   C11249602   5.456   0.199   0.153  0.2797 -0.5734 -0.2784
  246MOL   O11349603   5.363   0.247   0.219 -0.0319  0.7192 -0.0483
  246MOL   C11449604   5.589   0.276   0.152 -0.1138  0.1412 -0.4397
  246MOL   C11549605   5.576   0.426   0.158 -0.0425 -0.1848  0.1568
  246MOL   N11649606   5.544   0.492   0.031  0.4515 -0.2591 -0.4889
  246MOL   H11749607   5.644   0.247   0.063 -1.3970 -2.6067 -0.3770
  246MOL   H11849608   5.652   0.256   0.238  1.6654  2.7182 -1.0824
  246MOL   H11949609   5.507   0.464   0.234  0.2983  0.9239 -0.0713
  246MOL   H12049610   5.674   0.458   0.193 -0.0994 -0.7783  0.8682
  246MOL   H12149611   5.577   0.445   7.728  0.2552 -2.0509  0.4150
  246MOL   C12249612   5.469   0.600   0.015 -0.3414 -0.0345  0.4224
  246MOL   O12349613   5.417   0.659   0.111  0.0536 -0.0209  0.0472
  246MOL   C12449614   5.442   0.647   7.646 -0.4011 -0.1609 -0.5915
  246MOL   C12549615   5.426   0.802   7.643  0.4601 -0.0464  1.0667
  246MOL   N12649616   5.404   0.851   7.507 -0.0734  0.3287 -0.0682
  246MOL   H12749617   5.346   0.604   7.618 -2.0458  3.1869 -0.2895
  246MOL   H12849618   5.530   0.614   7.590  0.2750  0.3066  0.1740
  246MOL   H12949619   5.356   0.839   7.718 -2.5048 -0.6109 -1.2906
  246MOL   H13049620   5.525   0.839   7.670  0.5975 -1.4845  2.6844
  246MOL   H13149621   5.476   0.911   7.469 -0.7812  1.7576  0.7729
  246MOL   C13249622   5.301   0.840   7.420  0.4730 -0.1307 -0.6945
  246MOL   O13349623   5.207   0.771   7.457 -0.1624  0.0666 -0.0372
  246MOL   C13449624   5.296   0.912   7.292  0.0990 -0.4630  0.2266
  246MOL   C13549625   5.430   0.931   7.216  0.9491  0.7067  0.1795
  246MOL   N13649626   5.486   0.801   7.192 -0.2931 -0.1152 -0.7150
  246MOL   H13749627   5.249   1.010   7.303  1.1417 -0.0334  0.8301
  246MOL   H13849628   5.227   0.857   7.229  1.5026 -0.3693 -1.4150
  246MOL   H13949629   5.420   0.972   7.116  0.3729  2.1409  0.8135
  246MOL   H14049630   5.502   0.999   7.261  1.9077  0.1076 -0.4355
  246MOL   H14149631   5.424   0.722   7.175 -1.2310  0.5427 -0.4120
  246MOL   C14249632   5.614   0.779   7.170 -0.3229 -0.2405 -0.0437
  246MOL   O14349633   5.692   0.870   7.193  0.2244 -0.0144 -0.0963
  246MOL   C14449634   5.655   0.646   7.114 -0.4490  0.4286  0.7771
  246MOL   C14549635   5.801   0.613   7.147  0.6098 -0.1023 -0.5584
  246MOL   N14649636   5.855   0.513   7.046  0.4748 -0.4505 -0.3207
  246MOL   H14749637   5.634   0.666   7.009 -1.6417  1.8044  1.2621
  246MOL   H14849638   5.587   0.573   7.156 -0.6611 -0.8307 -1.6372
  246MOL   H14949639   5.866   0.700   7.159 -0.6246  0.8154 -0.4730
  246MOL   H15049640   5.812   0.560   7.241 -0.6433  2.9054  1.3581
  246MOL   H15149641   5.813   0.422   7.038 -1.0336  0.2275 -0.2532
  246MOL   C15249642   5.975   0.522   6.994 -0.2085 -0.5239  0.3821
  246MOL   O15349643   6.053   0.618   7.013 -0.3267 -0.0396 -0.1892
  246MOL   C15449644   6.016   0.404   6.906 -0.4705  0.6091 -0.0709
  246MOL   C15549645   6.110   0.301   6.969  0.1508  0.3294 -0.3024
  246MOL   N15649646   6.251   0.352   6.988 -0.4871  0.6575  0.4636
  246MOL   H15749647   6.059   0.442   6.813  0.0912  1.1790  0.4148
  246MOL   H15849648   5.926   0.347   6.884  2.1104 -3.6552 -0.0838
  246MOL   H15949649   6.065   0.257   7.057 -0.9847 -2.1342 -2.0572
  246MOL   H16049650   6.122   0.220   6.897 -4.1224  0.4674 -1.3224
  246MOL   H16149651   6.312   0.360   6.908  0.9507 -1.1989  1.3333
  246MOL   C16249652   6.318   0.350   7.098 -0.3331  0.1190  0.0806
  246MOL   O16349653   6.264   0.330   7.206 -0.0363  0.5649 -0.2677
  246MOL   C16449654   6.462   0.393   7.090  0.3417 -0.1513  0.3307
  246MOL   C16549655   6.547   0.386   7.220  0.1825  0.7395 -0.3259
  246MOL   N16649656   6.594   0.248   7.250  0.2185  0.3715  0.5031
  246MOL   H16749657   6.447   0.492   7.049  2.1476 -0.9734 -2.4756
  246MOL   H16849658   6.515   0.338   7.013  0.4119  0.1963  0.1318
  246MOL   H16949659   6.637   0.443   7.198  1.1137 -1.1782 -1.6257
  246MOL   H17049660   6.498   0.438   7.302 -1.6623  2.4044 -2.4332
  246MOL   H17149661   6.524   0.177   7.267  1.0621 -0.2594  1.3692
  246MOL   C17249662   6.723   0.217   7.280  0.3468 -0.0065  0.3073
  246MOL   O17349663   6.815   0.298   7.266 -0.3824 -0.0186 -0.4633
  246MOL   C17449664   6.764   0.078   7.329  0.0686 -0.3001 -0.4681
  246MOL   C17549665   6.813   0.074   7.469 -0.5993 -0.3642 -0.2965
  246MOL   N17649666   6.941   0.150   7.479 -0.2171  0.1497  0.4521
  246MOL   H17749667   6.837   0.040   7.258  0.5661  2.0396 -1.2662
  246MOL   H17849668   6.679   0.011   7.325 -1.3534  1.1837  2.8078
  246MOL   H17949669   6.744   0.121   7.538  1.5924  0.4688  1.4041
  246MOL   H18049670   6.808   7.757   7.518 -4.4085  0.2641  0.7088
  246MOL   H18149671   6.934   0.249   7.460  0.2468  0.0626 -0.1752
  246MOL   C18249672   7.064   0.096   7.491  0.1261  0.0251  0.3603
  246MOL   O18349673   7.087   7.757   7.508 -0.1073 -0.4301 -0.2432
  246MOL   C18449674   7.177   0.199   7.494  0.9481 -0.1305 -0.2351
  246MOL   C18549675   7.321   0.151   7.527  0.4107  1.0000  0.1891
  246MOL   N18649676   7.411   0.261   7.489  0.5186  0.1143  0.0567
  246MOL   H18749677   7.140   0.270   7.568 -2.0464 -2.9770  1.1124
  246MOL   H18849678   7.165   0.252   7.400  0.7339  0.6305  0.2136
  246MOL   H18949679   7.319   0.117   7.630  0.4579 -0.3475 -0.2425
  246MOL   H19049680   7.358   0.065   7.470  1.5920 -0.0274  2.4435
  246MOL   H19149681   7.403   0.299   7.396 -1.2884 -2.0681 -0.7205
  246MOL   C19249682   7.497   0.320   7.572 -0.0152  0.0407  0.3045
  246MOL   O19349683   7.521   0.286   7.691  0.2209 -0.3880  0.6634
  246MOL   C19449684   7.574   0.438   7.507 -0.6836  0.5805 -0.2021
  246MOL   C19549685   7.604   0.547   7.603 -0.0411  0.5305 -0.2395
  246MOL   N19649686   7.489   0.621   7.644  0.0956 -0.3534 -0.4360
  246MOL   H19749687   7.672   0.400   7.475 -0.1822  0.1169  1.8416
  246MOL   H19849688   7.519   0.472   7.419 -1.1645  1.6531  0.5201
  246MOL   H19949689   7.640   0.499   7.694 -2.0833 -1.3443 -0.3858
  246MOL   H20049690   7.689   0.607   7.571  0.6388 -1.0719 -1.5436
  246MOL   H20149691   7.529   0.703   7.686  0.5680 -1.8479  2.1019
  246MOL   H20249692   7.436   0.571   7.714  2.7224 -1.6644  0.6504
  247MOL     C149693   5.658   1.596   2.433 -0.1351 -1.2283  0.2452
  247MOL     O249694   5.771   1.628   2.410 -0.0065 -0.4449  0.5878
  247MOL     C349695   5.550   1.653   2.352 -0.5826 -0.8222 -0.0114
  247MOL     C449696   5.457   1.758   2.411 -0.9759 -0.3935 -0.0793
  247MOL     N549697   5.389   1.719   2.531 -0.6277  0.4592  0.2333
  247MOL     H649698   5.480   1.575   2.324 -1.4468  0.1560 -0.6038
  247MOL     H749699   5.602   1.679   2.259 -2.0665  0.5919 -0.4610
  247MOL     H849700   5.391   1.785   2.329  0.6082 -0.3997 -1.3808
  247MOL     H949701   5.524   1.842   2.426 -1.5601 -0.2560  1.9316
  247MOL    H1049702   5.429   1.755   2.617  1.4780  0.5903 -0.7607
  247MOL    H1149703   5.620   1.537   2.517 -3.3089 -0.4762 -0.6107
  247MOL    C1249704   5.286   1.635   2.544  0.3103 -0.1433  0.4811
  247MOL    O1349705   5.231   1.584   2.451  0.5669 -0.6146 -0.4960
  247MOL    C1449706   5.231   1.616   2.686  0.0027 -1.2472  0.4263
  247MOL    C1549707   5.310   1.523   2.776 -0.0665  0.6119  0.3102
  247MOL    N1649708   5.356   1.594   2.886 -0.4783  0.3589 -0.0708
  247MOL    H1749709   5.131   1.575   2.669 -0.4563 -0.0524  0.1637
  247MOL    H1849710   5.208   1.712   2.731  0.1185 -1.7367  1.5442
  247MOL    H1949711   5.241   1.444   2.808 -0.4788 -0.1014 -2.2715
  247MOL    H2049712   5.381   1.463   2.719 -0.3163  0.9262 -0.3345
  247MOL    H2149713   5.333   1.559   2.978 -0.3620 -0.6285 -0.4148
  247MOL    C2249714   5.446   1.693   2.885 -0.4081 -0.1552 -0.0152
  247MOL    O2349715   5.494   1.734   2.781 -0.0284 -0.0922 -0.2627
  247MOL    C2449716   5.471   1.750   3.021 -0.4935 -1.2046 -0.7184
  247MOL    C2549717   5.613   1.701   3.067 -0.9524 -0.2140  0.7718
  247MOL    N2649718   5.667   1.768   3.188 -0.1971  0.1255 -0.0564
  247MOL    H2749719   5.399   1.720   3.097  0.9310 -1.2741  0.6332
  247MOL    H2849720   5.467   1.859   3.017  2.6591 -0.8457  2.8289
  247MOL    H2949721   5.616   1.593   3.074  2.3893 -0.0782  2.0972
  247MOL    H3049722   5.686   1.733   2.992 -0.2808  0.2294  1.6154
  247MOL    H3149723   5.601   1.830   3.233 -3.4266 -2.1563 -1.4349
  247MOL    C3249724   5.791   1.771   3.228  0.3029 -0.4363 -0.0820
  247MOL    O3349725   5.885   1.725   3.161  1.1073 -0.3432 -0.3478
  247MOL    C3449726   5.811   1.840   3.360  0.7167 -0.0736 -0.4598
  247MOL    C3549727   5.883   1.975   3.362 -0.3161  0.7489 -0.3797
  247MOL    N3649728   5.800   2.089   3.321  0.3118  0.0044 -0.1260
  247MOL    H3749729   5.870   1.775   3.424 -1.3283  1.1515  2.7994
  247MOL    H3849730   5.713   1.850   3.407  0.8202 -3.2759  0.5186
  247MOL    H3949731   5.925   1.989   3.462 -1.8592  0.9197  0.2636
  247MOL    H4049732   5.972   1.960   3.300  1.4565 -0.3599  2.3559
  247MOL    H4149733   5.700   2.073   3.313  0.1553 -0.4831  2.3523
  247MOL    C4249734   5.850   2.210   3.283  0.6219 -0.2124 -0.4532
  247MOL    O4349735   5.766   2.301   3.269 -0.2364 -0.3777  1.0382
  247MOL    C4449736   6.003   2.242   3.281 -0.5214  0.2120 -0.6003
  247MOL    C4549737   6.050   2.389   3.288 -0.3926  0.2731 -0.5027
  247MOL    N4649738   6.002   2.465   3.166  0.1102 -0.3222  0.0918
  247MOL    H4749739   6.041   2.182   3.365 -1.0783  0.6810 -0.0098
  247MOL    H4849740   6.037   2.186   3.194  1.4233 -0.2016  0.3863
  247MOL    H4949741   6.011   2.436   3.378 -0.5158 -0.6188 -0.0839
  247MOL    H5049742   6.158   2.397   3.294 -0.4196  1.0757 -0.9450
  247MOL    H5149743   5.922   2.433   3.113 -0.8183  2.8441 -0.5213
  247MOL    C5249744   6.058   2.576   3.118 -1.0754 -0.7500 -0.1859
  247MOL    O5349745   6.165   2.626   3.157  0.2865 -0.0410 -0.4581
  247MOL    C5449746   5.980   2.645   3.010  0.4559  0.1780 -0.5013
  247MOL    C5549747   6.039   2.614   2.872 -0.0321  0.0241 -0.0008
  247MOL    N5649748   6.013   2.477   2.816 -0.6684  0.1513 -0.2728
  247MOL    H5749749   5.876   2.615   3.004  0.7240 -0.8780  0.0038
  247MOL    H5849750   5.965   2.747   3.046 -0.5295 -0.4130  0.7890
  247MOL    H5949751   6.147   2.628   2.883 -0.3340  2.5208 -0.0837
  247MOL    H6049752   6.001   2.686   2.800 -1.7534  1.3125  2.1841
  247MOL    H6149753   5.954   2.418   2.873  1.1677 -2.7012 -1.2402
  247MOL    C6249754   6.062   2.433   2.701  0.0030  0.8062 -1.0420
  247MOL    O6349755   6.146   2.502   2.645  0.0398  0.0614 -0.1719
  247MOL    C6449756   6.007   2.297   2.644  0.2355  0.2385 -0.0826
  247MOL    C6549757   6.111   2.183   2.643  0.4662 -0.3183 -0.1973
  247MOL    N6649758   6.060   2.058   2.582 -0.2376  0.3029 -0.4527
  247MOL    H6749759   5.918   2.266   2.698 -0.0370 -2.3712 -1.9130
  247MOL    H6849760   5.969   2.315   2.543  0.5672  0.6492 -0.1332
  247MOL    H6949761   6.198   2.220   2.589 -0.1949  0.3328 -0.8194
  247MOL    H7049762   6.148   2.179   2.746 -1.2162  0.0720  0.4475
  247MOL    H7149763   6.051   1.973   2.637  1.1676  0.1881 -0.4015
  247MOL    C7249764   6.051   2.034   2.448 -0.6279  0.2351  0.7438
  247MOL    O7349765   6.085   2.111   2.361 -0.1185  0.1642 -0.3822
  247MOL    C7449766   5.998   1.900   2.404  0.0099 -0.1557  0.1521
  247MOL    C7549767   5.980   1.869   2.255 -0.1122 -0.0596 -0.0890
  247MOL    N7649768   5.917   1.964   2.167  0.3767  0.0868  0.2507
  247MOL    H7749769   6.057   1.822   2.452  0.7540  0.1975 -0.1700
  247MOL    H7849770   5.897   1.905   2.444 -0.5307 -0.1052 -1.1825
  247MOL    H7949771   6.079   1.839   2.220 -0.7085  1.7286 -3.6357
  247MOL    H8049772   5.925   1.775   2.258  0.8607 -0.6376 -0.1363
  247MOL    H8149773   5.979   2.038   2.138 -1.3625  0.4470 -2.7536
  247MOL    C8249774   5.796   1.976   2.116  0.1672  0.4972  0.8663
  247MOL    O8349775   5.705   1.893   2.129 -0.0017 -0.2462 -0.0698
  247MOL    C8449776   5.764   2.107   2.046 -0.6739  0.4259  0.9155
  247MOL    C8549777   5.667   2.105   1.930  0.1791  0.2414 -0.1834
  247MOL    N8649778   5.712   2.046   1.805 -0.3446  0.1085  0.0763
  247MOL    H8749779   5.724   2.174   2.123  1.0252  2.2326  0.2720
  247MOL    H8849780   5.852   2.167   2.020  0.6535 -1.8214  0.0837
  247MOL    H8949781   5.569   2.065   1.955  0.5981 -0.5718  0.1638
  247MOL    H9049782   5.632   2.204   1.900  1.2197  0.8409  0.5423
  247MOL    H9149783   5.809   2.071   1.791 -0.7396  0.3667 -2.3929
  247MOL    C9249784   5.651   1.969   1.717 -0.9228  0.4766 -0.2470
  247MOL    O9349785   5.537   1.929   1.740  0.2860 -0.1986  0.8087
  247MOL    C9449786   5.732   1.930   1.591 -0.2458 -0.4250  0.0822
  247MOL    C9549787   5.689   1.801   1.521 -0.7175  0.3332 -0.1881
  247MOL    N9649788   5.734   1.677   1.581  0.2973  0.3452  0.4721
  247MOL    H9749789   5.727   2.012   1.519  0.1137  0.2847  0.8562
  247MOL    H9849790   5.834   1.922   1.627 -0.8503 -0.6440  1.7756
  247MOL    H9949791   5.580   1.791   1.518 -0.9444  2.9822 -2.6074
  247MOL   H10049792   5.725   1.817   1.419  0.8674  2.2328  0.6548
  247MOL   H10149793   5.690   1.634   1.661  1.4671 -1.8091 -0.0052
  247MOL   C10249794   5.853   1.624   1.536  0.1938 -0.0073 -0.3961
  247MOL   O10349795   5.913   1.653   1.436 -0.8609 -0.2263  1.3506
  247MOL   C10449796   5.918   1.522   1.627 -0.2158  0.5741  0.2209
  247MOL   C10549797   6.069   1.521   1.649  0.7220 -1.1409 -0.0886
  247MOL   N10649798   6.115   1.390   1.700 -0.5667  0.0808 -0.5891
  247MOL   H10749799   5.884   1.429   1.580 -0.5603  2.1510 -2.8061
  247MOL   H10849800   5.878   1.536   1.727 -0.3275  2.2871 -0.0488
  247MOL   H10949801   6.121   1.544   1.555 -0.5242  1.9241 -0.0872
  247MOL   H11049802   6.080   1.612   1.709 -1.8600 -0.6262 -0.3502
  247MOL   H11149803   6.120   1.382   1.800 -3.3760  1.2806 -0.3224
  247MOL   C11249804   6.161   1.285   1.629 -0.6552  0.0252 -0.2300
  247MOL   O11349805   6.177   1.287   1.507  0.1465  1.0333 -0.3168
  247MOL   C11449806   6.215   1.166   1.720 -0.0105  1.1214 -1.1622
  247MOL   C11549807   6.366   1.170   1.742 -0.8523  0.0511 -0.1251
  247MOL   N11649808   6.399   1.141   1.882 -0.2920 -0.3931 -0.4171
  247MOL   H11749809   6.193   1.071   1.671  2.0481 -0.2151  0.4081
  247MOL   H11849810   6.171   1.168   1.820  2.1207  0.2496 -0.1806
  247MOL   H11949811   6.413   1.083   1.694  0.4554  1.1967 -0.9682
  247MOL   H12049812   6.411   1.263   1.708 -1.4454  1.2462  2.2947
  247MOL   H12149813   6.346   1.070   1.930  0.4814  0.3637  1.5744
  247MOL   C12249814   6.471   1.215   1.971  0.6501  0.1537 -0.0304
  247MOL   O12349815   6.513   1.326   1.936 -0.2547 -0.1794 -0.4785
  247MOL   C12449816   6.474   1.175   2.118  0.5818 -0.1047  0.2038
  247MOL   C12549817   6.575   1.259   2.198  0.5141  0.8164  0.0633
  247MOL   N12649818   6.714   1.212   2.184 -0.5873 -0.0253 -0.3217
  247MOL   H12749819   6.493   1.068   2.128  1.6254  0.0043 -0.5383
  247MOL   H12849820   6.376   1.198   2.160  1.4738  1.0596  1.6853
  247MOL   H12949821   6.561   1.367   2.188  2.9724  1.0873 -0.8476
  247MOL   H13049822   6.542   1.240   2.300  0.0382 -0.5440 -0.3342
  247MOL   H13149823   6.724   1.113   2.165 -1.0923 -0.3662  1.1777
  247MOL   C13249824   6.831   1.285   2.176 -0.1899 -0.6029 -0.1032
  247MOL   O13349825   6.826   1.407   2.187 -0.6588  0.3831  0.1412
  247MOL   C13449826   6.960   1.208   2.144 -0.1990  0.3169  0.4118
  247MOL   C13549827   7.093   1.284   2.145 -0.1876 -0.0562 -0.4371
  247MOL   N13649828   7.109   1.372   2.027  0.1118 -0.2485 -0.2089
  247MOL   H13749829   6.937   1.168   2.046 -0.4969 -0.8697  0.9629
  247MOL   H13849830   6.984   1.121   2.204  2.3804  1.3833  0.9852
  247MOL   H13949831   7.100   1.351   2.232 -3.6857 -2.1329  1.5531
  247MOL   H14049832   7.170   1.213   2.175 -1.2369 -0.7601  0.6291
  247MOL   H14149833   7.086   1.470   2.034  1.8987  0.2530 -1.1398
  247MOL   C14249834   7.185   1.339   1.924 -0.2434  0.3616  0.2598
  247MOL   O14349835   7.248   1.233   1.913  0.3331 -0.0618  0.3151
  247MOL   C14449836   7.206   1.457   1.825 -0.8651  0.7867  0.5450
  247MOL   C14549837   7.358   1.457   1.781  0.6728  0.0525  0.2227
  247MOL   N14649838   7.388   1.552   1.681 -0.0351  0.3457  0.0145
  247MOL   H14749839   7.182   1.558   1.861 -1.1855  0.4998  1.1484
  247MOL   H14849840   7.138   1.445   1.740  1.5690 -0.0122 -1.3281
  247MOL   H14949841   7.425   1.458   1.868  0.8741 -2.6228  0.1283
  247MOL   H15049842   7.381   1.361   1.737  0.0743 -0.0811  0.1980
  247MOL   H15149843   7.442   1.628   1.720 -2.1217  1.5648  0.5782
  247MOL   C15249844   7.381   1.547   1.552  0.0684 -0.0010  0.0790
  247MOL   O15349845   7.330   1.449   1.495  0.2657 -0.2325  0.2447
  247MOL   C15449846   7.461   1.659   1.483 -0.3866 -0.4493 -0.0436
  247MOL   C15549847   7.502   1.640   1.339  0.2658  0.4241  0.5281
  247MOL   N15649848   7.383   1.620   1.257 -0.0074  0.7995 -0.3352
  247MOL   H15749849   7.556   1.683   1.532 -0.2355  0.5077 -0.7896
  247MOL   H15849850   7.404   1.752   1.490  3.1575  1.8255 -0.3403
  247MOL   H15949851   7.554   1.730   1.305  2.6886 -1.1560 -0.0070
  247MOL   H16049852   7.579   1.564   1.334  0.9501  1.1714 -0.3540
  247MOL   H16149853   7.328   1.536   1.262 -0.2919  0.9739 -0.5793
  247MOL   C16249854   7.335   1.716   1.178 -0.2128  0.1232 -0.3924
  247MOL   O16349855   7.393   1.817   1.136  0.0751 -0.1452  1.0574
  247MOL   C16449856   7.187   1.700   1.128 -0.5183 -0.3930  0.7096
  247MOL   C16549857   7.172   1.720   0.979  0.0258  0.1110 -0.3828
  247MOL   N16649858   7.144   1.583   0.923  0.0590 -0.7945 -0.0376
  247MOL   H16749859   7.131   1.779   1.177  0.7900  0.0547  1.5206
  247MOL   H16849860   7.147   1.609   1.173  1.8816 -0.9148  1.8528
  247MOL   H16949861   7.086   1.785   0.961  0.3350  0.2794 -1.2609
  247MOL   H17049862   7.258   1.767   0.932  0.7478 -1.3361 -0.5357
  247MOL   H17149863   7.221   1.536   0.878 -0.0208 -1.0579  0.1037
  247MOL   C17249864   7.024   1.527   0.894 -0.6388 -0.0086  0.7245
  247MOL   O17349865   6.920   1.591   0.911  0.2475 -0.2502  0.1526
  247MOL   C17449866   7.014   1.374   0.846  0.2478 -0.3172 -1.0913
  247MOL   C17549867   6.895   1.303   0.911  0.4770 -0.1959  0.2695
  247MOL   N17649868   6.903   1.161   0.918  0.1463 -0.1018 -0.0295
  247MOL   H17749869   7.109   1.322   0.862  0.2620  0.1730  0.4891
  247MOL   H17849870   6.992   1.378   0.740 -1.6712 -1.1090 -0.7413
  247MOL   H17949871   6.900   1.338   1.014 -1.1476  0.3277  0.1902
  247MOL   H18049872   6.803   1.354   0.882  1.5474  2.5494  1.5295
  247MOL   H18149873   6.981   1.109   0.882  0.4356  0.3414 -0.0366
  247MOL   C18249874   6.808   1.082   0.968 -0.5885 -0.3672  0.1007
  247MOL   O18349875   6.702   1.130   1.017 -0.2065  0.3439  0.0578
  247MOL   C18449876   6.826   0.925   0.975 -0.0342  0.0026  0.2524
  247MOL   C18549877   6.712   0.851   0.907  0.7942  0.0004  0.3797
  247MOL   N18649878   6.576   0.880   0.966 -0.1843  0.1770  0.4256
  247MOL   H18749879   6.843   0.901   1.080  0.9476  0.7173  0.2665
  247MOL   H18849880   6.922   0.914   0.926  1.0077 -0.5058  2.3700
  247MOL   H18949881   6.717   0.880   0.802  1.9965 -3.3603 -0.5566
  247MOL   H19049882   6.730   0.743   0.902 -1.7759 -0.5464  1.8449
  247MOL   H19149883   6.566   0.973   1.004 -0.6721  0.8846 -1.3524
  247MOL   C19249884   6.484   0.790   0.984  0.9030  0.1755  0.2566
  247MOL   O19349885   6.503   0.676   0.952 -0.0051  1.1915  0.2939
  247MOL   C19449886   6.354   0.834   1.049 -0.1430  0.0222 -0.5881
  247MOL   C19549887   6.225   0.778   0.984  0.6350  0.0927 -0.1910
  247MOL   N19649888   6.205   0.814   0.841 -0.0120  0.0847 -0.0834
  247MOL   H19749889   6.358   0.809   1.155  0.6029  0.5393 -0.4905
  247MOL   H19849890   6.357   0.942   1.035 -0.4931  0.2414  0.9604
  247MOL   H19949891   6.226   0.669   0.985  1.1238  0.1050  1.3838
  247MOL   H20049892   6.143   0.824   1.039  1.7730 -0.0548  1.6627
  247MOL   H20149893   6.239   0.736   0.786  1.4805  1.0748 -0.5696
  247MOL   H20249894   6.106   0.812   0.821  0.0471  2.2162 -0.7267
   7.78022   7.78022   7.78022
