;
; Gromacs include topology (itp) file.
; For Molecular Group XYZ
; Force field scheme: opls2005
; Produced from DL_FIELD v4.11
;


[ moleculetype ]
; name    nrexcl
XYZ    3

[ atoms ]
; nr   type   resnr   residu    atom    cgnr    charge    mass
    1       CO4    1  MOL      C1     1   0.4500000   12.0115
    2         O    1  MOL      O2     2  -0.4500000   15.9994
    3        CT    1  MOL      C3     3  -0.1200000   12.0115
    4        CT    1  MOL      C4     4   0.0800000   12.0115
    5         N    1  MOL      N5     5  -0.5000000   14.0067
    6       HAE    1  MOL      H6     6   0.0600000    1.0080
    7       HAE    1  MOL      H7     7   0.0600000    1.0080
    8        HC    1  MOL      H8     8   0.0600000    1.0080
    9        HC    1  MOL      H9     9   0.0600000    1.0080
   10         H    1  MOL     H10    10   0.3000000    1.0080
   11       HAE    1  MOL     H11    11   0.0000000    1.0080
   12         C    1  MOL     C12    12   0.5000000   12.0115
   13         O    1  MOL     O13    13  -0.5000000   15.9994
   14        CT    1  MOL     C14    14  -0.1200000   12.0115
   15        CT    1  MOL     C15    15   0.0800000   12.0115
   16         N    1  MOL     N16    16  -0.5000000   14.0067
   17        HC    1  MOL     H17    17   0.0600000    1.0080
   18        HC    1  MOL     H18    18   0.0600000    1.0080
   19        HC    1  MOL     H19    19   0.0600000    1.0080
   20        HC    1  MOL     H20    20   0.0600000    1.0080
   21         H    1  MOL     H21    21   0.3000000    1.0080
   22         C    1  MOL     C22    22   0.5000000   12.0115
   23         O    1  MOL     O23    23  -0.5000000   15.9994
   24        CT    1  MOL     C24    24  -0.1200000   12.0115
   25        CT    1  MOL     C25    25   0.0800000   12.0115
   26         N    1  MOL     N26    26  -0.5000000   14.0067
   27        HC    1  MOL     H27    27   0.0600000    1.0080
   28        HC    1  MOL     H28    28   0.0600000    1.0080
   29        HC    1  MOL     H29    29   0.0600000    1.0080
   30        HC    1  MOL     H30    30   0.0600000    1.0080
   31         H    1  MOL     H31    31   0.3000000    1.0080
   32         C    1  MOL     C32    32   0.5000000   12.0115
   33         O    1  MOL     O33    33  -0.5000000   15.9994
   34        CT    1  MOL     C34    34  -0.1200000   12.0115
   35        CT    1  MOL     C35    35   0.0800000   12.0115
   36         N    1  MOL     N36    36  -0.5000000   14.0067
   37        HC    1  MOL     H37    37   0.0600000    1.0080
   38        HC    1  MOL     H38    38   0.0600000    1.0080
   39        HC    1  MOL     H39    39   0.0600000    1.0080
   40        HC    1  MOL     H40    40   0.0600000    1.0080
   41         H    1  MOL     H41    41   0.3000000    1.0080
   42         C    1  MOL     C42    42   0.5000000   12.0115
   43         O    1  MOL     O43    43  -0.5000000   15.9994
   44        CT    1  MOL     C44    44  -0.1200000   12.0115
   45        CT    1  MOL     C45    45   0.0800000   12.0115
   46         N    1  MOL     N46    46  -0.5000000   14.0067
   47        HC    1  MOL     H47    47   0.0600000    1.0080
   48        HC    1  MOL     H48    48   0.0600000    1.0080
   49        HC    1  MOL     H49    49   0.0600000    1.0080
   50        HC    1  MOL     H50    50   0.0600000    1.0080
   51         H    1  MOL     H51    51   0.3000000    1.0080
   52         C    1  MOL     C52    52   0.5000000   12.0115
   53         O    1  MOL     O53    53  -0.5000000   15.9994
   54        CT    1  MOL     C54    54  -0.1200000   12.0115
   55        CT    1  MOL     C55    55   0.0800000   12.0115
   56         N    1  MOL     N56    56  -0.5000000   14.0067
   57        HC    1  MOL     H57    57   0.0600000    1.0080
   58        HC    1  MOL     H58    58   0.0600000    1.0080
   59        HC    1  MOL     H59    59   0.0600000    1.0080
   60        HC    1  MOL     H60    60   0.0600000    1.0080
   61         H    1  MOL     H61    61   0.3000000    1.0080
   62         C    1  MOL     C62    62   0.5000000   12.0115
   63         O    1  MOL     O63    63  -0.5000000   15.9994
   64        CT    1  MOL     C64    64  -0.1200000   12.0115
   65        CT    1  MOL     C65    65   0.0800000   12.0115
   66         N    1  MOL     N66    66  -0.5000000   14.0067
   67        HC    1  MOL     H67    67   0.0600000    1.0080
   68        HC    1  MOL     H68    68   0.0600000    1.0080
   69        HC    1  MOL     H69    69   0.0600000    1.0080
   70        HC    1  MOL     H70    70   0.0600000    1.0080
   71         H    1  MOL     H71    71   0.3000000    1.0080
   72         C    1  MOL     C72    72   0.5000000   12.0115
   73         O    1  MOL     O73    73  -0.5000000   15.9994
   74        CT    1  MOL     C74    74  -0.1200000   12.0115
   75        CT    1  MOL     C75    75   0.0800000   12.0115
   76         N    1  MOL     N76    76  -0.5000000   14.0067
   77        HC    1  MOL     H77    77   0.0600000    1.0080
   78        HC    1  MOL     H78    78   0.0600000    1.0080
   79        HC    1  MOL     H79    79   0.0600000    1.0080
   80        HC    1  MOL     H80    80   0.0600000    1.0080
   81         H    1  MOL     H81    81   0.3000000    1.0080
   82         C    1  MOL     C82    82   0.5000000   12.0115
   83         O    1  MOL     O83    83  -0.5000000   15.9994
   84        CT    1  MOL     C84    84  -0.1200000   12.0115
   85        CT    1  MOL     C85    85   0.0800000   12.0115
   86         N    1  MOL     N86    86  -0.5000000   14.0067
   87        HC    1  MOL     H87    87   0.0600000    1.0080
   88        HC    1  MOL     H88    88   0.0600000    1.0080
   89        HC    1  MOL     H89    89   0.0600000    1.0080
   90        HC    1  MOL     H90    90   0.0600000    1.0080
   91         H    1  MOL     H91    91   0.3000000    1.0080
   92         C    1  MOL     C92    92   0.5000000   12.0115
   93         O    1  MOL     O93    93  -0.5000000   15.9994
   94        CT    1  MOL     C94    94  -0.1200000   12.0115
   95        CT    1  MOL     C95    95   0.0800000   12.0115
   96         N    1  MOL     N96    96  -0.5000000   14.0067
   97        HC    1  MOL     H97    97   0.0600000    1.0080
   98        HC    1  MOL     H98    98   0.0600000    1.0080
   99        HC    1  MOL     H99    99   0.0600000    1.0080
  100        HC    1  MOL    H100   100   0.0600000    1.0080
  101         H    1  MOL    H101   101   0.3000000    1.0080
  102         C    1  MOL    C102   102   0.5000000   12.0115
  103         O    1  MOL    O103   103  -0.5000000   15.9994
  104        CT    1  MOL    C104   104  -0.1200000   12.0115
  105        CT    1  MOL    C105   105   0.0800000   12.0115
  106         N    1  MOL    N106   106  -0.5000000   14.0067
  107        HC    1  MOL    H107   107   0.0600000    1.0080
  108        HC    1  MOL    H108   108   0.0600000    1.0080
  109        HC    1  MOL    H109   109   0.0600000    1.0080
  110        HC    1  MOL    H110   110   0.0600000    1.0080
  111         H    1  MOL    H111   111   0.3000000    1.0080
  112         C    1  MOL    C112   112   0.5000000   12.0115
  113         O    1  MOL    O113   113  -0.5000000   15.9994
  114        CT    1  MOL    C114   114  -0.1200000   12.0115
  115        CT    1  MOL    C115   115   0.0800000   12.0115
  116         N    1  MOL    N116   116  -0.5000000   14.0067
  117        HC    1  MOL    H117   117   0.0600000    1.0080
  118        HC    1  MOL    H118   118   0.0600000    1.0080
  119        HC    1  MOL    H119   119   0.0600000    1.0080
  120        HC    1  MOL    H120   120   0.0600000    1.0080
  121         H    1  MOL    H121   121   0.3000000    1.0080
  122         C    1  MOL    C122   122   0.5000000   12.0115
  123         O    1  MOL    O123   123  -0.5000000   15.9994
  124        CT    1  MOL    C124   124  -0.1200000   12.0115
  125        CT    1  MOL    C125   125   0.0800000   12.0115
  126         N    1  MOL    N126   126  -0.5000000   14.0067
  127        HC    1  MOL    H127   127   0.0600000    1.0080
  128        HC    1  MOL    H128   128   0.0600000    1.0080
  129        HC    1  MOL    H129   129   0.0600000    1.0080
  130        HC    1  MOL    H130   130   0.0600000    1.0080
  131         H    1  MOL    H131   131   0.3000000    1.0080
  132         C    1  MOL    C132   132   0.5000000   12.0115
  133         O    1  MOL    O133   133  -0.5000000   15.9994
  134        CT    1  MOL    C134   134  -0.1200000   12.0115
  135        CT    1  MOL    C135   135   0.0800000   12.0115
  136         N    1  MOL    N136   136  -0.5000000   14.0067
  137        HC    1  MOL    H137   137   0.0600000    1.0080
  138        HC    1  MOL    H138   138   0.0600000    1.0080
  139        HC    1  MOL    H139   139   0.0600000    1.0080
  140        HC    1  MOL    H140   140   0.0600000    1.0080
  141         H    1  MOL    H141   141   0.3000000    1.0080
  142         C    1  MOL    C142   142   0.5000000   12.0115
  143         O    1  MOL    O143   143  -0.5000000   15.9994
  144        CT    1  MOL    C144   144  -0.1200000   12.0115
  145        CT    1  MOL    C145   145   0.0800000   12.0115
  146         N    1  MOL    N146   146  -0.5000000   14.0067
  147        HC    1  MOL    H147   147   0.0600000    1.0080
  148        HC    1  MOL    H148   148   0.0600000    1.0080
  149        HC    1  MOL    H149   149   0.0600000    1.0080
  150        HC    1  MOL    H150   150   0.0600000    1.0080
  151         H    1  MOL    H151   151   0.3000000    1.0080
  152         C    1  MOL    C152   152   0.5000000   12.0115
  153         O    1  MOL    O153   153  -0.5000000   15.9994
  154        CT    1  MOL    C154   154  -0.1200000   12.0115
  155        CT    1  MOL    C155   155   0.0800000   12.0115
  156         N    1  MOL    N156   156  -0.5000000   14.0067
  157        HC    1  MOL    H157   157   0.0600000    1.0080
  158        HC    1  MOL    H158   158   0.0600000    1.0080
  159        HC    1  MOL    H159   159   0.0600000    1.0080
  160        HC    1  MOL    H160   160   0.0600000    1.0080
  161         H    1  MOL    H161   161   0.3000000    1.0080
  162         C    1  MOL    C162   162   0.5000000   12.0115
  163         O    1  MOL    O163   163  -0.5000000   15.9994
  164        CT    1  MOL    C164   164  -0.1200000   12.0115
  165        CT    1  MOL    C165   165   0.0800000   12.0115
  166         N    1  MOL    N166   166  -0.5000000   14.0067
  167        HC    1  MOL    H167   167   0.0600000    1.0080
  168        HC    1  MOL    H168   168   0.0600000    1.0080
  169        HC    1  MOL    H169   169   0.0600000    1.0080
  170        HC    1  MOL    H170   170   0.0600000    1.0080
  171         H    1  MOL    H171   171   0.3000000    1.0080
  172         C    1  MOL    C172   172   0.5000000   12.0115
  173         O    1  MOL    O173   173  -0.5000000   15.9994
  174        CT    1  MOL    C174   174  -0.1200000   12.0115
  175        CT    1  MOL    C175   175   0.0800000   12.0115
  176         N    1  MOL    N176   176  -0.5000000   14.0067
  177        HC    1  MOL    H177   177   0.0600000    1.0080
  178        HC    1  MOL    H178   178   0.0600000    1.0080
  179        HC    1  MOL    H179   179   0.0600000    1.0080
  180        HC    1  MOL    H180   180   0.0600000    1.0080
  181         H    1  MOL    H181   181   0.3000000    1.0080
  182         C    1  MOL    C182   182   0.5000000   12.0115
  183         O    1  MOL    O183   183  -0.5000000   15.9994
  184        CT    1  MOL    C184   184  -0.1200000   12.0115
  185        CT    1  MOL    C185   185   0.0800000   12.0115
  186         N    1  MOL    N186   186  -0.5000000   14.0067
  187        HC    1  MOL    H187   187   0.0600000    1.0080
  188        HC    1  MOL    H188   188   0.0600000    1.0080
  189        HC    1  MOL    H189   189   0.0600000    1.0080
  190        HC    1  MOL    H190   190   0.0600000    1.0080
  191         H    1  MOL    H191   191   0.3000000    1.0080
  192         C    1  MOL    C192   192   0.5000000   12.0115
  193         O    1  MOL    O193   193  -0.5000000   15.9994
  194        CT    1  MOL    C194   194  -0.1200000   12.0115
  195        CT    1  MOL    C195   195   0.0600000   12.0115
  196        NT    1  MOL    N196   196  -0.9000000   14.0067
  197        HC    1  MOL    H197   197   0.0600000    1.0080
  198        HC    1  MOL    H198   198   0.0600000    1.0080
  199      HANI    1  MOL    H199   199   0.0600000    1.0080
  200      HANI    1  MOL    H200   200   0.0600000    1.0080
  201         H    1  MOL    H201   201   0.3600000    1.0080
  202         H    1  MOL    H202   202   0.3600000    1.0080

[ bonds ]
      1      2   1      0.1229 476976.0000
      1      3   1      0.1522 265265.6000
      1     11   1      0.1090 284512.0000
      3      4   1      0.1529 224262.4000
      3      6   1      0.1090 284512.0000
      3      7   1      0.1090 284512.0000
      4      5   1      0.1449 282001.6000
      4      8   1      0.1090 284512.0000
      4      9   1      0.1090 284512.0000
      5     10   1      0.1010 363171.2000
      5     12   1      0.1335 410032.0000
     12     13   1      0.1229 476976.0000
     12     14   1      0.1522 265265.6000
     14     15   1      0.1529 224262.4000
     14     17   1      0.1090 284512.0000
     14     18   1      0.1090 284512.0000
     15     16   1      0.1449 282001.6000
     15     19   1      0.1090 284512.0000
     15     20   1      0.1090 284512.0000
     16     21   1      0.1010 363171.2000
     16     22   1      0.1335 410032.0000
     22     23   1      0.1229 476976.0000
     22     24   1      0.1522 265265.6000
     24     25   1      0.1529 224262.4000
     24     27   1      0.1090 284512.0000
     24     28   1      0.1090 284512.0000
     25     26   1      0.1449 282001.6000
     25     29   1      0.1090 284512.0000
     25     30   1      0.1090 284512.0000
     26     31   1      0.1010 363171.2000
     26     32   1      0.1335 410032.0000
     32     33   1      0.1229 476976.0000
     32     34   1      0.1522 265265.6000
     34     35   1      0.1529 224262.4000
     34     37   1      0.1090 284512.0000
     34     38   1      0.1090 284512.0000
     35     36   1      0.1449 282001.6000
     35     39   1      0.1090 284512.0000
     35     40   1      0.1090 284512.0000
     36     41   1      0.1010 363171.2000
     36     42   1      0.1335 410032.0000
     42     43   1      0.1229 476976.0000
     42     44   1      0.1522 265265.6000
     44     45   1      0.1529 224262.4000
     44     47   1      0.1090 284512.0000
     44     48   1      0.1090 284512.0000
     45     46   1      0.1449 282001.6000
     45     49   1      0.1090 284512.0000
     45     50   1      0.1090 284512.0000
     46     51   1      0.1010 363171.2000
     46     52   1      0.1335 410032.0000
     52     53   1      0.1229 476976.0000
     52     54   1      0.1522 265265.6000
     54     55   1      0.1529 224262.4000
     54     57   1      0.1090 284512.0000
     54     58   1      0.1090 284512.0000
     55     56   1      0.1449 282001.6000
     55     59   1      0.1090 284512.0000
     55     60   1      0.1090 284512.0000
     56     61   1      0.1010 363171.2000
     56     62   1      0.1335 410032.0000
     62     63   1      0.1229 476976.0000
     62     64   1      0.1522 265265.6000
     64     65   1      0.1529 224262.4000
     64     67   1      0.1090 284512.0000
     64     68   1      0.1090 284512.0000
     65     66   1      0.1449 282001.6000
     65     69   1      0.1090 284512.0000
     65     70   1      0.1090 284512.0000
     66     71   1      0.1010 363171.2000
     66     72   1      0.1335 410032.0000
     72     73   1      0.1229 476976.0000
     72     74   1      0.1522 265265.6000
     74     75   1      0.1529 224262.4000
     74     77   1      0.1090 284512.0000
     74     78   1      0.1090 284512.0000
     75     76   1      0.1449 282001.6000
     75     79   1      0.1090 284512.0000
     75     80   1      0.1090 284512.0000
     76     81   1      0.1010 363171.2000
     76     82   1      0.1335 410032.0000
     82     83   1      0.1229 476976.0000
     82     84   1      0.1522 265265.6000
     84     85   1      0.1529 224262.4000
     84     87   1      0.1090 284512.0000
     84     88   1      0.1090 284512.0000
     85     86   1      0.1449 282001.6000
     85     89   1      0.1090 284512.0000
     85     90   1      0.1090 284512.0000
     86     91   1      0.1010 363171.2000
     86     92   1      0.1335 410032.0000
     92     93   1      0.1229 476976.0000
     92     94   1      0.1522 265265.6000
     94     95   1      0.1529 224262.4000
     94     97   1      0.1090 284512.0000
     94     98   1      0.1090 284512.0000
     95     96   1      0.1449 282001.6000
     95     99   1      0.1090 284512.0000
     95    100   1      0.1090 284512.0000
     96    101   1      0.1010 363171.2000
     96    102   1      0.1335 410032.0000
    102    103   1      0.1229 476976.0000
    102    104   1      0.1522 265265.6000
    104    105   1      0.1529 224262.4000
    104    107   1      0.1090 284512.0000
    104    108   1      0.1090 284512.0000
    105    106   1      0.1449 282001.6000
    105    109   1      0.1090 284512.0000
    105    110   1      0.1090 284512.0000
    106    111   1      0.1010 363171.2000
    106    112   1      0.1335 410032.0000
    112    113   1      0.1229 476976.0000
    112    114   1      0.1522 265265.6000
    114    115   1      0.1529 224262.4000
    114    117   1      0.1090 284512.0000
    114    118   1      0.1090 284512.0000
    115    116   1      0.1449 282001.6000
    115    119   1      0.1090 284512.0000
    115    120   1      0.1090 284512.0000
    116    121   1      0.1010 363171.2000
    116    122   1      0.1335 410032.0000
    122    123   1      0.1229 476976.0000
    122    124   1      0.1522 265265.6000
    124    125   1      0.1529 224262.4000
    124    127   1      0.1090 284512.0000
    124    128   1      0.1090 284512.0000
    125    126   1      0.1449 282001.6000
    125    129   1      0.1090 284512.0000
    125    130   1      0.1090 284512.0000
    126    131   1      0.1010 363171.2000
    126    132   1      0.1335 410032.0000
    132    133   1      0.1229 476976.0000
    132    134   1      0.1522 265265.6000
    134    135   1      0.1529 224262.4000
    134    137   1      0.1090 284512.0000
    134    138   1      0.1090 284512.0000
    135    136   1      0.1449 282001.6000
    135    139   1      0.1090 284512.0000
    135    140   1      0.1090 284512.0000
    136    141   1      0.1010 363171.2000
    136    142   1      0.1335 410032.0000
    142    143   1      0.1229 476976.0000
    142    144   1      0.1522 265265.6000
    144    145   1      0.1529 224262.4000
    144    147   1      0.1090 284512.0000
    144    148   1      0.1090 284512.0000
    145    146   1      0.1449 282001.6000
    145    149   1      0.1090 284512.0000
    145    150   1      0.1090 284512.0000
    146    151   1      0.1010 363171.2000
    146    152   1      0.1335 410032.0000
    152    153   1      0.1229 476976.0000
    152    154   1      0.1522 265265.6000
    154    155   1      0.1529 224262.4000
    154    157   1      0.1090 284512.0000
    154    158   1      0.1090 284512.0000
    155    156   1      0.1449 282001.6000
    155    159   1      0.1090 284512.0000
    155    160   1      0.1090 284512.0000
    156    161   1      0.1010 363171.2000
    156    162   1      0.1335 410032.0000
    162    163   1      0.1229 476976.0000
    162    164   1      0.1522 265265.6000
    164    165   1      0.1529 224262.4000
    164    167   1      0.1090 284512.0000
    164    168   1      0.1090 284512.0000
    165    166   1      0.1449 282001.6000
    165    169   1      0.1090 284512.0000
    165    170   1      0.1090 284512.0000
    166    171   1      0.1010 363171.2000
    166    172   1      0.1335 410032.0000
    172    173   1      0.1229 476976.0000
    172    174   1      0.1522 265265.6000
    174    175   1      0.1529 224262.4000
    174    177   1      0.1090 284512.0000
    174    178   1      0.1090 284512.0000
    175    176   1      0.1449 282001.6000
    175    179   1      0.1090 284512.0000
    175    180   1      0.1090 284512.0000
    176    181   1      0.1010 363171.2000
    176    182   1      0.1335 410032.0000
    182    183   1      0.1229 476976.0000
    182    184   1      0.1522 265265.6000
    184    185   1      0.1529 224262.4000
    184    187   1      0.1090 284512.0000
    184    188   1      0.1090 284512.0000
    185    186   1      0.1449 282001.6000
    185    189   1      0.1090 284512.0000
    185    190   1      0.1090 284512.0000
    186    191   1      0.1010 363171.2000
    186    192   1      0.1335 410032.0000
    192    193   1      0.1229 476976.0000
    192    194   1      0.1522 265265.6000
    194    195   1      0.1529 224262.4000
    194    197   1      0.1090 284512.0000
    194    198   1      0.1090 284512.0000
    195    196   1      0.1448 319657.6000
    195    199   1      0.1090 284512.0000
    195    200   1      0.1090 284512.0000
    196    201   1      0.1010 363171.2000
    196    202   1      0.1010 363171.2000

[ pairs ]
; ai   aj   funct   fudge_QQ  charge_i   charge_j   c6    c12
      2      4   2   0.50000    -0.4500000    0.0800000   1.095425e-03  1.218041e-06
      2      6   2   0.50000    -0.4500000    0.0600000   1.726228e-04  6.344822e-08
      2      7   2   0.50000    -0.4500000    0.0600000   1.726228e-04  6.344822e-08
     11      4   2   0.50000     0.0000000    0.0800000   1.599888e-04  9.721644e-08
     11      6   2   0.50000     0.0000000    0.0600000   2.521187e-05  5.064042e-09
     11      7   2   0.50000     0.0000000    0.0600000   2.521187e-05  5.064042e-09
      1      5   2   0.50000     0.4500000   -0.5000000   2.023880e-03  3.663773e-06
      1      8   2   0.50000     0.4500000    0.0600000   3.869820e-04  3.188634e-07
      1      9   2   0.50000     0.4500000    0.0600000   3.869820e-04  3.188634e-07
      6      5   2   0.50000     0.0600000   -0.5000000   2.055834e-04  1.000194e-07
      6      8   2   0.50000     0.0600000    0.0600000   3.930919e-05  8.704828e-09
      6      9   2   0.50000     0.0600000    0.0600000   3.930919e-05  8.704828e-09
      7      5   2   0.50000     0.0600000   -0.5000000   2.055834e-04  1.000194e-07
      7      8   2   0.50000     0.0600000    0.0600000   3.930919e-05  8.704828e-09
      7      9   2   0.50000     0.0600000    0.0600000   3.930919e-05  8.704828e-09
      3     10   2   0.50000    -0.1200000    0.3000000   1.995577e-06  1.069504e-11
      3     12   2   0.50000    -0.1200000    0.5000000   1.575021e-03  3.561100e-06
      8     10   2   0.50000     0.0600000    0.3000000   4.903125e-07  9.576416e-13
      8     12   2   0.50000     0.0600000    0.5000000   3.869820e-04  3.188634e-07
      9     10   2   0.50000     0.0600000    0.3000000   4.903125e-07  9.576416e-13
      9     12   2   0.50000     0.0600000    0.5000000   3.869820e-04  3.188634e-07
      4     13   2   0.50000     0.0800000   -0.5000000   1.095425e-03  1.218041e-06
      4     14   2   0.50000     0.0800000   -0.1200000   1.015252e-03  1.866303e-06
     10     13   2   0.50000     0.3000000   -0.5000000   2.153164e-06  6.980110e-12
     10     14   2   0.50000     0.3000000   -0.1200000   1.995577e-06  1.069504e-11
      5     15   2   0.50000    -0.5000000    0.0800000   1.304585e-03  1.920112e-06
      5     17   2   0.50000    -0.5000000    0.0600000   3.205360e-04  1.719281e-07
      5     18   2   0.50000    -0.5000000    0.0600000   3.205360e-04  1.719281e-07
     13     15   2   0.50000    -0.5000000    0.0800000   1.095425e-03  1.218041e-06
     13     17   2   0.50000    -0.5000000    0.0600000   2.691455e-04  1.090642e-07
     13     18   2   0.50000    -0.5000000    0.0600000   2.691455e-04  1.090642e-07
     12     16   2   0.50000     0.5000000   -0.5000000   2.023880e-03  3.663773e-06
     12     19   2   0.50000     0.5000000    0.0600000   3.869820e-04  3.188634e-07
     12     20   2   0.50000     0.5000000    0.0600000   3.869820e-04  3.188634e-07
     17     16   2   0.50000     0.0600000   -0.5000000   3.205360e-04  1.719281e-07
     17     19   2   0.50000     0.0600000    0.0600000   6.128906e-05  1.496315e-08
     17     20   2   0.50000     0.0600000    0.0600000   6.128906e-05  1.496315e-08
     18     16   2   0.50000     0.0600000   -0.5000000   3.205360e-04  1.719281e-07
     18     19   2   0.50000     0.0600000    0.0600000   6.128906e-05  1.496315e-08
     18     20   2   0.50000     0.0600000    0.0600000   6.128906e-05  1.496315e-08
     14     21   2   0.50000    -0.1200000    0.3000000   1.995577e-06  1.069504e-11
     14     22   2   0.50000    -0.1200000    0.5000000   1.575021e-03  3.561100e-06
     19     21   2   0.50000     0.0600000    0.3000000   4.903125e-07  9.576416e-13
     19     22   2   0.50000     0.0600000    0.5000000   3.869820e-04  3.188634e-07
     20     21   2   0.50000     0.0600000    0.3000000   4.903125e-07  9.576416e-13
     20     22   2   0.50000     0.0600000    0.5000000   3.869820e-04  3.188634e-07
     15     23   2   0.50000     0.0800000   -0.5000000   1.095425e-03  1.218041e-06
     15     24   2   0.50000     0.0800000   -0.1200000   1.015252e-03  1.866303e-06
     21     23   2   0.50000     0.3000000   -0.5000000   2.153164e-06  6.980110e-12
     21     24   2   0.50000     0.3000000   -0.1200000   1.995577e-06  1.069504e-11
     16     25   2   0.50000    -0.5000000    0.0800000   1.304585e-03  1.920112e-06
     16     27   2   0.50000    -0.5000000    0.0600000   3.205360e-04  1.719281e-07
     16     28   2   0.50000    -0.5000000    0.0600000   3.205360e-04  1.719281e-07
     23     25   2   0.50000    -0.5000000    0.0800000   1.095425e-03  1.218041e-06
     23     27   2   0.50000    -0.5000000    0.0600000   2.691455e-04  1.090642e-07
     23     28   2   0.50000    -0.5000000    0.0600000   2.691455e-04  1.090642e-07
     22     26   2   0.50000     0.5000000   -0.5000000   2.023880e-03  3.663773e-06
     22     29   2   0.50000     0.5000000    0.0600000   3.869820e-04  3.188634e-07
     22     30   2   0.50000     0.5000000    0.0600000   3.869820e-04  3.188634e-07
     27     26   2   0.50000     0.0600000   -0.5000000   3.205360e-04  1.719281e-07
     27     29   2   0.50000     0.0600000    0.0600000   6.128906e-05  1.496315e-08
     27     30   2   0.50000     0.0600000    0.0600000   6.128906e-05  1.496315e-08
     28     26   2   0.50000     0.0600000   -0.5000000   3.205360e-04  1.719281e-07
     28     29   2   0.50000     0.0600000    0.0600000   6.128906e-05  1.496315e-08
     28     30   2   0.50000     0.0600000    0.0600000   6.128906e-05  1.496315e-08
     24     31   2   0.50000    -0.1200000    0.3000000   1.995577e-06  1.069504e-11
     24     32   2   0.50000    -0.1200000    0.5000000   1.575021e-03  3.561100e-06
     29     31   2   0.50000     0.0600000    0.3000000   4.903125e-07  9.576416e-13
     29     32   2   0.50000     0.0600000    0.5000000   3.869820e-04  3.188634e-07
     30     31   2   0.50000     0.0600000    0.3000000   4.903125e-07  9.576416e-13
     30     32   2   0.50000     0.0600000    0.5000000   3.869820e-04  3.188634e-07
     25     33   2   0.50000     0.0800000   -0.5000000   1.095425e-03  1.218041e-06
     25     34   2   0.50000     0.0800000   -0.1200000   1.015252e-03  1.866303e-06
     31     33   2   0.50000     0.3000000   -0.5000000   2.153164e-06  6.980110e-12
     31     34   2   0.50000     0.3000000   -0.1200000   1.995577e-06  1.069504e-11
     26     35   2   0.50000    -0.5000000    0.0800000   1.304585e-03  1.920112e-06
     26     37   2   0.50000    -0.5000000    0.0600000   3.205360e-04  1.719281e-07
     26     38   2   0.50000    -0.5000000    0.0600000   3.205360e-04  1.719281e-07
     33     35   2   0.50000    -0.5000000    0.0800000   1.095425e-03  1.218041e-06
     33     37   2   0.50000    -0.5000000    0.0600000   2.691455e-04  1.090642e-07
     33     38   2   0.50000    -0.5000000    0.0600000   2.691455e-04  1.090642e-07
     32     36   2   0.50000     0.5000000   -0.5000000   2.023880e-03  3.663773e-06
     32     39   2   0.50000     0.5000000    0.0600000   3.869820e-04  3.188634e-07
     32     40   2   0.50000     0.5000000    0.0600000   3.869820e-04  3.188634e-07
     37     36   2   0.50000     0.0600000   -0.5000000   3.205360e-04  1.719281e-07
     37     39   2   0.50000     0.0600000    0.0600000   6.128906e-05  1.496315e-08
     37     40   2   0.50000     0.0600000    0.0600000   6.128906e-05  1.496315e-08
     38     36   2   0.50000     0.0600000   -0.5000000   3.205360e-04  1.719281e-07
     38     39   2   0.50000     0.0600000    0.0600000   6.128906e-05  1.496315e-08
     38     40   2   0.50000     0.0600000    0.0600000   6.128906e-05  1.496315e-08
     34     41   2   0.50000    -0.1200000    0.3000000   1.995577e-06  1.069504e-11
     34     42   2   0.50000    -0.1200000    0.5000000   1.575021e-03  3.561100e-06
     39     41   2   0.50000     0.0600000    0.3000000   4.903125e-07  9.576416e-13
     39     42   2   0.50000     0.0600000    0.5000000   3.869820e-04  3.188634e-07
     40     41   2   0.50000     0.0600000    0.3000000   4.903125e-07  9.576416e-13
     40     42   2   0.50000     0.0600000    0.5000000   3.869820e-04  3.188634e-07
     35     43   2   0.50000     0.0800000   -0.5000000   1.095425e-03  1.218041e-06
     35     44   2   0.50000     0.0800000   -0.1200000   1.015252e-03  1.866303e-06
     41     43   2   0.50000     0.3000000   -0.5000000   2.153164e-06  6.980110e-12
     41     44   2   0.50000     0.3000000   -0.1200000   1.995577e-06  1.069504e-11
     36     45   2   0.50000    -0.5000000    0.0800000   1.304585e-03  1.920112e-06
     36     47   2   0.50000    -0.5000000    0.0600000   3.205360e-04  1.719281e-07
     36     48   2   0.50000    -0.5000000    0.0600000   3.205360e-04  1.719281e-07
     43     45   2   0.50000    -0.5000000    0.0800000   1.095425e-03  1.218041e-06
     43     47   2   0.50000    -0.5000000    0.0600000   2.691455e-04  1.090642e-07
     43     48   2   0.50000    -0.5000000    0.0600000   2.691455e-04  1.090642e-07
     42     46   2   0.50000     0.5000000   -0.5000000   2.023880e-03  3.663773e-06
     42     49   2   0.50000     0.5000000    0.0600000   3.869820e-04  3.188634e-07
     42     50   2   0.50000     0.5000000    0.0600000   3.869820e-04  3.188634e-07
     47     46   2   0.50000     0.0600000   -0.5000000   3.205360e-04  1.719281e-07
     47     49   2   0.50000     0.0600000    0.0600000   6.128906e-05  1.496315e-08
     47     50   2   0.50000     0.0600000    0.0600000   6.128906e-05  1.496315e-08
     48     46   2   0.50000     0.0600000   -0.5000000   3.205360e-04  1.719281e-07
     48     49   2   0.50000     0.0600000    0.0600000   6.128906e-05  1.496315e-08
     48     50   2   0.50000     0.0600000    0.0600000   6.128906e-05  1.496315e-08
     44     51   2   0.50000    -0.1200000    0.3000000   1.995577e-06  1.069504e-11
     44     52   2   0.50000    -0.1200000    0.5000000   1.575021e-03  3.561100e-06
     49     51   2   0.50000     0.0600000    0.3000000   4.903125e-07  9.576416e-13
     49     52   2   0.50000     0.0600000    0.5000000   3.869820e-04  3.188634e-07
     50     51   2   0.50000     0.0600000    0.3000000   4.903125e-07  9.576416e-13
     50     52   2   0.50000     0.0600000    0.5000000   3.869820e-04  3.188634e-07
     45     53   2   0.50000     0.0800000   -0.5000000   1.095425e-03  1.218041e-06
     45     54   2   0.50000     0.0800000   -0.1200000   1.015252e-03  1.866303e-06
     51     53   2   0.50000     0.3000000   -0.5000000   2.153164e-06  6.980110e-12
     51     54   2   0.50000     0.3000000   -0.1200000   1.995577e-06  1.069504e-11
     46     55   2   0.50000    -0.5000000    0.0800000   1.304585e-03  1.920112e-06
     46     57   2   0.50000    -0.5000000    0.0600000   3.205360e-04  1.719281e-07
     46     58   2   0.50000    -0.5000000    0.0600000   3.205360e-04  1.719281e-07
     53     55   2   0.50000    -0.5000000    0.0800000   1.095425e-03  1.218041e-06
     53     57   2   0.50000    -0.5000000    0.0600000   2.691455e-04  1.090642e-07
     53     58   2   0.50000    -0.5000000    0.0600000   2.691455e-04  1.090642e-07
     52     56   2   0.50000     0.5000000   -0.5000000   2.023880e-03  3.663773e-06
     52     59   2   0.50000     0.5000000    0.0600000   3.869820e-04  3.188634e-07
     52     60   2   0.50000     0.5000000    0.0600000   3.869820e-04  3.188634e-07
     57     56   2   0.50000     0.0600000   -0.5000000   3.205360e-04  1.719281e-07
     57     59   2   0.50000     0.0600000    0.0600000   6.128906e-05  1.496315e-08
     57     60   2   0.50000     0.0600000    0.0600000   6.128906e-05  1.496315e-08
     58     56   2   0.50000     0.0600000   -0.5000000   3.205360e-04  1.719281e-07
     58     59   2   0.50000     0.0600000    0.0600000   6.128906e-05  1.496315e-08
     58     60   2   0.50000     0.0600000    0.0600000   6.128906e-05  1.496315e-08
     54     61   2   0.50000    -0.1200000    0.3000000   1.995577e-06  1.069504e-11
     54     62   2   0.50000    -0.1200000    0.5000000   1.575021e-03  3.561100e-06
     59     61   2   0.50000     0.0600000    0.3000000   4.903125e-07  9.576416e-13
     59     62   2   0.50000     0.0600000    0.5000000   3.869820e-04  3.188634e-07
     60     61   2   0.50000     0.0600000    0.3000000   4.903125e-07  9.576416e-13
     60     62   2   0.50000     0.0600000    0.5000000   3.869820e-04  3.188634e-07
     55     63   2   0.50000     0.0800000   -0.5000000   1.095425e-03  1.218041e-06
     55     64   2   0.50000     0.0800000   -0.1200000   1.015252e-03  1.866303e-06
     61     63   2   0.50000     0.3000000   -0.5000000   2.153164e-06  6.980110e-12
     61     64   2   0.50000     0.3000000   -0.1200000   1.995577e-06  1.069504e-11
     56     65   2   0.50000    -0.5000000    0.0800000   1.304585e-03  1.920112e-06
     56     67   2   0.50000    -0.5000000    0.0600000   3.205360e-04  1.719281e-07
     56     68   2   0.50000    -0.5000000    0.0600000   3.205360e-04  1.719281e-07
     63     65   2   0.50000    -0.5000000    0.0800000   1.095425e-03  1.218041e-06
     63     67   2   0.50000    -0.5000000    0.0600000   2.691455e-04  1.090642e-07
     63     68   2   0.50000    -0.5000000    0.0600000   2.691455e-04  1.090642e-07
     62     66   2   0.50000     0.5000000   -0.5000000   2.023880e-03  3.663773e-06
     62     69   2   0.50000     0.5000000    0.0600000   3.869820e-04  3.188634e-07
     62     70   2   0.50000     0.5000000    0.0600000   3.869820e-04  3.188634e-07
     67     66   2   0.50000     0.0600000   -0.5000000   3.205360e-04  1.719281e-07
     67     69   2   0.50000     0.0600000    0.0600000   6.128906e-05  1.496315e-08
     67     70   2   0.50000     0.0600000    0.0600000   6.128906e-05  1.496315e-08
     68     66   2   0.50000     0.0600000   -0.5000000   3.205360e-04  1.719281e-07
     68     69   2   0.50000     0.0600000    0.0600000   6.128906e-05  1.496315e-08
     68     70   2   0.50000     0.0600000    0.0600000   6.128906e-05  1.496315e-08
     64     71   2   0.50000    -0.1200000    0.3000000   1.995577e-06  1.069504e-11
     64     72   2   0.50000    -0.1200000    0.5000000   1.575021e-03  3.561100e-06
     69     71   2   0.50000     0.0600000    0.3000000   4.903125e-07  9.576416e-13
     69     72   2   0.50000     0.0600000    0.5000000   3.869820e-04  3.188634e-07
     70     71   2   0.50000     0.0600000    0.3000000   4.903125e-07  9.576416e-13
     70     72   2   0.50000     0.0600000    0.5000000   3.869820e-04  3.188634e-07
     65     73   2   0.50000     0.0800000   -0.5000000   1.095425e-03  1.218041e-06
     65     74   2   0.50000     0.0800000   -0.1200000   1.015252e-03  1.866303e-06
     71     73   2   0.50000     0.3000000   -0.5000000   2.153164e-06  6.980110e-12
     71     74   2   0.50000     0.3000000   -0.1200000   1.995577e-06  1.069504e-11
     66     75   2   0.50000    -0.5000000    0.0800000   1.304585e-03  1.920112e-06
     66     77   2   0.50000    -0.5000000    0.0600000   3.205360e-04  1.719281e-07
     66     78   2   0.50000    -0.5000000    0.0600000   3.205360e-04  1.719281e-07
     73     75   2   0.50000    -0.5000000    0.0800000   1.095425e-03  1.218041e-06
     73     77   2   0.50000    -0.5000000    0.0600000   2.691455e-04  1.090642e-07
     73     78   2   0.50000    -0.5000000    0.0600000   2.691455e-04  1.090642e-07
     72     76   2   0.50000     0.5000000   -0.5000000   2.023880e-03  3.663773e-06
     72     79   2   0.50000     0.5000000    0.0600000   3.869820e-04  3.188634e-07
     72     80   2   0.50000     0.5000000    0.0600000   3.869820e-04  3.188634e-07
     77     76   2   0.50000     0.0600000   -0.5000000   3.205360e-04  1.719281e-07
     77     79   2   0.50000     0.0600000    0.0600000   6.128906e-05  1.496315e-08
     77     80   2   0.50000     0.0600000    0.0600000   6.128906e-05  1.496315e-08
     78     76   2   0.50000     0.0600000   -0.5000000   3.205360e-04  1.719281e-07
     78     79   2   0.50000     0.0600000    0.0600000   6.128906e-05  1.496315e-08
     78     80   2   0.50000     0.0600000    0.0600000   6.128906e-05  1.496315e-08
     74     81   2   0.50000    -0.1200000    0.3000000   1.995577e-06  1.069504e-11
     74     82   2   0.50000    -0.1200000    0.5000000   1.575021e-03  3.561100e-06
     79     81   2   0.50000     0.0600000    0.3000000   4.903125e-07  9.576416e-13
     79     82   2   0.50000     0.0600000    0.5000000   3.869820e-04  3.188634e-07
     80     81   2   0.50000     0.0600000    0.3000000   4.903125e-07  9.576416e-13
     80     82   2   0.50000     0.0600000    0.5000000   3.869820e-04  3.188634e-07
     75     83   2   0.50000     0.0800000   -0.5000000   1.095425e-03  1.218041e-06
     75     84   2   0.50000     0.0800000   -0.1200000   1.015252e-03  1.866303e-06
     81     83   2   0.50000     0.3000000   -0.5000000   2.153164e-06  6.980110e-12
     81     84   2   0.50000     0.3000000   -0.1200000   1.995577e-06  1.069504e-11
     76     85   2   0.50000    -0.5000000    0.0800000   1.304585e-03  1.920112e-06
     76     87   2   0.50000    -0.5000000    0.0600000   3.205360e-04  1.719281e-07
     76     88   2   0.50000    -0.5000000    0.0600000   3.205360e-04  1.719281e-07
     83     85   2   0.50000    -0.5000000    0.0800000   1.095425e-03  1.218041e-06
     83     87   2   0.50000    -0.5000000    0.0600000   2.691455e-04  1.090642e-07
     83     88   2   0.50000    -0.5000000    0.0600000   2.691455e-04  1.090642e-07
     82     86   2   0.50000     0.5000000   -0.5000000   2.023880e-03  3.663773e-06
     82     89   2   0.50000     0.5000000    0.0600000   3.869820e-04  3.188634e-07
     82     90   2   0.50000     0.5000000    0.0600000   3.869820e-04  3.188634e-07
     87     86   2   0.50000     0.0600000   -0.5000000   3.205360e-04  1.719281e-07
     87     89   2   0.50000     0.0600000    0.0600000   6.128906e-05  1.496315e-08
     87     90   2   0.50000     0.0600000    0.0600000   6.128906e-05  1.496315e-08
     88     86   2   0.50000     0.0600000   -0.5000000   3.205360e-04  1.719281e-07
     88     89   2   0.50000     0.0600000    0.0600000   6.128906e-05  1.496315e-08
     88     90   2   0.50000     0.0600000    0.0600000   6.128906e-05  1.496315e-08
     84     91   2   0.50000    -0.1200000    0.3000000   1.995577e-06  1.069504e-11
     84     92   2   0.50000    -0.1200000    0.5000000   1.575021e-03  3.561100e-06
     89     91   2   0.50000     0.0600000    0.3000000   4.903125e-07  9.576416e-13
     89     92   2   0.50000     0.0600000    0.5000000   3.869820e-04  3.188634e-07
     90     91   2   0.50000     0.0600000    0.3000000   4.903125e-07  9.576416e-13
     90     92   2   0.50000     0.0600000    0.5000000   3.869820e-04  3.188634e-07
     85     93   2   0.50000     0.0800000   -0.5000000   1.095425e-03  1.218041e-06
     85     94   2   0.50000     0.0800000   -0.1200000   1.015252e-03  1.866303e-06
     91     93   2   0.50000     0.3000000   -0.5000000   2.153164e-06  6.980110e-12
     91     94   2   0.50000     0.3000000   -0.1200000   1.995577e-06  1.069504e-11
     86     95   2   0.50000    -0.5000000    0.0800000   1.304585e-03  1.920112e-06
     86     97   2   0.50000    -0.5000000    0.0600000   3.205360e-04  1.719281e-07
     86     98   2   0.50000    -0.5000000    0.0600000   3.205360e-04  1.719281e-07
     93     95   2   0.50000    -0.5000000    0.0800000   1.095425e-03  1.218041e-06
     93     97   2   0.50000    -0.5000000    0.0600000   2.691455e-04  1.090642e-07
     93     98   2   0.50000    -0.5000000    0.0600000   2.691455e-04  1.090642e-07
     92     96   2   0.50000     0.5000000   -0.5000000   2.023880e-03  3.663773e-06
     92     99   2   0.50000     0.5000000    0.0600000   3.869820e-04  3.188634e-07
     92    100   2   0.50000     0.5000000    0.0600000   3.869820e-04  3.188634e-07
     97     96   2   0.50000     0.0600000   -0.5000000   3.205360e-04  1.719281e-07
     97     99   2   0.50000     0.0600000    0.0600000   6.128906e-05  1.496315e-08
     97    100   2   0.50000     0.0600000    0.0600000   6.128906e-05  1.496315e-08
     98     96   2   0.50000     0.0600000   -0.5000000   3.205360e-04  1.719281e-07
     98     99   2   0.50000     0.0600000    0.0600000   6.128906e-05  1.496315e-08
     98    100   2   0.50000     0.0600000    0.0600000   6.128906e-05  1.496315e-08
     94    101   2   0.50000    -0.1200000    0.3000000   1.995577e-06  1.069504e-11
     94    102   2   0.50000    -0.1200000    0.5000000   1.575021e-03  3.561100e-06
     99    101   2   0.50000     0.0600000    0.3000000   4.903125e-07  9.576416e-13
     99    102   2   0.50000     0.0600000    0.5000000   3.869820e-04  3.188634e-07
    100    101   2   0.50000     0.0600000    0.3000000   4.903125e-07  9.576416e-13
    100    102   2   0.50000     0.0600000    0.5000000   3.869820e-04  3.188634e-07
     95    103   2   0.50000     0.0800000   -0.5000000   1.095425e-03  1.218041e-06
     95    104   2   0.50000     0.0800000   -0.1200000   1.015252e-03  1.866303e-06
    101    103   2   0.50000     0.3000000   -0.5000000   2.153164e-06  6.980110e-12
    101    104   2   0.50000     0.3000000   -0.1200000   1.995577e-06  1.069504e-11
     96    105   2   0.50000    -0.5000000    0.0800000   1.304585e-03  1.920112e-06
     96    107   2   0.50000    -0.5000000    0.0600000   3.205360e-04  1.719281e-07
     96    108   2   0.50000    -0.5000000    0.0600000   3.205360e-04  1.719281e-07
    103    105   2   0.50000    -0.5000000    0.0800000   1.095425e-03  1.218041e-06
    103    107   2   0.50000    -0.5000000    0.0600000   2.691455e-04  1.090642e-07
    103    108   2   0.50000    -0.5000000    0.0600000   2.691455e-04  1.090642e-07
    102    106   2   0.50000     0.5000000   -0.5000000   2.023880e-03  3.663773e-06
    102    109   2   0.50000     0.5000000    0.0600000   3.869820e-04  3.188634e-07
    102    110   2   0.50000     0.5000000    0.0600000   3.869820e-04  3.188634e-07
    107    106   2   0.50000     0.0600000   -0.5000000   3.205360e-04  1.719281e-07
    107    109   2   0.50000     0.0600000    0.0600000   6.128906e-05  1.496315e-08
    107    110   2   0.50000     0.0600000    0.0600000   6.128906e-05  1.496315e-08
    108    106   2   0.50000     0.0600000   -0.5000000   3.205360e-04  1.719281e-07
    108    109   2   0.50000     0.0600000    0.0600000   6.128906e-05  1.496315e-08
    108    110   2   0.50000     0.0600000    0.0600000   6.128906e-05  1.496315e-08
    104    111   2   0.50000    -0.1200000    0.3000000   1.995577e-06  1.069504e-11
    104    112   2   0.50000    -0.1200000    0.5000000   1.575021e-03  3.561100e-06
    109    111   2   0.50000     0.0600000    0.3000000   4.903125e-07  9.576416e-13
    109    112   2   0.50000     0.0600000    0.5000000   3.869820e-04  3.188634e-07
    110    111   2   0.50000     0.0600000    0.3000000   4.903125e-07  9.576416e-13
    110    112   2   0.50000     0.0600000    0.5000000   3.869820e-04  3.188634e-07
    105    113   2   0.50000     0.0800000   -0.5000000   1.095425e-03  1.218041e-06
    105    114   2   0.50000     0.0800000   -0.1200000   1.015252e-03  1.866303e-06
    111    113   2   0.50000     0.3000000   -0.5000000   2.153164e-06  6.980110e-12
    111    114   2   0.50000     0.3000000   -0.1200000   1.995577e-06  1.069504e-11
    106    115   2   0.50000    -0.5000000    0.0800000   1.304585e-03  1.920112e-06
    106    117   2   0.50000    -0.5000000    0.0600000   3.205360e-04  1.719281e-07
    106    118   2   0.50000    -0.5000000    0.0600000   3.205360e-04  1.719281e-07
    113    115   2   0.50000    -0.5000000    0.0800000   1.095425e-03  1.218041e-06
    113    117   2   0.50000    -0.5000000    0.0600000   2.691455e-04  1.090642e-07
    113    118   2   0.50000    -0.5000000    0.0600000   2.691455e-04  1.090642e-07
    112    116   2   0.50000     0.5000000   -0.5000000   2.023880e-03  3.663773e-06
    112    119   2   0.50000     0.5000000    0.0600000   3.869820e-04  3.188634e-07
    112    120   2   0.50000     0.5000000    0.0600000   3.869820e-04  3.188634e-07
    117    116   2   0.50000     0.0600000   -0.5000000   3.205360e-04  1.719281e-07
    117    119   2   0.50000     0.0600000    0.0600000   6.128906e-05  1.496315e-08
    117    120   2   0.50000     0.0600000    0.0600000   6.128906e-05  1.496315e-08
    118    116   2   0.50000     0.0600000   -0.5000000   3.205360e-04  1.719281e-07
    118    119   2   0.50000     0.0600000    0.0600000   6.128906e-05  1.496315e-08
    118    120   2   0.50000     0.0600000    0.0600000   6.128906e-05  1.496315e-08
    114    121   2   0.50000    -0.1200000    0.3000000   1.995577e-06  1.069504e-11
    114    122   2   0.50000    -0.1200000    0.5000000   1.575021e-03  3.561100e-06
    119    121   2   0.50000     0.0600000    0.3000000   4.903125e-07  9.576416e-13
    119    122   2   0.50000     0.0600000    0.5000000   3.869820e-04  3.188634e-07
    120    121   2   0.50000     0.0600000    0.3000000   4.903125e-07  9.576416e-13
    120    122   2   0.50000     0.0600000    0.5000000   3.869820e-04  3.188634e-07
    115    123   2   0.50000     0.0800000   -0.5000000   1.095425e-03  1.218041e-06
    115    124   2   0.50000     0.0800000   -0.1200000   1.015252e-03  1.866303e-06
    121    123   2   0.50000     0.3000000   -0.5000000   2.153164e-06  6.980110e-12
    121    124   2   0.50000     0.3000000   -0.1200000   1.995577e-06  1.069504e-11
    116    125   2   0.50000    -0.5000000    0.0800000   1.304585e-03  1.920112e-06
    116    127   2   0.50000    -0.5000000    0.0600000   3.205360e-04  1.719281e-07
    116    128   2   0.50000    -0.5000000    0.0600000   3.205360e-04  1.719281e-07
    123    125   2   0.50000    -0.5000000    0.0800000   1.095425e-03  1.218041e-06
    123    127   2   0.50000    -0.5000000    0.0600000   2.691455e-04  1.090642e-07
    123    128   2   0.50000    -0.5000000    0.0600000   2.691455e-04  1.090642e-07
    122    126   2   0.50000     0.5000000   -0.5000000   2.023880e-03  3.663773e-06
    122    129   2   0.50000     0.5000000    0.0600000   3.869820e-04  3.188634e-07
    122    130   2   0.50000     0.5000000    0.0600000   3.869820e-04  3.188634e-07
    127    126   2   0.50000     0.0600000   -0.5000000   3.205360e-04  1.719281e-07
    127    129   2   0.50000     0.0600000    0.0600000   6.128906e-05  1.496315e-08
    127    130   2   0.50000     0.0600000    0.0600000   6.128906e-05  1.496315e-08
    128    126   2   0.50000     0.0600000   -0.5000000   3.205360e-04  1.719281e-07
    128    129   2   0.50000     0.0600000    0.0600000   6.128906e-05  1.496315e-08
    128    130   2   0.50000     0.0600000    0.0600000   6.128906e-05  1.496315e-08
    124    131   2   0.50000    -0.1200000    0.3000000   1.995577e-06  1.069504e-11
    124    132   2   0.50000    -0.1200000    0.5000000   1.575021e-03  3.561100e-06
    129    131   2   0.50000     0.0600000    0.3000000   4.903125e-07  9.576416e-13
    129    132   2   0.50000     0.0600000    0.5000000   3.869820e-04  3.188634e-07
    130    131   2   0.50000     0.0600000    0.3000000   4.903125e-07  9.576416e-13
    130    132   2   0.50000     0.0600000    0.5000000   3.869820e-04  3.188634e-07
    125    133   2   0.50000     0.0800000   -0.5000000   1.095425e-03  1.218041e-06
    125    134   2   0.50000     0.0800000   -0.1200000   1.015252e-03  1.866303e-06
    131    133   2   0.50000     0.3000000   -0.5000000   2.153164e-06  6.980110e-12
    131    134   2   0.50000     0.3000000   -0.1200000   1.995577e-06  1.069504e-11
    126    135   2   0.50000    -0.5000000    0.0800000   1.304585e-03  1.920112e-06
    126    137   2   0.50000    -0.5000000    0.0600000   3.205360e-04  1.719281e-07
    126    138   2   0.50000    -0.5000000    0.0600000   3.205360e-04  1.719281e-07
    133    135   2   0.50000    -0.5000000    0.0800000   1.095425e-03  1.218041e-06
    133    137   2   0.50000    -0.5000000    0.0600000   2.691455e-04  1.090642e-07
    133    138   2   0.50000    -0.5000000    0.0600000   2.691455e-04  1.090642e-07
    132    136   2   0.50000     0.5000000   -0.5000000   2.023880e-03  3.663773e-06
    132    139   2   0.50000     0.5000000    0.0600000   3.869820e-04  3.188634e-07
    132    140   2   0.50000     0.5000000    0.0600000   3.869820e-04  3.188634e-07
    137    136   2   0.50000     0.0600000   -0.5000000   3.205360e-04  1.719281e-07
    137    139   2   0.50000     0.0600000    0.0600000   6.128906e-05  1.496315e-08
    137    140   2   0.50000     0.0600000    0.0600000   6.128906e-05  1.496315e-08
    138    136   2   0.50000     0.0600000   -0.5000000   3.205360e-04  1.719281e-07
    138    139   2   0.50000     0.0600000    0.0600000   6.128906e-05  1.496315e-08
    138    140   2   0.50000     0.0600000    0.0600000   6.128906e-05  1.496315e-08
    134    141   2   0.50000    -0.1200000    0.3000000   1.995577e-06  1.069504e-11
    134    142   2   0.50000    -0.1200000    0.5000000   1.575021e-03  3.561100e-06
    139    141   2   0.50000     0.0600000    0.3000000   4.903125e-07  9.576416e-13
    139    142   2   0.50000     0.0600000    0.5000000   3.869820e-04  3.188634e-07
    140    141   2   0.50000     0.0600000    0.3000000   4.903125e-07  9.576416e-13
    140    142   2   0.50000     0.0600000    0.5000000   3.869820e-04  3.188634e-07
    135    143   2   0.50000     0.0800000   -0.5000000   1.095425e-03  1.218041e-06
    135    144   2   0.50000     0.0800000   -0.1200000   1.015252e-03  1.866303e-06
    141    143   2   0.50000     0.3000000   -0.5000000   2.153164e-06  6.980110e-12
    141    144   2   0.50000     0.3000000   -0.1200000   1.995577e-06  1.069504e-11
    136    145   2   0.50000    -0.5000000    0.0800000   1.304585e-03  1.920112e-06
    136    147   2   0.50000    -0.5000000    0.0600000   3.205360e-04  1.719281e-07
    136    148   2   0.50000    -0.5000000    0.0600000   3.205360e-04  1.719281e-07
    143    145   2   0.50000    -0.5000000    0.0800000   1.095425e-03  1.218041e-06
    143    147   2   0.50000    -0.5000000    0.0600000   2.691455e-04  1.090642e-07
    143    148   2   0.50000    -0.5000000    0.0600000   2.691455e-04  1.090642e-07
    142    146   2   0.50000     0.5000000   -0.5000000   2.023880e-03  3.663773e-06
    142    149   2   0.50000     0.5000000    0.0600000   3.869820e-04  3.188634e-07
    142    150   2   0.50000     0.5000000    0.0600000   3.869820e-04  3.188634e-07
    147    146   2   0.50000     0.0600000   -0.5000000   3.205360e-04  1.719281e-07
    147    149   2   0.50000     0.0600000    0.0600000   6.128906e-05  1.496315e-08
    147    150   2   0.50000     0.0600000    0.0600000   6.128906e-05  1.496315e-08
    148    146   2   0.50000     0.0600000   -0.5000000   3.205360e-04  1.719281e-07
    148    149   2   0.50000     0.0600000    0.0600000   6.128906e-05  1.496315e-08
    148    150   2   0.50000     0.0600000    0.0600000   6.128906e-05  1.496315e-08
    144    151   2   0.50000    -0.1200000    0.3000000   1.995577e-06  1.069504e-11
    144    152   2   0.50000    -0.1200000    0.5000000   1.575021e-03  3.561100e-06
    149    151   2   0.50000     0.0600000    0.3000000   4.903125e-07  9.576416e-13
    149    152   2   0.50000     0.0600000    0.5000000   3.869820e-04  3.188634e-07
    150    151   2   0.50000     0.0600000    0.3000000   4.903125e-07  9.576416e-13
    150    152   2   0.50000     0.0600000    0.5000000   3.869820e-04  3.188634e-07
    145    153   2   0.50000     0.0800000   -0.5000000   1.095425e-03  1.218041e-06
    145    154   2   0.50000     0.0800000   -0.1200000   1.015252e-03  1.866303e-06
    151    153   2   0.50000     0.3000000   -0.5000000   2.153164e-06  6.980110e-12
    151    154   2   0.50000     0.3000000   -0.1200000   1.995577e-06  1.069504e-11
    146    155   2   0.50000    -0.5000000    0.0800000   1.304585e-03  1.920112e-06
    146    157   2   0.50000    -0.5000000    0.0600000   3.205360e-04  1.719281e-07
    146    158   2   0.50000    -0.5000000    0.0600000   3.205360e-04  1.719281e-07
    153    155   2   0.50000    -0.5000000    0.0800000   1.095425e-03  1.218041e-06
    153    157   2   0.50000    -0.5000000    0.0600000   2.691455e-04  1.090642e-07
    153    158   2   0.50000    -0.5000000    0.0600000   2.691455e-04  1.090642e-07
    152    156   2   0.50000     0.5000000   -0.5000000   2.023880e-03  3.663773e-06
    152    159   2   0.50000     0.5000000    0.0600000   3.869820e-04  3.188634e-07
    152    160   2   0.50000     0.5000000    0.0600000   3.869820e-04  3.188634e-07
    157    156   2   0.50000     0.0600000   -0.5000000   3.205360e-04  1.719281e-07
    157    159   2   0.50000     0.0600000    0.0600000   6.128906e-05  1.496315e-08
    157    160   2   0.50000     0.0600000    0.0600000   6.128906e-05  1.496315e-08
    158    156   2   0.50000     0.0600000   -0.5000000   3.205360e-04  1.719281e-07
    158    159   2   0.50000     0.0600000    0.0600000   6.128906e-05  1.496315e-08
    158    160   2   0.50000     0.0600000    0.0600000   6.128906e-05  1.496315e-08
    154    161   2   0.50000    -0.1200000    0.3000000   1.995577e-06  1.069504e-11
    154    162   2   0.50000    -0.1200000    0.5000000   1.575021e-03  3.561100e-06
    159    161   2   0.50000     0.0600000    0.3000000   4.903125e-07  9.576416e-13
    159    162   2   0.50000     0.0600000    0.5000000   3.869820e-04  3.188634e-07
    160    161   2   0.50000     0.0600000    0.3000000   4.903125e-07  9.576416e-13
    160    162   2   0.50000     0.0600000    0.5000000   3.869820e-04  3.188634e-07
    155    163   2   0.50000     0.0800000   -0.5000000   1.095425e-03  1.218041e-06
    155    164   2   0.50000     0.0800000   -0.1200000   1.015252e-03  1.866303e-06
    161    163   2   0.50000     0.3000000   -0.5000000   2.153164e-06  6.980110e-12
    161    164   2   0.50000     0.3000000   -0.1200000   1.995577e-06  1.069504e-11
    156    165   2   0.50000    -0.5000000    0.0800000   1.304585e-03  1.920112e-06
    156    167   2   0.50000    -0.5000000    0.0600000   3.205360e-04  1.719281e-07
    156    168   2   0.50000    -0.5000000    0.0600000   3.205360e-04  1.719281e-07
    163    165   2   0.50000    -0.5000000    0.0800000   1.095425e-03  1.218041e-06
    163    167   2   0.50000    -0.5000000    0.0600000   2.691455e-04  1.090642e-07
    163    168   2   0.50000    -0.5000000    0.0600000   2.691455e-04  1.090642e-07
    162    166   2   0.50000     0.5000000   -0.5000000   2.023880e-03  3.663773e-06
    162    169   2   0.50000     0.5000000    0.0600000   3.869820e-04  3.188634e-07
    162    170   2   0.50000     0.5000000    0.0600000   3.869820e-04  3.188634e-07
    167    166   2   0.50000     0.0600000   -0.5000000   3.205360e-04  1.719281e-07
    167    169   2   0.50000     0.0600000    0.0600000   6.128906e-05  1.496315e-08
    167    170   2   0.50000     0.0600000    0.0600000   6.128906e-05  1.496315e-08
    168    166   2   0.50000     0.0600000   -0.5000000   3.205360e-04  1.719281e-07
    168    169   2   0.50000     0.0600000    0.0600000   6.128906e-05  1.496315e-08
    168    170   2   0.50000     0.0600000    0.0600000   6.128906e-05  1.496315e-08
    164    171   2   0.50000    -0.1200000    0.3000000   1.995577e-06  1.069504e-11
    164    172   2   0.50000    -0.1200000    0.5000000   1.575021e-03  3.561100e-06
    169    171   2   0.50000     0.0600000    0.3000000   4.903125e-07  9.576416e-13
    169    172   2   0.50000     0.0600000    0.5000000   3.869820e-04  3.188634e-07
    170    171   2   0.50000     0.0600000    0.3000000   4.903125e-07  9.576416e-13
    170    172   2   0.50000     0.0600000    0.5000000   3.869820e-04  3.188634e-07
    165    173   2   0.50000     0.0800000   -0.5000000   1.095425e-03  1.218041e-06
    165    174   2   0.50000     0.0800000   -0.1200000   1.015252e-03  1.866303e-06
    171    173   2   0.50000     0.3000000   -0.5000000   2.153164e-06  6.980110e-12
    171    174   2   0.50000     0.3000000   -0.1200000   1.995577e-06  1.069504e-11
    166    175   2   0.50000    -0.5000000    0.0800000   1.304585e-03  1.920112e-06
    166    177   2   0.50000    -0.5000000    0.0600000   3.205360e-04  1.719281e-07
    166    178   2   0.50000    -0.5000000    0.0600000   3.205360e-04  1.719281e-07
    173    175   2   0.50000    -0.5000000    0.0800000   1.095425e-03  1.218041e-06
    173    177   2   0.50000    -0.5000000    0.0600000   2.691455e-04  1.090642e-07
    173    178   2   0.50000    -0.5000000    0.0600000   2.691455e-04  1.090642e-07
    172    176   2   0.50000     0.5000000   -0.5000000   2.023880e-03  3.663773e-06
    172    179   2   0.50000     0.5000000    0.0600000   3.869820e-04  3.188634e-07
    172    180   2   0.50000     0.5000000    0.0600000   3.869820e-04  3.188634e-07
    177    176   2   0.50000     0.0600000   -0.5000000   3.205360e-04  1.719281e-07
    177    179   2   0.50000     0.0600000    0.0600000   6.128906e-05  1.496315e-08
    177    180   2   0.50000     0.0600000    0.0600000   6.128906e-05  1.496315e-08
    178    176   2   0.50000     0.0600000   -0.5000000   3.205360e-04  1.719281e-07
    178    179   2   0.50000     0.0600000    0.0600000   6.128906e-05  1.496315e-08
    178    180   2   0.50000     0.0600000    0.0600000   6.128906e-05  1.496315e-08
    174    181   2   0.50000    -0.1200000    0.3000000   1.995577e-06  1.069504e-11
    174    182   2   0.50000    -0.1200000    0.5000000   1.575021e-03  3.561100e-06
    179    181   2   0.50000     0.0600000    0.3000000   4.903125e-07  9.576416e-13
    179    182   2   0.50000     0.0600000    0.5000000   3.869820e-04  3.188634e-07
    180    181   2   0.50000     0.0600000    0.3000000   4.903125e-07  9.576416e-13
    180    182   2   0.50000     0.0600000    0.5000000   3.869820e-04  3.188634e-07
    175    183   2   0.50000     0.0800000   -0.5000000   1.095425e-03  1.218041e-06
    175    184   2   0.50000     0.0800000   -0.1200000   1.015252e-03  1.866303e-06
    181    183   2   0.50000     0.3000000   -0.5000000   2.153164e-06  6.980110e-12
    181    184   2   0.50000     0.3000000   -0.1200000   1.995577e-06  1.069504e-11
    176    185   2   0.50000    -0.5000000    0.0800000   1.304585e-03  1.920112e-06
    176    187   2   0.50000    -0.5000000    0.0600000   3.205360e-04  1.719281e-07
    176    188   2   0.50000    -0.5000000    0.0600000   3.205360e-04  1.719281e-07
    183    185   2   0.50000    -0.5000000    0.0800000   1.095425e-03  1.218041e-06
    183    187   2   0.50000    -0.5000000    0.0600000   2.691455e-04  1.090642e-07
    183    188   2   0.50000    -0.5000000    0.0600000   2.691455e-04  1.090642e-07
    182    186   2   0.50000     0.5000000   -0.5000000   2.023880e-03  3.663773e-06
    182    189   2   0.50000     0.5000000    0.0600000   3.869820e-04  3.188634e-07
    182    190   2   0.50000     0.5000000    0.0600000   3.869820e-04  3.188634e-07
    187    186   2   0.50000     0.0600000   -0.5000000   3.205360e-04  1.719281e-07
    187    189   2   0.50000     0.0600000    0.0600000   6.128906e-05  1.496315e-08
    187    190   2   0.50000     0.0600000    0.0600000   6.128906e-05  1.496315e-08
    188    186   2   0.50000     0.0600000   -0.5000000   3.205360e-04  1.719281e-07
    188    189   2   0.50000     0.0600000    0.0600000   6.128906e-05  1.496315e-08
    188    190   2   0.50000     0.0600000    0.0600000   6.128906e-05  1.496315e-08
    184    191   2   0.50000    -0.1200000    0.3000000   1.995577e-06  1.069504e-11
    184    192   2   0.50000    -0.1200000    0.5000000   1.575021e-03  3.561100e-06
    189    191   2   0.50000     0.0600000    0.3000000   4.903125e-07  9.576416e-13
    189    192   2   0.50000     0.0600000    0.5000000   3.869820e-04  3.188634e-07
    190    191   2   0.50000     0.0600000    0.3000000   4.903125e-07  9.576416e-13
    190    192   2   0.50000     0.0600000    0.5000000   3.869820e-04  3.188634e-07
    185    193   2   0.50000     0.0800000   -0.5000000   1.095425e-03  1.218041e-06
    185    194   2   0.50000     0.0800000   -0.1200000   1.015252e-03  1.866303e-06
    191    193   2   0.50000     0.3000000   -0.5000000   2.153164e-06  6.980110e-12
    191    194   2   0.50000     0.3000000   -0.1200000   1.995577e-06  1.069504e-11
    186    195   2   0.50000    -0.5000000    0.0600000   1.304585e-03  1.920112e-06
    186    197   2   0.50000    -0.5000000    0.0600000   3.205360e-04  1.719281e-07
    186    198   2   0.50000    -0.5000000    0.0600000   3.205360e-04  1.719281e-07
    193    195   2   0.50000    -0.5000000    0.0600000   1.095425e-03  1.218041e-06
    193    197   2   0.50000    -0.5000000    0.0600000   2.691455e-04  1.090642e-07
    193    198   2   0.50000    -0.5000000    0.0600000   2.691455e-04  1.090642e-07
    192    196   2   0.50000     0.5000000   -0.9000000   2.118734e-03  4.015245e-06
    192    199   2   0.50000     0.5000000    0.0600000   2.736376e-04  2.254704e-07
    192    200   2   0.50000     0.5000000    0.0600000   2.736376e-04  2.254704e-07
    197    196   2   0.50000     0.0600000   -0.9000000   3.355588e-04  1.884215e-07
    197    199   2   0.50000     0.0600000    0.0600000   4.333791e-05  1.058054e-08
    197    200   2   0.50000     0.0600000    0.0600000   4.333791e-05  1.058054e-08
    198    196   2   0.50000     0.0600000   -0.9000000   3.355588e-04  1.884215e-07
    198    199   2   0.50000     0.0600000    0.0600000   4.333791e-05  1.058054e-08
    198    200   2   0.50000     0.0600000    0.0600000   4.333791e-05  1.058054e-08
    194    201   2   0.50000    -0.1200000    0.3600000   1.995577e-06  1.069504e-11
    194    202   2   0.50000    -0.1200000    0.3600000   1.995577e-06  1.069504e-11
    199    201   2   0.50000     0.0600000    0.3600000   3.467033e-07  6.771549e-13
    199    202   2   0.50000     0.0600000    0.3600000   3.467033e-07  6.771549e-13
    200    201   2   0.50000     0.0600000    0.3600000   3.467033e-07  6.771549e-13
    200    202   2   0.50000     0.0600000    0.3600000   3.467033e-07  6.771549e-13

[ angles ]
; ai  aj  ak
      2      1      3   1    120.4000    669.4400
      2      1     11   1    123.0000    292.8800
      3      1     11   1    115.0000    292.8800
      1      3      4   1    111.1000    527.1840
      1      3      6   1    109.5000    292.8800
      1      3      7   1    109.5000    292.8800
      4      3      6   1    110.7000    313.8000
      4      3      7   1    110.7000    313.8000
      6      3      7   1    107.8000    276.1440
      3      4      5   1    110.7230    585.7600
      3      4      8   1    110.7000    313.8000
      3      4      9   1    110.7000    313.8000
      5      4      8   1    109.5000    292.8800
      5      4      9   1    109.5000    292.8800
      8      4      9   1    107.8000    276.1440
      4      5     10   1    118.4000    317.9840
      4      5     12   1    121.9000    418.4000
     10      5     12   1    119.8000    292.8800
      5     12     13   1    122.9000    669.4400
      5     12     14   1    116.6000    585.7600
     13     12     14   1    120.4000    669.4400
     12     14     15   1    111.1000    527.1840
     12     14     17   1    109.5000    292.8800
     12     14     18   1    109.5000    292.8800
     15     14     17   1    110.7000    313.8000
     15     14     18   1    110.7000    313.8000
     17     14     18   1    107.8000    276.1440
     14     15     16   1    110.7230    585.7600
     14     15     19   1    110.7000    313.8000
     14     15     20   1    110.7000    313.8000
     16     15     19   1    109.5000    292.8800
     16     15     20   1    109.5000    292.8800
     19     15     20   1    107.8000    276.1440
     15     16     21   1    118.4000    317.9840
     15     16     22   1    121.9000    418.4000
     21     16     22   1    119.8000    292.8800
     16     22     23   1    122.9000    669.4400
     16     22     24   1    116.6000    585.7600
     23     22     24   1    120.4000    669.4400
     22     24     25   1    111.1000    527.1840
     22     24     27   1    109.5000    292.8800
     22     24     28   1    109.5000    292.8800
     25     24     27   1    110.7000    313.8000
     25     24     28   1    110.7000    313.8000
     27     24     28   1    107.8000    276.1440
     24     25     26   1    110.7230    585.7600
     24     25     29   1    110.7000    313.8000
     24     25     30   1    110.7000    313.8000
     26     25     29   1    109.5000    292.8800
     26     25     30   1    109.5000    292.8800
     29     25     30   1    107.8000    276.1440
     25     26     31   1    118.4000    317.9840
     25     26     32   1    121.9000    418.4000
     31     26     32   1    119.8000    292.8800
     26     32     33   1    122.9000    669.4400
     26     32     34   1    116.6000    585.7600
     33     32     34   1    120.4000    669.4400
     32     34     35   1    111.1000    527.1840
     32     34     37   1    109.5000    292.8800
     32     34     38   1    109.5000    292.8800
     35     34     37   1    110.7000    313.8000
     35     34     38   1    110.7000    313.8000
     37     34     38   1    107.8000    276.1440
     34     35     36   1    110.7230    585.7600
     34     35     39   1    110.7000    313.8000
     34     35     40   1    110.7000    313.8000
     36     35     39   1    109.5000    292.8800
     36     35     40   1    109.5000    292.8800
     39     35     40   1    107.8000    276.1440
     35     36     41   1    118.4000    317.9840
     35     36     42   1    121.9000    418.4000
     41     36     42   1    119.8000    292.8800
     36     42     43   1    122.9000    669.4400
     36     42     44   1    116.6000    585.7600
     43     42     44   1    120.4000    669.4400
     42     44     45   1    111.1000    527.1840
     42     44     47   1    109.5000    292.8800
     42     44     48   1    109.5000    292.8800
     45     44     47   1    110.7000    313.8000
     45     44     48   1    110.7000    313.8000
     47     44     48   1    107.8000    276.1440
     44     45     46   1    110.7230    585.7600
     44     45     49   1    110.7000    313.8000
     44     45     50   1    110.7000    313.8000
     46     45     49   1    109.5000    292.8800
     46     45     50   1    109.5000    292.8800
     49     45     50   1    107.8000    276.1440
     45     46     51   1    118.4000    317.9840
     45     46     52   1    121.9000    418.4000
     51     46     52   1    119.8000    292.8800
     46     52     53   1    122.9000    669.4400
     46     52     54   1    116.6000    585.7600
     53     52     54   1    120.4000    669.4400
     52     54     55   1    111.1000    527.1840
     52     54     57   1    109.5000    292.8800
     52     54     58   1    109.5000    292.8800
     55     54     57   1    110.7000    313.8000
     55     54     58   1    110.7000    313.8000
     57     54     58   1    107.8000    276.1440
     54     55     56   1    110.7230    585.7600
     54     55     59   1    110.7000    313.8000
     54     55     60   1    110.7000    313.8000
     56     55     59   1    109.5000    292.8800
     56     55     60   1    109.5000    292.8800
     59     55     60   1    107.8000    276.1440
     55     56     61   1    118.4000    317.9840
     55     56     62   1    121.9000    418.4000
     61     56     62   1    119.8000    292.8800
     56     62     63   1    122.9000    669.4400
     56     62     64   1    116.6000    585.7600
     63     62     64   1    120.4000    669.4400
     62     64     65   1    111.1000    527.1840
     62     64     67   1    109.5000    292.8800
     62     64     68   1    109.5000    292.8800
     65     64     67   1    110.7000    313.8000
     65     64     68   1    110.7000    313.8000
     67     64     68   1    107.8000    276.1440
     64     65     66   1    110.7230    585.7600
     64     65     69   1    110.7000    313.8000
     64     65     70   1    110.7000    313.8000
     66     65     69   1    109.5000    292.8800
     66     65     70   1    109.5000    292.8800
     69     65     70   1    107.8000    276.1440
     65     66     71   1    118.4000    317.9840
     65     66     72   1    121.9000    418.4000
     71     66     72   1    119.8000    292.8800
     66     72     73   1    122.9000    669.4400
     66     72     74   1    116.6000    585.7600
     73     72     74   1    120.4000    669.4400
     72     74     75   1    111.1000    527.1840
     72     74     77   1    109.5000    292.8800
     72     74     78   1    109.5000    292.8800
     75     74     77   1    110.7000    313.8000
     75     74     78   1    110.7000    313.8000
     77     74     78   1    107.8000    276.1440
     74     75     76   1    110.7230    585.7600
     74     75     79   1    110.7000    313.8000
     74     75     80   1    110.7000    313.8000
     76     75     79   1    109.5000    292.8800
     76     75     80   1    109.5000    292.8800
     79     75     80   1    107.8000    276.1440
     75     76     81   1    118.4000    317.9840
     75     76     82   1    121.9000    418.4000
     81     76     82   1    119.8000    292.8800
     76     82     83   1    122.9000    669.4400
     76     82     84   1    116.6000    585.7600
     83     82     84   1    120.4000    669.4400
     82     84     85   1    111.1000    527.1840
     82     84     87   1    109.5000    292.8800
     82     84     88   1    109.5000    292.8800
     85     84     87   1    110.7000    313.8000
     85     84     88   1    110.7000    313.8000
     87     84     88   1    107.8000    276.1440
     84     85     86   1    110.7230    585.7600
     84     85     89   1    110.7000    313.8000
     84     85     90   1    110.7000    313.8000
     86     85     89   1    109.5000    292.8800
     86     85     90   1    109.5000    292.8800
     89     85     90   1    107.8000    276.1440
     85     86     91   1    118.4000    317.9840
     85     86     92   1    121.9000    418.4000
     91     86     92   1    119.8000    292.8800
     86     92     93   1    122.9000    669.4400
     86     92     94   1    116.6000    585.7600
     93     92     94   1    120.4000    669.4400
     92     94     95   1    111.1000    527.1840
     92     94     97   1    109.5000    292.8800
     92     94     98   1    109.5000    292.8800
     95     94     97   1    110.7000    313.8000
     95     94     98   1    110.7000    313.8000
     97     94     98   1    107.8000    276.1440
     94     95     96   1    110.7230    585.7600
     94     95     99   1    110.7000    313.8000
     94     95    100   1    110.7000    313.8000
     96     95     99   1    109.5000    292.8800
     96     95    100   1    109.5000    292.8800
     99     95    100   1    107.8000    276.1440
     95     96    101   1    118.4000    317.9840
     95     96    102   1    121.9000    418.4000
    101     96    102   1    119.8000    292.8800
     96    102    103   1    122.9000    669.4400
     96    102    104   1    116.6000    585.7600
    103    102    104   1    120.4000    669.4400
    102    104    105   1    111.1000    527.1840
    102    104    107   1    109.5000    292.8800
    102    104    108   1    109.5000    292.8800
    105    104    107   1    110.7000    313.8000
    105    104    108   1    110.7000    313.8000
    107    104    108   1    107.8000    276.1440
    104    105    106   1    110.7230    585.7600
    104    105    109   1    110.7000    313.8000
    104    105    110   1    110.7000    313.8000
    106    105    109   1    109.5000    292.8800
    106    105    110   1    109.5000    292.8800
    109    105    110   1    107.8000    276.1440
    105    106    111   1    118.4000    317.9840
    105    106    112   1    121.9000    418.4000
    111    106    112   1    119.8000    292.8800
    106    112    113   1    122.9000    669.4400
    106    112    114   1    116.6000    585.7600
    113    112    114   1    120.4000    669.4400
    112    114    115   1    111.1000    527.1840
    112    114    117   1    109.5000    292.8800
    112    114    118   1    109.5000    292.8800
    115    114    117   1    110.7000    313.8000
    115    114    118   1    110.7000    313.8000
    117    114    118   1    107.8000    276.1440
    114    115    116   1    110.7230    585.7600
    114    115    119   1    110.7000    313.8000
    114    115    120   1    110.7000    313.8000
    116    115    119   1    109.5000    292.8800
    116    115    120   1    109.5000    292.8800
    119    115    120   1    107.8000    276.1440
    115    116    121   1    118.4000    317.9840
    115    116    122   1    121.9000    418.4000
    121    116    122   1    119.8000    292.8800
    116    122    123   1    122.9000    669.4400
    116    122    124   1    116.6000    585.7600
    123    122    124   1    120.4000    669.4400
    122    124    125   1    111.1000    527.1840
    122    124    127   1    109.5000    292.8800
    122    124    128   1    109.5000    292.8800
    125    124    127   1    110.7000    313.8000
    125    124    128   1    110.7000    313.8000
    127    124    128   1    107.8000    276.1440
    124    125    126   1    110.7230    585.7600
    124    125    129   1    110.7000    313.8000
    124    125    130   1    110.7000    313.8000
    126    125    129   1    109.5000    292.8800
    126    125    130   1    109.5000    292.8800
    129    125    130   1    107.8000    276.1440
    125    126    131   1    118.4000    317.9840
    125    126    132   1    121.9000    418.4000
    131    126    132   1    119.8000    292.8800
    126    132    133   1    122.9000    669.4400
    126    132    134   1    116.6000    585.7600
    133    132    134   1    120.4000    669.4400
    132    134    135   1    111.1000    527.1840
    132    134    137   1    109.5000    292.8800
    132    134    138   1    109.5000    292.8800
    135    134    137   1    110.7000    313.8000
    135    134    138   1    110.7000    313.8000
    137    134    138   1    107.8000    276.1440
    134    135    136   1    110.7230    585.7600
    134    135    139   1    110.7000    313.8000
    134    135    140   1    110.7000    313.8000
    136    135    139   1    109.5000    292.8800
    136    135    140   1    109.5000    292.8800
    139    135    140   1    107.8000    276.1440
    135    136    141   1    118.4000    317.9840
    135    136    142   1    121.9000    418.4000
    141    136    142   1    119.8000    292.8800
    136    142    143   1    122.9000    669.4400
    136    142    144   1    116.6000    585.7600
    143    142    144   1    120.4000    669.4400
    142    144    145   1    111.1000    527.1840
    142    144    147   1    109.5000    292.8800
    142    144    148   1    109.5000    292.8800
    145    144    147   1    110.7000    313.8000
    145    144    148   1    110.7000    313.8000
    147    144    148   1    107.8000    276.1440
    144    145    146   1    110.7230    585.7600
    144    145    149   1    110.7000    313.8000
    144    145    150   1    110.7000    313.8000
    146    145    149   1    109.5000    292.8800
    146    145    150   1    109.5000    292.8800
    149    145    150   1    107.8000    276.1440
    145    146    151   1    118.4000    317.9840
    145    146    152   1    121.9000    418.4000
    151    146    152   1    119.8000    292.8800
    146    152    153   1    122.9000    669.4400
    146    152    154   1    116.6000    585.7600
    153    152    154   1    120.4000    669.4400
    152    154    155   1    111.1000    527.1840
    152    154    157   1    109.5000    292.8800
    152    154    158   1    109.5000    292.8800
    155    154    157   1    110.7000    313.8000
    155    154    158   1    110.7000    313.8000
    157    154    158   1    107.8000    276.1440
    154    155    156   1    110.7230    585.7600
    154    155    159   1    110.7000    313.8000
    154    155    160   1    110.7000    313.8000
    156    155    159   1    109.5000    292.8800
    156    155    160   1    109.5000    292.8800
    159    155    160   1    107.8000    276.1440
    155    156    161   1    118.4000    317.9840
    155    156    162   1    121.9000    418.4000
    161    156    162   1    119.8000    292.8800
    156    162    163   1    122.9000    669.4400
    156    162    164   1    116.6000    585.7600
    163    162    164   1    120.4000    669.4400
    162    164    165   1    111.1000    527.1840
    162    164    167   1    109.5000    292.8800
    162    164    168   1    109.5000    292.8800
    165    164    167   1    110.7000    313.8000
    165    164    168   1    110.7000    313.8000
    167    164    168   1    107.8000    276.1440
    164    165    166   1    110.7230    585.7600
    164    165    169   1    110.7000    313.8000
    164    165    170   1    110.7000    313.8000
    166    165    169   1    109.5000    292.8800
    166    165    170   1    109.5000    292.8800
    169    165    170   1    107.8000    276.1440
    165    166    171   1    118.4000    317.9840
    165    166    172   1    121.9000    418.4000
    171    166    172   1    119.8000    292.8800
    166    172    173   1    122.9000    669.4400
    166    172    174   1    116.6000    585.7600
    173    172    174   1    120.4000    669.4400
    172    174    175   1    111.1000    527.1840
    172    174    177   1    109.5000    292.8800
    172    174    178   1    109.5000    292.8800
    175    174    177   1    110.7000    313.8000
    175    174    178   1    110.7000    313.8000
    177    174    178   1    107.8000    276.1440
    174    175    176   1    110.7230    585.7600
    174    175    179   1    110.7000    313.8000
    174    175    180   1    110.7000    313.8000
    176    175    179   1    109.5000    292.8800
    176    175    180   1    109.5000    292.8800
    179    175    180   1    107.8000    276.1440
    175    176    181   1    118.4000    317.9840
    175    176    182   1    121.9000    418.4000
    181    176    182   1    119.8000    292.8800
    176    182    183   1    122.9000    669.4400
    176    182    184   1    116.6000    585.7600
    183    182    184   1    120.4000    669.4400
    182    184    185   1    111.1000    527.1840
    182    184    187   1    109.5000    292.8800
    182    184    188   1    109.5000    292.8800
    185    184    187   1    110.7000    313.8000
    185    184    188   1    110.7000    313.8000
    187    184    188   1    107.8000    276.1440
    184    185    186   1    110.7230    585.7600
    184    185    189   1    110.7000    313.8000
    184    185    190   1    110.7000    313.8000
    186    185    189   1    109.5000    292.8800
    186    185    190   1    109.5000    292.8800
    189    185    190   1    107.8000    276.1440
    185    186    191   1    118.4000    317.9840
    185    186    192   1    121.9000    418.4000
    191    186    192   1    119.8000    292.8800
    186    192    193   1    122.9000    669.4400
    186    192    194   1    116.6000    585.7600
    193    192    194   1    120.4000    669.4400
    192    194    195   1    111.1000    527.1840
    192    194    197   1    109.5000    292.8800
    192    194    198   1    109.5000    292.8800
    195    194    197   1    110.7000    313.8000
    195    194    198   1    110.7000    313.8000
    197    194    198   1    107.8000    276.1440
    194    195    196   1    109.4700    470.2816
    194    195    199   1    110.7000    313.8000
    194    195    200   1    110.7000    313.8000
    196    195    199   1    109.5000    292.8800
    196    195    200   1    109.5000    292.8800
    199    195    200   1    107.8000    276.1440
    195    196    201   1    109.5000    292.8800
    195    196    202   1    109.5000    292.8800
    201    196    202   1    106.4000    364.8448

[ dihedrals ]
; Proper dihedrals
      2      1      3      4   5     0.00000     2.52295     0.00000  0.0
      2      1      3      6   5     0.00000     0.00000     0.00000  0.0
      2      1      3      7   5     0.00000     0.00000     0.00000  0.0
     11      1      3      4   5     6.23834    -0.04184     0.00000  0.0
     11      1      3      6   5     0.00000     0.00000     0.00000  0.0
     11      1      3      7   5     0.00000     0.00000     0.00000  0.0
      1      3      4      5   5   -17.58954    -2.64429     1.09202  0.0
      1      3      4      8   5     0.00000     0.00000    -0.94140  0.0
      1      3      4      9   5     0.00000     0.00000    -0.94140  0.0
      6      3      4      5   5     0.00000     0.00000     1.25520  0.0
      6      3      4      8   5     0.00000     0.00000     1.25520  0.0
      6      3      4      9   5     0.00000     0.00000     1.25520  0.0
      7      3      4      5   5     0.00000     0.00000     1.25520  0.0
      7      3      4      8   5     0.00000     0.00000     1.25520  0.0
      7      3      4      9   5     0.00000     0.00000     1.25520  0.0
      3      4      5     10   5     0.00000     0.00000     0.00000  0.0
      3      4      5     12   5    -3.67774    -0.67781     0.28033  0.0
      8      4      5     10   5     0.00000     0.00000     0.00000  0.0
      8      4      5     12   5     0.00000     0.00000     0.00000  0.0
      9      4      5     10   5     0.00000     0.00000     0.00000  0.0
      9      4      5     12   5     0.00000     0.00000     0.00000  0.0
      4      5     12     13   5     0.00000    25.47638     0.00000  0.0
      4      5     12     14   5    12.53945    12.88254     0.00000  0.0
     10      5     12     13   5     0.00000    20.50160     0.00000  0.0
     10      5     12     14   5     0.00000    20.50160     0.00000  0.0
      5     12     14     15   5    11.69428    -0.66526    -1.56900  0.0
      5     12     14     17   5     0.00000     0.00000     0.00000  0.0
      5     12     14     18   5     0.00000     0.00000     0.00000  0.0
     13     12     14     15   5     0.00000     2.52295     0.00000  0.0
     13     12     14     17   5     0.00000     0.00000     0.00000  0.0
     13     12     14     18   5     0.00000     0.00000     0.00000  0.0
     12     14     15     16   5   -17.58954    -2.64429     1.09202  0.0
     12     14     15     19   5     0.00000     0.00000    -0.94140  0.0
     12     14     15     20   5     0.00000     0.00000    -0.94140  0.0
     17     14     15     16   5     0.00000     0.00000     1.25520  0.0
     17     14     15     19   5     0.00000     0.00000     1.25520  0.0
     17     14     15     20   5     0.00000     0.00000     1.25520  0.0
     18     14     15     16   5     0.00000     0.00000     1.25520  0.0
     18     14     15     19   5     0.00000     0.00000     1.25520  0.0
     18     14     15     20   5     0.00000     0.00000     1.25520  0.0
     14     15     16     21   5     0.00000     0.00000     0.00000  0.0
     14     15     16     22   5    -3.67774    -0.67781     0.28033  0.0
     19     15     16     21   5     0.00000     0.00000     0.00000  0.0
     19     15     16     22   5     0.00000     0.00000     0.00000  0.0
     20     15     16     21   5     0.00000     0.00000     0.00000  0.0
     20     15     16     22   5     0.00000     0.00000     0.00000  0.0
     15     16     22     23   5     0.00000    25.47638     0.00000  0.0
     15     16     22     24   5    12.53945    12.88254     0.00000  0.0
     21     16     22     23   5     0.00000    20.50160     0.00000  0.0
     21     16     22     24   5     0.00000    20.50160     0.00000  0.0
     16     22     24     25   5    11.69428    -0.66526    -1.56900  0.0
     16     22     24     27   5     0.00000     0.00000     0.00000  0.0
     16     22     24     28   5     0.00000     0.00000     0.00000  0.0
     23     22     24     25   5     0.00000     2.52295     0.00000  0.0
     23     22     24     27   5     0.00000     0.00000     0.00000  0.0
     23     22     24     28   5     0.00000     0.00000     0.00000  0.0
     22     24     25     26   5   -17.58954    -2.64429     1.09202  0.0
     22     24     25     29   5     0.00000     0.00000    -0.94140  0.0
     22     24     25     30   5     0.00000     0.00000    -0.94140  0.0
     27     24     25     26   5     0.00000     0.00000     1.25520  0.0
     27     24     25     29   5     0.00000     0.00000     1.25520  0.0
     27     24     25     30   5     0.00000     0.00000     1.25520  0.0
     28     24     25     26   5     0.00000     0.00000     1.25520  0.0
     28     24     25     29   5     0.00000     0.00000     1.25520  0.0
     28     24     25     30   5     0.00000     0.00000     1.25520  0.0
     24     25     26     31   5     0.00000     0.00000     0.00000  0.0
     24     25     26     32   5    -3.67774    -0.67781     0.28033  0.0
     29     25     26     31   5     0.00000     0.00000     0.00000  0.0
     29     25     26     32   5     0.00000     0.00000     0.00000  0.0
     30     25     26     31   5     0.00000     0.00000     0.00000  0.0
     30     25     26     32   5     0.00000     0.00000     0.00000  0.0
     25     26     32     33   5     0.00000    25.47638     0.00000  0.0
     25     26     32     34   5    12.53945    12.88254     0.00000  0.0
     31     26     32     33   5     0.00000    20.50160     0.00000  0.0
     31     26     32     34   5     0.00000    20.50160     0.00000  0.0
     26     32     34     35   5    11.69428    -0.66526    -1.56900  0.0
     26     32     34     37   5     0.00000     0.00000     0.00000  0.0
     26     32     34     38   5     0.00000     0.00000     0.00000  0.0
     33     32     34     35   5     0.00000     2.52295     0.00000  0.0
     33     32     34     37   5     0.00000     0.00000     0.00000  0.0
     33     32     34     38   5     0.00000     0.00000     0.00000  0.0
     32     34     35     36   5   -17.58954    -2.64429     1.09202  0.0
     32     34     35     39   5     0.00000     0.00000    -0.94140  0.0
     32     34     35     40   5     0.00000     0.00000    -0.94140  0.0
     37     34     35     36   5     0.00000     0.00000     1.25520  0.0
     37     34     35     39   5     0.00000     0.00000     1.25520  0.0
     37     34     35     40   5     0.00000     0.00000     1.25520  0.0
     38     34     35     36   5     0.00000     0.00000     1.25520  0.0
     38     34     35     39   5     0.00000     0.00000     1.25520  0.0
     38     34     35     40   5     0.00000     0.00000     1.25520  0.0
     34     35     36     41   5     0.00000     0.00000     0.00000  0.0
     34     35     36     42   5    -3.67774    -0.67781     0.28033  0.0
     39     35     36     41   5     0.00000     0.00000     0.00000  0.0
     39     35     36     42   5     0.00000     0.00000     0.00000  0.0
     40     35     36     41   5     0.00000     0.00000     0.00000  0.0
     40     35     36     42   5     0.00000     0.00000     0.00000  0.0
     35     36     42     43   5     0.00000    25.47638     0.00000  0.0
     35     36     42     44   5    12.53945    12.88254     0.00000  0.0
     41     36     42     43   5     0.00000    20.50160     0.00000  0.0
     41     36     42     44   5     0.00000    20.50160     0.00000  0.0
     36     42     44     45   5    11.69428    -0.66526    -1.56900  0.0
     36     42     44     47   5     0.00000     0.00000     0.00000  0.0
     36     42     44     48   5     0.00000     0.00000     0.00000  0.0
     43     42     44     45   5     0.00000     2.52295     0.00000  0.0
     43     42     44     47   5     0.00000     0.00000     0.00000  0.0
     43     42     44     48   5     0.00000     0.00000     0.00000  0.0
     42     44     45     46   5   -17.58954    -2.64429     1.09202  0.0
     42     44     45     49   5     0.00000     0.00000    -0.94140  0.0
     42     44     45     50   5     0.00000     0.00000    -0.94140  0.0
     47     44     45     46   5     0.00000     0.00000     1.25520  0.0
     47     44     45     49   5     0.00000     0.00000     1.25520  0.0
     47     44     45     50   5     0.00000     0.00000     1.25520  0.0
     48     44     45     46   5     0.00000     0.00000     1.25520  0.0
     48     44     45     49   5     0.00000     0.00000     1.25520  0.0
     48     44     45     50   5     0.00000     0.00000     1.25520  0.0
     44     45     46     51   5     0.00000     0.00000     0.00000  0.0
     44     45     46     52   5    -3.67774    -0.67781     0.28033  0.0
     49     45     46     51   5     0.00000     0.00000     0.00000  0.0
     49     45     46     52   5     0.00000     0.00000     0.00000  0.0
     50     45     46     51   5     0.00000     0.00000     0.00000  0.0
     50     45     46     52   5     0.00000     0.00000     0.00000  0.0
     45     46     52     53   5     0.00000    25.47638     0.00000  0.0
     45     46     52     54   5    12.53945    12.88254     0.00000  0.0
     51     46     52     53   5     0.00000    20.50160     0.00000  0.0
     51     46     52     54   5     0.00000    20.50160     0.00000  0.0
     46     52     54     55   5    11.69428    -0.66526    -1.56900  0.0
     46     52     54     57   5     0.00000     0.00000     0.00000  0.0
     46     52     54     58   5     0.00000     0.00000     0.00000  0.0
     53     52     54     55   5     0.00000     2.52295     0.00000  0.0
     53     52     54     57   5     0.00000     0.00000     0.00000  0.0
     53     52     54     58   5     0.00000     0.00000     0.00000  0.0
     52     54     55     56   5   -17.58954    -2.64429     1.09202  0.0
     52     54     55     59   5     0.00000     0.00000    -0.94140  0.0
     52     54     55     60   5     0.00000     0.00000    -0.94140  0.0
     57     54     55     56   5     0.00000     0.00000     1.25520  0.0
     57     54     55     59   5     0.00000     0.00000     1.25520  0.0
     57     54     55     60   5     0.00000     0.00000     1.25520  0.0
     58     54     55     56   5     0.00000     0.00000     1.25520  0.0
     58     54     55     59   5     0.00000     0.00000     1.25520  0.0
     58     54     55     60   5     0.00000     0.00000     1.25520  0.0
     54     55     56     61   5     0.00000     0.00000     0.00000  0.0
     54     55     56     62   5    -3.67774    -0.67781     0.28033  0.0
     59     55     56     61   5     0.00000     0.00000     0.00000  0.0
     59     55     56     62   5     0.00000     0.00000     0.00000  0.0
     60     55     56     61   5     0.00000     0.00000     0.00000  0.0
     60     55     56     62   5     0.00000     0.00000     0.00000  0.0
     55     56     62     63   5     0.00000    25.47638     0.00000  0.0
     55     56     62     64   5    12.53945    12.88254     0.00000  0.0
     61     56     62     63   5     0.00000    20.50160     0.00000  0.0
     61     56     62     64   5     0.00000    20.50160     0.00000  0.0
     56     62     64     65   5    11.69428    -0.66526    -1.56900  0.0
     56     62     64     67   5     0.00000     0.00000     0.00000  0.0
     56     62     64     68   5     0.00000     0.00000     0.00000  0.0
     63     62     64     65   5     0.00000     2.52295     0.00000  0.0
     63     62     64     67   5     0.00000     0.00000     0.00000  0.0
     63     62     64     68   5     0.00000     0.00000     0.00000  0.0
     62     64     65     66   5   -17.58954    -2.64429     1.09202  0.0
     62     64     65     69   5     0.00000     0.00000    -0.94140  0.0
     62     64     65     70   5     0.00000     0.00000    -0.94140  0.0
     67     64     65     66   5     0.00000     0.00000     1.25520  0.0
     67     64     65     69   5     0.00000     0.00000     1.25520  0.0
     67     64     65     70   5     0.00000     0.00000     1.25520  0.0
     68     64     65     66   5     0.00000     0.00000     1.25520  0.0
     68     64     65     69   5     0.00000     0.00000     1.25520  0.0
     68     64     65     70   5     0.00000     0.00000     1.25520  0.0
     64     65     66     71   5     0.00000     0.00000     0.00000  0.0
     64     65     66     72   5    -3.67774    -0.67781     0.28033  0.0
     69     65     66     71   5     0.00000     0.00000     0.00000  0.0
     69     65     66     72   5     0.00000     0.00000     0.00000  0.0
     70     65     66     71   5     0.00000     0.00000     0.00000  0.0
     70     65     66     72   5     0.00000     0.00000     0.00000  0.0
     65     66     72     73   5     0.00000    25.47638     0.00000  0.0
     65     66     72     74   5    12.53945    12.88254     0.00000  0.0
     71     66     72     73   5     0.00000    20.50160     0.00000  0.0
     71     66     72     74   5     0.00000    20.50160     0.00000  0.0
     66     72     74     75   5    11.69428    -0.66526    -1.56900  0.0
     66     72     74     77   5     0.00000     0.00000     0.00000  0.0
     66     72     74     78   5     0.00000     0.00000     0.00000  0.0
     73     72     74     75   5     0.00000     2.52295     0.00000  0.0
     73     72     74     77   5     0.00000     0.00000     0.00000  0.0
     73     72     74     78   5     0.00000     0.00000     0.00000  0.0
     72     74     75     76   5   -17.58954    -2.64429     1.09202  0.0
     72     74     75     79   5     0.00000     0.00000    -0.94140  0.0
     72     74     75     80   5     0.00000     0.00000    -0.94140  0.0
     77     74     75     76   5     0.00000     0.00000     1.25520  0.0
     77     74     75     79   5     0.00000     0.00000     1.25520  0.0
     77     74     75     80   5     0.00000     0.00000     1.25520  0.0
     78     74     75     76   5     0.00000     0.00000     1.25520  0.0
     78     74     75     79   5     0.00000     0.00000     1.25520  0.0
     78     74     75     80   5     0.00000     0.00000     1.25520  0.0
     74     75     76     81   5     0.00000     0.00000     0.00000  0.0
     74     75     76     82   5    -3.67774    -0.67781     0.28033  0.0
     79     75     76     81   5     0.00000     0.00000     0.00000  0.0
     79     75     76     82   5     0.00000     0.00000     0.00000  0.0
     80     75     76     81   5     0.00000     0.00000     0.00000  0.0
     80     75     76     82   5     0.00000     0.00000     0.00000  0.0
     75     76     82     83   5     0.00000    25.47638     0.00000  0.0
     75     76     82     84   5    12.53945    12.88254     0.00000  0.0
     81     76     82     83   5     0.00000    20.50160     0.00000  0.0
     81     76     82     84   5     0.00000    20.50160     0.00000  0.0
     76     82     84     85   5    11.69428    -0.66526    -1.56900  0.0
     76     82     84     87   5     0.00000     0.00000     0.00000  0.0
     76     82     84     88   5     0.00000     0.00000     0.00000  0.0
     83     82     84     85   5     0.00000     2.52295     0.00000  0.0
     83     82     84     87   5     0.00000     0.00000     0.00000  0.0
     83     82     84     88   5     0.00000     0.00000     0.00000  0.0
     82     84     85     86   5   -17.58954    -2.64429     1.09202  0.0
     82     84     85     89   5     0.00000     0.00000    -0.94140  0.0
     82     84     85     90   5     0.00000     0.00000    -0.94140  0.0
     87     84     85     86   5     0.00000     0.00000     1.25520  0.0
     87     84     85     89   5     0.00000     0.00000     1.25520  0.0
     87     84     85     90   5     0.00000     0.00000     1.25520  0.0
     88     84     85     86   5     0.00000     0.00000     1.25520  0.0
     88     84     85     89   5     0.00000     0.00000     1.25520  0.0
     88     84     85     90   5     0.00000     0.00000     1.25520  0.0
     84     85     86     91   5     0.00000     0.00000     0.00000  0.0
     84     85     86     92   5    -3.67774    -0.67781     0.28033  0.0
     89     85     86     91   5     0.00000     0.00000     0.00000  0.0
     89     85     86     92   5     0.00000     0.00000     0.00000  0.0
     90     85     86     91   5     0.00000     0.00000     0.00000  0.0
     90     85     86     92   5     0.00000     0.00000     0.00000  0.0
     85     86     92     93   5     0.00000    25.47638     0.00000  0.0
     85     86     92     94   5    12.53945    12.88254     0.00000  0.0
     91     86     92     93   5     0.00000    20.50160     0.00000  0.0
     91     86     92     94   5     0.00000    20.50160     0.00000  0.0
     86     92     94     95   5    11.69428    -0.66526    -1.56900  0.0
     86     92     94     97   5     0.00000     0.00000     0.00000  0.0
     86     92     94     98   5     0.00000     0.00000     0.00000  0.0
     93     92     94     95   5     0.00000     2.52295     0.00000  0.0
     93     92     94     97   5     0.00000     0.00000     0.00000  0.0
     93     92     94     98   5     0.00000     0.00000     0.00000  0.0
     92     94     95     96   5   -17.58954    -2.64429     1.09202  0.0
     92     94     95     99   5     0.00000     0.00000    -0.94140  0.0
     92     94     95    100   5     0.00000     0.00000    -0.94140  0.0
     97     94     95     96   5     0.00000     0.00000     1.25520  0.0
     97     94     95     99   5     0.00000     0.00000     1.25520  0.0
     97     94     95    100   5     0.00000     0.00000     1.25520  0.0
     98     94     95     96   5     0.00000     0.00000     1.25520  0.0
     98     94     95     99   5     0.00000     0.00000     1.25520  0.0
     98     94     95    100   5     0.00000     0.00000     1.25520  0.0
     94     95     96    101   5     0.00000     0.00000     0.00000  0.0
     94     95     96    102   5    -3.67774    -0.67781     0.28033  0.0
     99     95     96    101   5     0.00000     0.00000     0.00000  0.0
     99     95     96    102   5     0.00000     0.00000     0.00000  0.0
    100     95     96    101   5     0.00000     0.00000     0.00000  0.0
    100     95     96    102   5     0.00000     0.00000     0.00000  0.0
     95     96    102    103   5     0.00000    25.47638     0.00000  0.0
     95     96    102    104   5    12.53945    12.88254     0.00000  0.0
    101     96    102    103   5     0.00000    20.50160     0.00000  0.0
    101     96    102    104   5     0.00000    20.50160     0.00000  0.0
     96    102    104    105   5    11.69428    -0.66526    -1.56900  0.0
     96    102    104    107   5     0.00000     0.00000     0.00000  0.0
     96    102    104    108   5     0.00000     0.00000     0.00000  0.0
    103    102    104    105   5     0.00000     2.52295     0.00000  0.0
    103    102    104    107   5     0.00000     0.00000     0.00000  0.0
    103    102    104    108   5     0.00000     0.00000     0.00000  0.0
    102    104    105    106   5   -17.58954    -2.64429     1.09202  0.0
    102    104    105    109   5     0.00000     0.00000    -0.94140  0.0
    102    104    105    110   5     0.00000     0.00000    -0.94140  0.0
    107    104    105    106   5     0.00000     0.00000     1.25520  0.0
    107    104    105    109   5     0.00000     0.00000     1.25520  0.0
    107    104    105    110   5     0.00000     0.00000     1.25520  0.0
    108    104    105    106   5     0.00000     0.00000     1.25520  0.0
    108    104    105    109   5     0.00000     0.00000     1.25520  0.0
    108    104    105    110   5     0.00000     0.00000     1.25520  0.0
    104    105    106    111   5     0.00000     0.00000     0.00000  0.0
    104    105    106    112   5    -3.67774    -0.67781     0.28033  0.0
    109    105    106    111   5     0.00000     0.00000     0.00000  0.0
    109    105    106    112   5     0.00000     0.00000     0.00000  0.0
    110    105    106    111   5     0.00000     0.00000     0.00000  0.0
    110    105    106    112   5     0.00000     0.00000     0.00000  0.0
    105    106    112    113   5     0.00000    25.47638     0.00000  0.0
    105    106    112    114   5    12.53945    12.88254     0.00000  0.0
    111    106    112    113   5     0.00000    20.50160     0.00000  0.0
    111    106    112    114   5     0.00000    20.50160     0.00000  0.0
    106    112    114    115   5    11.69428    -0.66526    -1.56900  0.0
    106    112    114    117   5     0.00000     0.00000     0.00000  0.0
    106    112    114    118   5     0.00000     0.00000     0.00000  0.0
    113    112    114    115   5     0.00000     2.52295     0.00000  0.0
    113    112    114    117   5     0.00000     0.00000     0.00000  0.0
    113    112    114    118   5     0.00000     0.00000     0.00000  0.0
    112    114    115    116   5   -17.58954    -2.64429     1.09202  0.0
    112    114    115    119   5     0.00000     0.00000    -0.94140  0.0
    112    114    115    120   5     0.00000     0.00000    -0.94140  0.0
    117    114    115    116   5     0.00000     0.00000     1.25520  0.0
    117    114    115    119   5     0.00000     0.00000     1.25520  0.0
    117    114    115    120   5     0.00000     0.00000     1.25520  0.0
    118    114    115    116   5     0.00000     0.00000     1.25520  0.0
    118    114    115    119   5     0.00000     0.00000     1.25520  0.0
    118    114    115    120   5     0.00000     0.00000     1.25520  0.0
    114    115    116    121   5     0.00000     0.00000     0.00000  0.0
    114    115    116    122   5    -3.67774    -0.67781     0.28033  0.0
    119    115    116    121   5     0.00000     0.00000     0.00000  0.0
    119    115    116    122   5     0.00000     0.00000     0.00000  0.0
    120    115    116    121   5     0.00000     0.00000     0.00000  0.0
    120    115    116    122   5     0.00000     0.00000     0.00000  0.0
    115    116    122    123   5     0.00000    25.47638     0.00000  0.0
    115    116    122    124   5    12.53945    12.88254     0.00000  0.0
    121    116    122    123   5     0.00000    20.50160     0.00000  0.0
    121    116    122    124   5     0.00000    20.50160     0.00000  0.0
    116    122    124    125   5    11.69428    -0.66526    -1.56900  0.0
    116    122    124    127   5     0.00000     0.00000     0.00000  0.0
    116    122    124    128   5     0.00000     0.00000     0.00000  0.0
    123    122    124    125   5     0.00000     2.52295     0.00000  0.0
    123    122    124    127   5     0.00000     0.00000     0.00000  0.0
    123    122    124    128   5     0.00000     0.00000     0.00000  0.0
    122    124    125    126   5   -17.58954    -2.64429     1.09202  0.0
    122    124    125    129   5     0.00000     0.00000    -0.94140  0.0
    122    124    125    130   5     0.00000     0.00000    -0.94140  0.0
    127    124    125    126   5     0.00000     0.00000     1.25520  0.0
    127    124    125    129   5     0.00000     0.00000     1.25520  0.0
    127    124    125    130   5     0.00000     0.00000     1.25520  0.0
    128    124    125    126   5     0.00000     0.00000     1.25520  0.0
    128    124    125    129   5     0.00000     0.00000     1.25520  0.0
    128    124    125    130   5     0.00000     0.00000     1.25520  0.0
    124    125    126    131   5     0.00000     0.00000     0.00000  0.0
    124    125    126    132   5    -3.67774    -0.67781     0.28033  0.0
    129    125    126    131   5     0.00000     0.00000     0.00000  0.0
    129    125    126    132   5     0.00000     0.00000     0.00000  0.0
    130    125    126    131   5     0.00000     0.00000     0.00000  0.0
    130    125    126    132   5     0.00000     0.00000     0.00000  0.0
    125    126    132    133   5     0.00000    25.47638     0.00000  0.0
    125    126    132    134   5    12.53945    12.88254     0.00000  0.0
    131    126    132    133   5     0.00000    20.50160     0.00000  0.0
    131    126    132    134   5     0.00000    20.50160     0.00000  0.0
    126    132    134    135   5    11.69428    -0.66526    -1.56900  0.0
    126    132    134    137   5     0.00000     0.00000     0.00000  0.0
    126    132    134    138   5     0.00000     0.00000     0.00000  0.0
    133    132    134    135   5     0.00000     2.52295     0.00000  0.0
    133    132    134    137   5     0.00000     0.00000     0.00000  0.0
    133    132    134    138   5     0.00000     0.00000     0.00000  0.0
    132    134    135    136   5   -17.58954    -2.64429     1.09202  0.0
    132    134    135    139   5     0.00000     0.00000    -0.94140  0.0
    132    134    135    140   5     0.00000     0.00000    -0.94140  0.0
    137    134    135    136   5     0.00000     0.00000     1.25520  0.0
    137    134    135    139   5     0.00000     0.00000     1.25520  0.0
    137    134    135    140   5     0.00000     0.00000     1.25520  0.0
    138    134    135    136   5     0.00000     0.00000     1.25520  0.0
    138    134    135    139   5     0.00000     0.00000     1.25520  0.0
    138    134    135    140   5     0.00000     0.00000     1.25520  0.0
    134    135    136    141   5     0.00000     0.00000     0.00000  0.0
    134    135    136    142   5    -3.67774    -0.67781     0.28033  0.0
    139    135    136    141   5     0.00000     0.00000     0.00000  0.0
    139    135    136    142   5     0.00000     0.00000     0.00000  0.0
    140    135    136    141   5     0.00000     0.00000     0.00000  0.0
    140    135    136    142   5     0.00000     0.00000     0.00000  0.0
    135    136    142    143   5     0.00000    25.47638     0.00000  0.0
    135    136    142    144   5    12.53945    12.88254     0.00000  0.0
    141    136    142    143   5     0.00000    20.50160     0.00000  0.0
    141    136    142    144   5     0.00000    20.50160     0.00000  0.0
    136    142    144    145   5    11.69428    -0.66526    -1.56900  0.0
    136    142    144    147   5     0.00000     0.00000     0.00000  0.0
    136    142    144    148   5     0.00000     0.00000     0.00000  0.0
    143    142    144    145   5     0.00000     2.52295     0.00000  0.0
    143    142    144    147   5     0.00000     0.00000     0.00000  0.0
    143    142    144    148   5     0.00000     0.00000     0.00000  0.0
    142    144    145    146   5   -17.58954    -2.64429     1.09202  0.0
    142    144    145    149   5     0.00000     0.00000    -0.94140  0.0
    142    144    145    150   5     0.00000     0.00000    -0.94140  0.0
    147    144    145    146   5     0.00000     0.00000     1.25520  0.0
    147    144    145    149   5     0.00000     0.00000     1.25520  0.0
    147    144    145    150   5     0.00000     0.00000     1.25520  0.0
    148    144    145    146   5     0.00000     0.00000     1.25520  0.0
    148    144    145    149   5     0.00000     0.00000     1.25520  0.0
    148    144    145    150   5     0.00000     0.00000     1.25520  0.0
    144    145    146    151   5     0.00000     0.00000     0.00000  0.0
    144    145    146    152   5    -3.67774    -0.67781     0.28033  0.0
    149    145    146    151   5     0.00000     0.00000     0.00000  0.0
    149    145    146    152   5     0.00000     0.00000     0.00000  0.0
    150    145    146    151   5     0.00000     0.00000     0.00000  0.0
    150    145    146    152   5     0.00000     0.00000     0.00000  0.0
    145    146    152    153   5     0.00000    25.47638     0.00000  0.0
    145    146    152    154   5    12.53945    12.88254     0.00000  0.0
    151    146    152    153   5     0.00000    20.50160     0.00000  0.0
    151    146    152    154   5     0.00000    20.50160     0.00000  0.0
    146    152    154    155   5    11.69428    -0.66526    -1.56900  0.0
    146    152    154    157   5     0.00000     0.00000     0.00000  0.0
    146    152    154    158   5     0.00000     0.00000     0.00000  0.0
    153    152    154    155   5     0.00000     2.52295     0.00000  0.0
    153    152    154    157   5     0.00000     0.00000     0.00000  0.0
    153    152    154    158   5     0.00000     0.00000     0.00000  0.0
    152    154    155    156   5   -17.58954    -2.64429     1.09202  0.0
    152    154    155    159   5     0.00000     0.00000    -0.94140  0.0
    152    154    155    160   5     0.00000     0.00000    -0.94140  0.0
    157    154    155    156   5     0.00000     0.00000     1.25520  0.0
    157    154    155    159   5     0.00000     0.00000     1.25520  0.0
    157    154    155    160   5     0.00000     0.00000     1.25520  0.0
    158    154    155    156   5     0.00000     0.00000     1.25520  0.0
    158    154    155    159   5     0.00000     0.00000     1.25520  0.0
    158    154    155    160   5     0.00000     0.00000     1.25520  0.0
    154    155    156    161   5     0.00000     0.00000     0.00000  0.0
    154    155    156    162   5    -3.67774    -0.67781     0.28033  0.0
    159    155    156    161   5     0.00000     0.00000     0.00000  0.0
    159    155    156    162   5     0.00000     0.00000     0.00000  0.0
    160    155    156    161   5     0.00000     0.00000     0.00000  0.0
    160    155    156    162   5     0.00000     0.00000     0.00000  0.0
    155    156    162    163   5     0.00000    25.47638     0.00000  0.0
    155    156    162    164   5    12.53945    12.88254     0.00000  0.0
    161    156    162    163   5     0.00000    20.50160     0.00000  0.0
    161    156    162    164   5     0.00000    20.50160     0.00000  0.0
    156    162    164    165   5    11.69428    -0.66526    -1.56900  0.0
    156    162    164    167   5     0.00000     0.00000     0.00000  0.0
    156    162    164    168   5     0.00000     0.00000     0.00000  0.0
    163    162    164    165   5     0.00000     2.52295     0.00000  0.0
    163    162    164    167   5     0.00000     0.00000     0.00000  0.0
    163    162    164    168   5     0.00000     0.00000     0.00000  0.0
    162    164    165    166   5   -17.58954    -2.64429     1.09202  0.0
    162    164    165    169   5     0.00000     0.00000    -0.94140  0.0
    162    164    165    170   5     0.00000     0.00000    -0.94140  0.0
    167    164    165    166   5     0.00000     0.00000     1.25520  0.0
    167    164    165    169   5     0.00000     0.00000     1.25520  0.0
    167    164    165    170   5     0.00000     0.00000     1.25520  0.0
    168    164    165    166   5     0.00000     0.00000     1.25520  0.0
    168    164    165    169   5     0.00000     0.00000     1.25520  0.0
    168    164    165    170   5     0.00000     0.00000     1.25520  0.0
    164    165    166    171   5     0.00000     0.00000     0.00000  0.0
    164    165    166    172   5    -3.67774    -0.67781     0.28033  0.0
    169    165    166    171   5     0.00000     0.00000     0.00000  0.0
    169    165    166    172   5     0.00000     0.00000     0.00000  0.0
    170    165    166    171   5     0.00000     0.00000     0.00000  0.0
    170    165    166    172   5     0.00000     0.00000     0.00000  0.0
    165    166    172    173   5     0.00000    25.47638     0.00000  0.0
    165    166    172    174   5    12.53945    12.88254     0.00000  0.0
    171    166    172    173   5     0.00000    20.50160     0.00000  0.0
    171    166    172    174   5     0.00000    20.50160     0.00000  0.0
    166    172    174    175   5    11.69428    -0.66526    -1.56900  0.0
    166    172    174    177   5     0.00000     0.00000     0.00000  0.0
    166    172    174    178   5     0.00000     0.00000     0.00000  0.0
    173    172    174    175   5     0.00000     2.52295     0.00000  0.0
    173    172    174    177   5     0.00000     0.00000     0.00000  0.0
    173    172    174    178   5     0.00000     0.00000     0.00000  0.0
    172    174    175    176   5   -17.58954    -2.64429     1.09202  0.0
    172    174    175    179   5     0.00000     0.00000    -0.94140  0.0
    172    174    175    180   5     0.00000     0.00000    -0.94140  0.0
    177    174    175    176   5     0.00000     0.00000     1.25520  0.0
    177    174    175    179   5     0.00000     0.00000     1.25520  0.0
    177    174    175    180   5     0.00000     0.00000     1.25520  0.0
    178    174    175    176   5     0.00000     0.00000     1.25520  0.0
    178    174    175    179   5     0.00000     0.00000     1.25520  0.0
    178    174    175    180   5     0.00000     0.00000     1.25520  0.0
    174    175    176    181   5     0.00000     0.00000     0.00000  0.0
    174    175    176    182   5    -3.67774    -0.67781     0.28033  0.0
    179    175    176    181   5     0.00000     0.00000     0.00000  0.0
    179    175    176    182   5     0.00000     0.00000     0.00000  0.0
    180    175    176    181   5     0.00000     0.00000     0.00000  0.0
    180    175    176    182   5     0.00000     0.00000     0.00000  0.0
    175    176    182    183   5     0.00000    25.47638     0.00000  0.0
    175    176    182    184   5    12.53945    12.88254     0.00000  0.0
    181    176    182    183   5     0.00000    20.50160     0.00000  0.0
    181    176    182    184   5     0.00000    20.50160     0.00000  0.0
    176    182    184    185   5    11.69428    -0.66526    -1.56900  0.0
    176    182    184    187   5     0.00000     0.00000     0.00000  0.0
    176    182    184    188   5     0.00000     0.00000     0.00000  0.0
    183    182    184    185   5     0.00000     2.52295     0.00000  0.0
    183    182    184    187   5     0.00000     0.00000     0.00000  0.0
    183    182    184    188   5     0.00000     0.00000     0.00000  0.0
    182    184    185    186   5   -17.58954    -2.64429     1.09202  0.0
    182    184    185    189   5     0.00000     0.00000    -0.94140  0.0
    182    184    185    190   5     0.00000     0.00000    -0.94140  0.0
    187    184    185    186   5     0.00000     0.00000     1.25520  0.0
    187    184    185    189   5     0.00000     0.00000     1.25520  0.0
    187    184    185    190   5     0.00000     0.00000     1.25520  0.0
    188    184    185    186   5     0.00000     0.00000     1.25520  0.0
    188    184    185    189   5     0.00000     0.00000     1.25520  0.0
    188    184    185    190   5     0.00000     0.00000     1.25520  0.0
    184    185    186    191   5     0.00000     0.00000     0.00000  0.0
    184    185    186    192   5    -3.67774    -0.67781     0.28033  0.0
    189    185    186    191   5     0.00000     0.00000     0.00000  0.0
    189    185    186    192   5     0.00000     0.00000     0.00000  0.0
    190    185    186    191   5     0.00000     0.00000     0.00000  0.0
    190    185    186    192   5     0.00000     0.00000     0.00000  0.0
    185    186    192    193   5     0.00000    25.47638     0.00000  0.0
    185    186    192    194   5    12.53945    12.88254     0.00000  0.0
    191    186    192    193   5     0.00000    20.50160     0.00000  0.0
    191    186    192    194   5     0.00000    20.50160     0.00000  0.0
    186    192    194    195   5    11.69428    -0.66526    -1.56900  0.0
    186    192    194    197   5     0.00000     0.00000     0.00000  0.0
    186    192    194    198   5     0.00000     0.00000     0.00000  0.0
    193    192    194    195   5     0.00000     2.52295     0.00000  0.0
    193    192    194    197   5     0.00000     0.00000     0.00000  0.0
    193    192    194    198   5     0.00000     0.00000     0.00000  0.0
    192    194    195    196   5   -29.83610    -5.64840     9.31358  0.0
    192    194    195    199   5     0.00000     0.00000    -0.94140  0.0
    192    194    195    200   5     0.00000     0.00000    -0.94140  0.0
    197    194    195    196   5     0.00000     0.00000     1.25520  0.0
    197    194    195    199   5     0.00000     0.00000     1.25520  0.0
    197    194    195    200   5     0.00000     0.00000     1.25520  0.0
    198    194    195    196   5     0.00000     0.00000     1.25520  0.0
    198    194    195    199   5     0.00000     0.00000     1.25520  0.0
    198    194    195    200   5     0.00000     0.00000     1.25520  0.0
    194    195    196    201   5    -0.49790     0.74057     0.98324  0.0
    194    195    196    202   5    -0.49790     0.74057     0.98324  0.0
    199    195    196    201   5     0.00000     0.00000     1.67360  0.0
    199    195    196    202   5     0.00000     0.00000     1.67360  0.0
    200    195    196    201   5     0.00000     0.00000     1.67360  0.0
    200    195    196    202   5     0.00000     0.00000     1.67360  0.0

[ dihedrals ]
; Improper dihedrals
; h   i   j   k   funct
      2      3      1     11   5     0.00000    87.86400     0.00000  0.0
      4     10      5     12   5     0.00000     8.36800     0.00000  0.0
      5     13     12     14   5     0.00000    87.86400     0.00000  0.0
     15     21     16     22   5     0.00000     8.36800     0.00000  0.0
     16     23     22     24   5     0.00000    87.86400     0.00000  0.0
     25     31     26     32   5     0.00000     8.36800     0.00000  0.0
     26     33     32     34   5     0.00000    87.86400     0.00000  0.0
     35     41     36     42   5     0.00000     8.36800     0.00000  0.0
     36     43     42     44   5     0.00000    87.86400     0.00000  0.0
     45     51     46     52   5     0.00000     8.36800     0.00000  0.0
     46     53     52     54   5     0.00000    87.86400     0.00000  0.0
     55     61     56     62   5     0.00000     8.36800     0.00000  0.0
     56     63     62     64   5     0.00000    87.86400     0.00000  0.0
     65     71     66     72   5     0.00000     8.36800     0.00000  0.0
     66     73     72     74   5     0.00000    87.86400     0.00000  0.0
     75     81     76     82   5     0.00000     8.36800     0.00000  0.0
     76     83     82     84   5     0.00000    87.86400     0.00000  0.0
     85     91     86     92   5     0.00000     8.36800     0.00000  0.0
     86     93     92     94   5     0.00000    87.86400     0.00000  0.0
     95    101     96    102   5     0.00000     8.36800     0.00000  0.0
     96    103    102    104   5     0.00000    87.86400     0.00000  0.0
    105    111    106    112   5     0.00000     8.36800     0.00000  0.0
    106    113    112    114   5     0.00000    87.86400     0.00000  0.0
    115    121    116    122   5     0.00000     8.36800     0.00000  0.0
    116    123    122    124   5     0.00000    87.86400     0.00000  0.0
    125    131    126    132   5     0.00000     8.36800     0.00000  0.0
    126    133    132    134   5     0.00000    87.86400     0.00000  0.0
    135    141    136    142   5     0.00000     8.36800     0.00000  0.0
    136    143    142    144   5     0.00000    87.86400     0.00000  0.0
    145    151    146    152   5     0.00000     8.36800     0.00000  0.0
    146    153    152    154   5     0.00000    87.86400     0.00000  0.0
    155    161    156    162   5     0.00000     8.36800     0.00000  0.0
    156    163    162    164   5     0.00000    87.86400     0.00000  0.0
    165    171    166    172   5     0.00000     8.36800     0.00000  0.0
    166    173    172    174   5     0.00000    87.86400     0.00000  0.0
    175    181    176    182   5     0.00000     8.36800     0.00000  0.0
    176    183    182    184   5     0.00000    87.86400     0.00000  0.0
    185    191    186    192   5     0.00000     8.36800     0.00000  0.0
    186    193    192    194   5     0.00000    87.86400     0.00000  0.0
