;
; Gromacs include topology (itp) file.
; For Molecular Group XYZ
; Force field scheme: opls2005
; Produced from DL_FIELD v4.11
;


[ moleculetype ]
; name    nrexcl
XYZ    3

[ atoms ]
; nr   type   resnr   residu    atom    cgnr    charge    mass
    1        CT    1  MOL      C1     1  -0.1800000   12.0115
    2        CT    1  MOL      C2     2   0.1700000   12.0115
    3        OS    1  MOL      O3     3  -0.4000000   15.9994
    4        CT    1  MOL      C4     4   0.1100000   12.0115
    5        HC    1  MOL      H5     5   0.0600000    1.0080
    6        HC    1  MOL      H6     6   0.0600000    1.0080
    7        HC    1  MOL      H7     7   0.0300000    1.0080
    8        HC    1  MOL      H8     8   0.0300000    1.0080
    9        HC    1  MOL      H9     9   0.0300000    1.0080
   10        HC    1  MOL     H10    10   0.0300000    1.0080
   11        HC    1  MOL     H11    11   0.0600000    1.0080
   12        CT    1  MOL     C12    12  -0.1200000   12.0115
   13        CT    1  MOL     C13    13   0.1700000   12.0115
   14        OS    1  MOL     O14    14  -0.4000000   15.9994
   15        CT    1  MOL     C15    15   0.1100000   12.0115
   16        HC    1  MOL     H16    16   0.0600000    1.0080
   17        HC    1  MOL     H17    17   0.0600000    1.0080
   18        HC    1  MOL     H18    18   0.0300000    1.0080
   19        HC    1  MOL     H19    19   0.0300000    1.0080
   20        HC    1  MOL     H20    20   0.0300000    1.0080
   21        HC    1  MOL     H21    21   0.0300000    1.0080
   22        CT    1  MOL     C22    22  -0.1200000   12.0115
   23        CT    1  MOL     C23    23   0.1700000   12.0115
   24        OS    1  MOL     O24    24  -0.4000000   15.9994
   25        CT    1  MOL     C25    25   0.1100000   12.0115
   26        HC    1  MOL     H26    26   0.0600000    1.0080
   27        HC    1  MOL     H27    27   0.0600000    1.0080
   28        HC    1  MOL     H28    28   0.0300000    1.0080
   29        HC    1  MOL     H29    29   0.0300000    1.0080
   30        HC    1  MOL     H30    30   0.0300000    1.0080
   31        HC    1  MOL     H31    31   0.0300000    1.0080
   32        CT    1  MOL     C32    32  -0.1200000   12.0115
   33        CT    1  MOL     C33    33   0.1700000   12.0115
   34        OS    1  MOL     O34    34  -0.4000000   15.9994
   35        CT    1  MOL     C35    35   0.1100000   12.0115
   36        HC    1  MOL     H36    36   0.0600000    1.0080
   37        HC    1  MOL     H37    37   0.0600000    1.0080
   38        HC    1  MOL     H38    38   0.0300000    1.0080
   39        HC    1  MOL     H39    39   0.0300000    1.0080
   40        HC    1  MOL     H40    40   0.0300000    1.0080
   41        HC    1  MOL     H41    41   0.0300000    1.0080
   42        CT    1  MOL     C42    42  -0.1200000   12.0115
   43        CT    1  MOL     C43    43   0.1700000   12.0115
   44        OS    1  MOL     O44    44  -0.4000000   15.9994
   45        CT    1  MOL     C45    45   0.1100000   12.0115
   46        HC    1  MOL     H46    46   0.0600000    1.0080
   47        HC    1  MOL     H47    47   0.0600000    1.0080
   48        HC    1  MOL     H48    48   0.0300000    1.0080
   49        HC    1  MOL     H49    49   0.0300000    1.0080
   50        HC    1  MOL     H50    50   0.0300000    1.0080
   51        HC    1  MOL     H51    51   0.0300000    1.0080
   52        CT    1  MOL     C52    52  -0.1200000   12.0115
   53        CT    1  MOL     C53    53   0.1700000   12.0115
   54        OS    1  MOL     O54    54  -0.4000000   15.9994
   55        CT    1  MOL     C55    55   0.1100000   12.0115
   56        HC    1  MOL     H56    56   0.0600000    1.0080
   57        HC    1  MOL     H57    57   0.0600000    1.0080
   58        HC    1  MOL     H58    58   0.0300000    1.0080
   59        HC    1  MOL     H59    59   0.0300000    1.0080
   60        HC    1  MOL     H60    60   0.0300000    1.0080
   61        HC    1  MOL     H61    61   0.0300000    1.0080
   62        CT    1  MOL     C62    62  -0.1200000   12.0115
   63        CT    1  MOL     C63    63   0.1700000   12.0115
   64        OS    1  MOL     O64    64  -0.4000000   15.9994
   65        CT    1  MOL     C65    65   0.1100000   12.0115
   66        HC    1  MOL     H66    66   0.0600000    1.0080
   67        HC    1  MOL     H67    67   0.0600000    1.0080
   68        HC    1  MOL     H68    68   0.0300000    1.0080
   69        HC    1  MOL     H69    69   0.0300000    1.0080
   70        HC    1  MOL     H70    70   0.0300000    1.0080
   71        HC    1  MOL     H71    71   0.0300000    1.0080
   72        CT    1  MOL     C72    72  -0.1200000   12.0115
   73        CT    1  MOL     C73    73   0.1700000   12.0115
   74        OS    1  MOL     O74    74  -0.4000000   15.9994
   75        CT    1  MOL     C75    75   0.1100000   12.0115
   76        HC    1  MOL     H76    76   0.0600000    1.0080
   77        HC    1  MOL     H77    77   0.0600000    1.0080
   78        HC    1  MOL     H78    78   0.0300000    1.0080
   79        HC    1  MOL     H79    79   0.0300000    1.0080
   80        HC    1  MOL     H80    80   0.0300000    1.0080
   81        HC    1  MOL     H81    81   0.0300000    1.0080
   82        CT    1  MOL     C82    82  -0.1200000   12.0115
   83        CT    1  MOL     C83    83   0.1700000   12.0115
   84        OS    1  MOL     O84    84  -0.4000000   15.9994
   85        CT    1  MOL     C85    85   0.1100000   12.0115
   86        HC    1  MOL     H86    86   0.0600000    1.0080
   87        HC    1  MOL     H87    87   0.0600000    1.0080
   88        HC    1  MOL     H88    88   0.0300000    1.0080
   89        HC    1  MOL     H89    89   0.0300000    1.0080
   90        HC    1  MOL     H90    90   0.0300000    1.0080
   91        HC    1  MOL     H91    91   0.0300000    1.0080
   92        CT    1  MOL     C92    92  -0.1200000   12.0115
   93        CT    1  MOL     C93    93   0.1700000   12.0115
   94        OS    1  MOL     O94    94  -0.4000000   15.9994
   95        CT    1  MOL     C95    95   0.1100000   12.0115
   96        HC    1  MOL     H96    96   0.0600000    1.0080
   97        HC    1  MOL     H97    97   0.0600000    1.0080
   98        HC    1  MOL     H98    98   0.0300000    1.0080
   99        HC    1  MOL     H99    99   0.0300000    1.0080
  100        HC    1  MOL    H100   100   0.0300000    1.0080
  101        HC    1  MOL    H101   101   0.0300000    1.0080
  102        CT    1  MOL    C102   102  -0.1200000   12.0115
  103        CT    1  MOL    C103   103   0.1700000   12.0115
  104        OS    1  MOL    O104   104  -0.4000000   15.9994
  105        CT    1  MOL    C105   105   0.1100000   12.0115
  106        HC    1  MOL    H106   106   0.0600000    1.0080
  107        HC    1  MOL    H107   107   0.0600000    1.0080
  108        HC    1  MOL    H108   108   0.0300000    1.0080
  109        HC    1  MOL    H109   109   0.0300000    1.0080
  110        HC    1  MOL    H110   110   0.0300000    1.0080
  111        HC    1  MOL    H111   111   0.0300000    1.0080
  112        CT    1  MOL    C112   112  -0.1200000   12.0115
  113        CT    1  MOL    C113   113   0.1700000   12.0115
  114        OS    1  MOL    O114   114  -0.4000000   15.9994
  115        CT    1  MOL    C115   115   0.1100000   12.0115
  116        HC    1  MOL    H116   116   0.0600000    1.0080
  117        HC    1  MOL    H117   117   0.0600000    1.0080
  118        HC    1  MOL    H118   118   0.0300000    1.0080
  119        HC    1  MOL    H119   119   0.0300000    1.0080
  120        HC    1  MOL    H120   120   0.0300000    1.0080
  121        HC    1  MOL    H121   121   0.0300000    1.0080
  122        CT    1  MOL    C122   122  -0.1200000   12.0115
  123        CT    1  MOL    C123   123   0.1700000   12.0115
  124        OS    1  MOL    O124   124  -0.4000000   15.9994
  125        CT    1  MOL    C125   125   0.1100000   12.0115
  126        HC    1  MOL    H126   126   0.0600000    1.0080
  127        HC    1  MOL    H127   127   0.0600000    1.0080
  128        HC    1  MOL    H128   128   0.0300000    1.0080
  129        HC    1  MOL    H129   129   0.0300000    1.0080
  130        HC    1  MOL    H130   130   0.0300000    1.0080
  131        HC    1  MOL    H131   131   0.0300000    1.0080
  132        CT    1  MOL    C132   132  -0.1200000   12.0115
  133        CT    1  MOL    C133   133   0.1700000   12.0115
  134        OS    1  MOL    O134   134  -0.4000000   15.9994
  135        CT    1  MOL    C135   135   0.1100000   12.0115
  136        HC    1  MOL    H136   136   0.0600000    1.0080
  137        HC    1  MOL    H137   137   0.0600000    1.0080
  138        HC    1  MOL    H138   138   0.0300000    1.0080
  139        HC    1  MOL    H139   139   0.0300000    1.0080
  140        HC    1  MOL    H140   140   0.0300000    1.0080
  141        HC    1  MOL    H141   141   0.0300000    1.0080
  142        CT    1  MOL    C142   142  -0.1200000   12.0115
  143        CT    1  MOL    C143   143   0.1700000   12.0115
  144        OS    1  MOL    O144   144  -0.4000000   15.9994
  145        CT    1  MOL    C145   145   0.1100000   12.0115
  146        HC    1  MOL    H146   146   0.0600000    1.0080
  147        HC    1  MOL    H147   147   0.0600000    1.0080
  148        HC    1  MOL    H148   148   0.0300000    1.0080
  149        HC    1  MOL    H149   149   0.0300000    1.0080
  150        HC    1  MOL    H150   150   0.0300000    1.0080
  151        HC    1  MOL    H151   151   0.0300000    1.0080
  152        CT    1  MOL    C152   152  -0.1200000   12.0115
  153        CT    1  MOL    C153   153   0.1700000   12.0115
  154        OS    1  MOL    O154   154  -0.4000000   15.9994
  155        CT    1  MOL    C155   155   0.1100000   12.0115
  156        HC    1  MOL    H156   156   0.0600000    1.0080
  157        HC    1  MOL    H157   157   0.0600000    1.0080
  158        HC    1  MOL    H158   158   0.0300000    1.0080
  159        HC    1  MOL    H159   159   0.0300000    1.0080
  160        HC    1  MOL    H160   160   0.0300000    1.0080
  161        HC    1  MOL    H161   161   0.0300000    1.0080
  162        CT    1  MOL    C162   162  -0.1200000   12.0115
  163        CT    1  MOL    C163   163   0.1700000   12.0115
  164        OS    1  MOL    O164   164  -0.4000000   15.9994
  165        CT    1  MOL    C165   165   0.1100000   12.0115
  166        HC    1  MOL    H166   166   0.0600000    1.0080
  167        HC    1  MOL    H167   167   0.0600000    1.0080
  168        HC    1  MOL    H168   168   0.0300000    1.0080
  169        HC    1  MOL    H169   169   0.0300000    1.0080
  170        HC    1  MOL    H170   170   0.0300000    1.0080
  171        HC    1  MOL    H171   171   0.0300000    1.0080
  172        CT    1  MOL    C172   172  -0.1200000   12.0115
  173        CT    1  MOL    C173   173   0.1700000   12.0115
  174        OS    1  MOL    O174   174  -0.4000000   15.9994
  175        CT    1  MOL    C175   175   0.1100000   12.0115
  176        HC    1  MOL    H176   176   0.0600000    1.0080
  177        HC    1  MOL    H177   177   0.0600000    1.0080
  178        HC    1  MOL    H178   178   0.0300000    1.0080
  179        HC    1  MOL    H179   179   0.0300000    1.0080
  180        HC    1  MOL    H180   180   0.0300000    1.0080
  181        HC    1  MOL    H181   181   0.0300000    1.0080
  182        CT    1  MOL    C182   182  -0.1200000   12.0115
  183        CT    1  MOL    C183   183   0.1700000   12.0115
  184        OS    1  MOL    O184   184  -0.4000000   15.9994
  185        CT    1  MOL    C185   185   0.1100000   12.0115
  186        HC    1  MOL    H186   186   0.0600000    1.0080
  187        HC    1  MOL    H187   187   0.0600000    1.0080
  188        HC    1  MOL    H188   188   0.0300000    1.0080
  189        HC    1  MOL    H189   189   0.0300000    1.0080
  190        HC    1  MOL    H190   190   0.0300000    1.0080
  191        HC    1  MOL    H191   191   0.0300000    1.0080
  192        CT    1  MOL    C192   192  -0.1200000   12.0115
  193        CT    1  MOL    C193   193   0.1400000   12.0115
  194        OS    1  MOL    O194   194  -0.4000000   15.9994
  195        CT    1  MOL    C195   195   0.1100000   12.0115
  196        HC    1  MOL    H196   196   0.0600000    1.0080
  197        HC    1  MOL    H197   197   0.0600000    1.0080
  198        HC    1  MOL    H198   198   0.0300000    1.0080
  199        HC    1  MOL    H199   199   0.0300000    1.0080
  200        HC    1  MOL    H200   200   0.0300000    1.0080
  201        HC    1  MOL    H201   201   0.0300000    1.0080
  202        HC    1  MOL    H202   202   0.0300000    1.0080

[ bonds ]
      1      2   1      0.1529 224262.4000
      1      5   1      0.1090 284512.0000
      1      6   1      0.1090 284512.0000
      1     11   1      0.1090 284512.0000
      2      3   1      0.1410 267776.0000
      2      7   1      0.1090 284512.0000
      2     12   1      0.1529 224262.4000
      3      4   1      0.1410 267776.0000
      4      8   1      0.1090 284512.0000
      4      9   1      0.1090 284512.0000
      4     10   1      0.1090 284512.0000
     12     13   1      0.1529 224262.4000
     12     16   1      0.1090 284512.0000
     12     17   1      0.1090 284512.0000
     13     14   1      0.1410 267776.0000
     13     18   1      0.1090 284512.0000
     13     22   1      0.1529 224262.4000
     14     15   1      0.1410 267776.0000
     15     19   1      0.1090 284512.0000
     15     20   1      0.1090 284512.0000
     15     21   1      0.1090 284512.0000
     22     23   1      0.1529 224262.4000
     22     26   1      0.1090 284512.0000
     22     27   1      0.1090 284512.0000
     23     24   1      0.1410 267776.0000
     23     28   1      0.1090 284512.0000
     23     32   1      0.1529 224262.4000
     24     25   1      0.1410 267776.0000
     25     29   1      0.1090 284512.0000
     25     30   1      0.1090 284512.0000
     25     31   1      0.1090 284512.0000
     32     33   1      0.1529 224262.4000
     32     36   1      0.1090 284512.0000
     32     37   1      0.1090 284512.0000
     33     34   1      0.1410 267776.0000
     33     38   1      0.1090 284512.0000
     33     42   1      0.1529 224262.4000
     34     35   1      0.1410 267776.0000
     35     39   1      0.1090 284512.0000
     35     40   1      0.1090 284512.0000
     35     41   1      0.1090 284512.0000
     42     43   1      0.1529 224262.4000
     42     46   1      0.1090 284512.0000
     42     47   1      0.1090 284512.0000
     43     44   1      0.1410 267776.0000
     43     48   1      0.1090 284512.0000
     43     52   1      0.1529 224262.4000
     44     45   1      0.1410 267776.0000
     45     49   1      0.1090 284512.0000
     45     50   1      0.1090 284512.0000
     45     51   1      0.1090 284512.0000
     52     53   1      0.1529 224262.4000
     52     56   1      0.1090 284512.0000
     52     57   1      0.1090 284512.0000
     53     54   1      0.1410 267776.0000
     53     58   1      0.1090 284512.0000
     53     62   1      0.1529 224262.4000
     54     55   1      0.1410 267776.0000
     55     59   1      0.1090 284512.0000
     55     60   1      0.1090 284512.0000
     55     61   1      0.1090 284512.0000
     62     63   1      0.1529 224262.4000
     62     66   1      0.1090 284512.0000
     62     67   1      0.1090 284512.0000
     63     64   1      0.1410 267776.0000
     63     68   1      0.1090 284512.0000
     63     72   1      0.1529 224262.4000
     64     65   1      0.1410 267776.0000
     65     69   1      0.1090 284512.0000
     65     70   1      0.1090 284512.0000
     65     71   1      0.1090 284512.0000
     72     73   1      0.1529 224262.4000
     72     76   1      0.1090 284512.0000
     72     77   1      0.1090 284512.0000
     73     74   1      0.1410 267776.0000
     73     78   1      0.1090 284512.0000
     73     82   1      0.1529 224262.4000
     74     75   1      0.1410 267776.0000
     75     79   1      0.1090 284512.0000
     75     80   1      0.1090 284512.0000
     75     81   1      0.1090 284512.0000
     82     83   1      0.1529 224262.4000
     82     86   1      0.1090 284512.0000
     82     87   1      0.1090 284512.0000
     83     84   1      0.1410 267776.0000
     83     88   1      0.1090 284512.0000
     83     92   1      0.1529 224262.4000
     84     85   1      0.1410 267776.0000
     85     89   1      0.1090 284512.0000
     85     90   1      0.1090 284512.0000
     85     91   1      0.1090 284512.0000
     92     93   1      0.1529 224262.4000
     92     96   1      0.1090 284512.0000
     92     97   1      0.1090 284512.0000
     93     94   1      0.1410 267776.0000
     93     98   1      0.1090 284512.0000
     93    102   1      0.1529 224262.4000
     94     95   1      0.1410 267776.0000
     95     99   1      0.1090 284512.0000
     95    100   1      0.1090 284512.0000
     95    101   1      0.1090 284512.0000
    102    103   1      0.1529 224262.4000
    102    106   1      0.1090 284512.0000
    102    107   1      0.1090 284512.0000
    103    104   1      0.1410 267776.0000
    103    108   1      0.1090 284512.0000
    103    112   1      0.1529 224262.4000
    104    105   1      0.1410 267776.0000
    105    109   1      0.1090 284512.0000
    105    110   1      0.1090 284512.0000
    105    111   1      0.1090 284512.0000
    112    113   1      0.1529 224262.4000
    112    116   1      0.1090 284512.0000
    112    117   1      0.1090 284512.0000
    113    114   1      0.1410 267776.0000
    113    118   1      0.1090 284512.0000
    113    122   1      0.1529 224262.4000
    114    115   1      0.1410 267776.0000
    115    119   1      0.1090 284512.0000
    115    120   1      0.1090 284512.0000
    115    121   1      0.1090 284512.0000
    122    123   1      0.1529 224262.4000
    122    126   1      0.1090 284512.0000
    122    127   1      0.1090 284512.0000
    123    124   1      0.1410 267776.0000
    123    128   1      0.1090 284512.0000
    123    132   1      0.1529 224262.4000
    124    125   1      0.1410 267776.0000
    125    129   1      0.1090 284512.0000
    125    130   1      0.1090 284512.0000
    125    131   1      0.1090 284512.0000
    132    133   1      0.1529 224262.4000
    132    136   1      0.1090 284512.0000
    132    137   1      0.1090 284512.0000
    133    134   1      0.1410 267776.0000
    133    138   1      0.1090 284512.0000
    133    142   1      0.1529 224262.4000
    134    135   1      0.1410 267776.0000
    135    139   1      0.1090 284512.0000
    135    140   1      0.1090 284512.0000
    135    141   1      0.1090 284512.0000
    142    143   1      0.1529 224262.4000
    142    146   1      0.1090 284512.0000
    142    147   1      0.1090 284512.0000
    143    144   1      0.1410 267776.0000
    143    148   1      0.1090 284512.0000
    143    152   1      0.1529 224262.4000
    144    145   1      0.1410 267776.0000
    145    149   1      0.1090 284512.0000
    145    150   1      0.1090 284512.0000
    145    151   1      0.1090 284512.0000
    152    153   1      0.1529 224262.4000
    152    156   1      0.1090 284512.0000
    152    157   1      0.1090 284512.0000
    153    154   1      0.1410 267776.0000
    153    158   1      0.1090 284512.0000
    153    162   1      0.1529 224262.4000
    154    155   1      0.1410 267776.0000
    155    159   1      0.1090 284512.0000
    155    160   1      0.1090 284512.0000
    155    161   1      0.1090 284512.0000
    162    163   1      0.1529 224262.4000
    162    166   1      0.1090 284512.0000
    162    167   1      0.1090 284512.0000
    163    164   1      0.1410 267776.0000
    163    168   1      0.1090 284512.0000
    163    172   1      0.1529 224262.4000
    164    165   1      0.1410 267776.0000
    165    169   1      0.1090 284512.0000
    165    170   1      0.1090 284512.0000
    165    171   1      0.1090 284512.0000
    172    173   1      0.1529 224262.4000
    172    176   1      0.1090 284512.0000
    172    177   1      0.1090 284512.0000
    173    174   1      0.1410 267776.0000
    173    178   1      0.1090 284512.0000
    173    182   1      0.1529 224262.4000
    174    175   1      0.1410 267776.0000
    175    179   1      0.1090 284512.0000
    175    180   1      0.1090 284512.0000
    175    181   1      0.1090 284512.0000
    182    183   1      0.1529 224262.4000
    182    186   1      0.1090 284512.0000
    182    187   1      0.1090 284512.0000
    183    184   1      0.1410 267776.0000
    183    188   1      0.1090 284512.0000
    183    192   1      0.1529 224262.4000
    184    185   1      0.1410 267776.0000
    185    189   1      0.1090 284512.0000
    185    190   1      0.1090 284512.0000
    185    191   1      0.1090 284512.0000
    192    193   1      0.1529 224262.4000
    192    196   1      0.1090 284512.0000
    192    197   1      0.1090 284512.0000
    193    194   1      0.1410 267776.0000
    193    198   1      0.1090 284512.0000
    193    202   1      0.1090 284512.0000
    194    195   1      0.1410 267776.0000
    195    199   1      0.1090 284512.0000
    195    200   1      0.1090 284512.0000
    195    201   1      0.1090 284512.0000

[ pairs ]
; ai   aj   funct   fudge_QQ  charge_i   charge_j   c6    c12
      5      3   2   0.50000     0.0600000   -0.4000000   2.066619e-04  7.875431e-08
      5      7   2   0.50000     0.0600000    0.0300000   6.128906e-05  1.496315e-08
      5     12   2   0.50000     0.0600000   -0.1200000   2.494471e-04  1.671101e-07
      6      3   2   0.50000     0.0600000   -0.4000000   2.066619e-04  7.875431e-08
      6      7   2   0.50000     0.0600000    0.0300000   6.128906e-05  1.496315e-08
      6     12   2   0.50000     0.0600000   -0.1200000   2.494471e-04  1.671101e-07
     11      3   2   0.50000     0.0600000   -0.4000000   2.066619e-04  7.875431e-08
     11      7   2   0.50000     0.0600000    0.0300000   6.128906e-05  1.496315e-08
     11     12   2   0.50000     0.0600000   -0.1200000   2.494471e-04  1.671101e-07
      1      4   2   0.50000    -0.1800000    0.1100000   1.015252e-03  1.866303e-06
      7      4   2   0.50000     0.0300000    0.1100000   2.494471e-04  1.671101e-07
     12      4   2   0.50000    -0.1200000    0.1100000   1.015252e-03  1.866303e-06
      1     13   2   0.50000    -0.1800000    0.1700000   1.015252e-03  1.866303e-06
      1     16   2   0.50000    -0.1800000    0.0600000   2.494471e-04  1.671101e-07
      1     17   2   0.50000    -0.1800000    0.0600000   2.494471e-04  1.671101e-07
      3     13   2   0.50000    -0.4000000    0.1700000   8.411158e-04  8.795366e-07
      3     16   2   0.50000    -0.4000000    0.0600000   2.066619e-04  7.875431e-08
      3     17   2   0.50000    -0.4000000    0.0600000   2.066619e-04  7.875431e-08
      7     13   2   0.50000     0.0300000    0.1700000   2.494471e-04  1.671101e-07
      7     16   2   0.50000     0.0300000    0.0600000   6.128906e-05  1.496315e-08
      7     17   2   0.50000     0.0300000    0.0600000   6.128906e-05  1.496315e-08
      2      8   2   0.50000     0.1700000    0.0300000   2.494471e-04  1.671101e-07
      2      9   2   0.50000     0.1700000    0.0300000   2.494471e-04  1.671101e-07
      2     10   2   0.50000     0.1700000    0.0300000   2.494471e-04  1.671101e-07
      2     14   2   0.50000     0.1700000   -0.4000000   8.411158e-04  8.795366e-07
      2     18   2   0.50000     0.1700000    0.0300000   2.494471e-04  1.671101e-07
      2     22   2   0.50000     0.1700000   -0.1200000   1.015252e-03  1.866303e-06
     16     14   2   0.50000     0.0600000   -0.4000000   2.066619e-04  7.875431e-08
     16     18   2   0.50000     0.0600000    0.0300000   6.128906e-05  1.496315e-08
     16     22   2   0.50000     0.0600000   -0.1200000   2.494471e-04  1.671101e-07
     17     14   2   0.50000     0.0600000   -0.4000000   2.066619e-04  7.875431e-08
     17     18   2   0.50000     0.0600000    0.0300000   6.128906e-05  1.496315e-08
     17     22   2   0.50000     0.0600000   -0.1200000   2.494471e-04  1.671101e-07
     12     15   2   0.50000    -0.1200000    0.1100000   1.015252e-03  1.866303e-06
     18     15   2   0.50000     0.0300000    0.1100000   2.494471e-04  1.671101e-07
     22     15   2   0.50000    -0.1200000    0.1100000   1.015252e-03  1.866303e-06
     12     23   2   0.50000    -0.1200000    0.1700000   1.015252e-03  1.866303e-06
     12     26   2   0.50000    -0.1200000    0.0600000   2.494471e-04  1.671101e-07
     12     27   2   0.50000    -0.1200000    0.0600000   2.494471e-04  1.671101e-07
     14     23   2   0.50000    -0.4000000    0.1700000   8.411158e-04  8.795366e-07
     14     26   2   0.50000    -0.4000000    0.0600000   2.066619e-04  7.875431e-08
     14     27   2   0.50000    -0.4000000    0.0600000   2.066619e-04  7.875431e-08
     18     23   2   0.50000     0.0300000    0.1700000   2.494471e-04  1.671101e-07
     18     26   2   0.50000     0.0300000    0.0600000   6.128906e-05  1.496315e-08
     18     27   2   0.50000     0.0300000    0.0600000   6.128906e-05  1.496315e-08
     13     19   2   0.50000     0.1700000    0.0300000   2.494471e-04  1.671101e-07
     13     20   2   0.50000     0.1700000    0.0300000   2.494471e-04  1.671101e-07
     13     21   2   0.50000     0.1700000    0.0300000   2.494471e-04  1.671101e-07
     13     24   2   0.50000     0.1700000   -0.4000000   8.411158e-04  8.795366e-07
     13     28   2   0.50000     0.1700000    0.0300000   2.494471e-04  1.671101e-07
     13     32   2   0.50000     0.1700000   -0.1200000   1.015252e-03  1.866303e-06
     26     24   2   0.50000     0.0600000   -0.4000000   2.066619e-04  7.875431e-08
     26     28   2   0.50000     0.0600000    0.0300000   6.128906e-05  1.496315e-08
     26     32   2   0.50000     0.0600000   -0.1200000   2.494471e-04  1.671101e-07
     27     24   2   0.50000     0.0600000   -0.4000000   2.066619e-04  7.875431e-08
     27     28   2   0.50000     0.0600000    0.0300000   6.128906e-05  1.496315e-08
     27     32   2   0.50000     0.0600000   -0.1200000   2.494471e-04  1.671101e-07
     22     25   2   0.50000    -0.1200000    0.1100000   1.015252e-03  1.866303e-06
     28     25   2   0.50000     0.0300000    0.1100000   2.494471e-04  1.671101e-07
     32     25   2   0.50000    -0.1200000    0.1100000   1.015252e-03  1.866303e-06
     22     33   2   0.50000    -0.1200000    0.1700000   1.015252e-03  1.866303e-06
     22     36   2   0.50000    -0.1200000    0.0600000   2.494471e-04  1.671101e-07
     22     37   2   0.50000    -0.1200000    0.0600000   2.494471e-04  1.671101e-07
     24     33   2   0.50000    -0.4000000    0.1700000   8.411158e-04  8.795366e-07
     24     36   2   0.50000    -0.4000000    0.0600000   2.066619e-04  7.875431e-08
     24     37   2   0.50000    -0.4000000    0.0600000   2.066619e-04  7.875431e-08
     28     33   2   0.50000     0.0300000    0.1700000   2.494471e-04  1.671101e-07
     28     36   2   0.50000     0.0300000    0.0600000   6.128906e-05  1.496315e-08
     28     37   2   0.50000     0.0300000    0.0600000   6.128906e-05  1.496315e-08
     23     29   2   0.50000     0.1700000    0.0300000   2.494471e-04  1.671101e-07
     23     30   2   0.50000     0.1700000    0.0300000   2.494471e-04  1.671101e-07
     23     31   2   0.50000     0.1700000    0.0300000   2.494471e-04  1.671101e-07
     23     34   2   0.50000     0.1700000   -0.4000000   8.411158e-04  8.795366e-07
     23     38   2   0.50000     0.1700000    0.0300000   2.494471e-04  1.671101e-07
     23     42   2   0.50000     0.1700000   -0.1200000   1.015252e-03  1.866303e-06
     36     34   2   0.50000     0.0600000   -0.4000000   2.066619e-04  7.875431e-08
     36     38   2   0.50000     0.0600000    0.0300000   6.128906e-05  1.496315e-08
     36     42   2   0.50000     0.0600000   -0.1200000   2.494471e-04  1.671101e-07
     37     34   2   0.50000     0.0600000   -0.4000000   2.066619e-04  7.875431e-08
     37     38   2   0.50000     0.0600000    0.0300000   6.128906e-05  1.496315e-08
     37     42   2   0.50000     0.0600000   -0.1200000   2.494471e-04  1.671101e-07
     32     35   2   0.50000    -0.1200000    0.1100000   1.015252e-03  1.866303e-06
     38     35   2   0.50000     0.0300000    0.1100000   2.494471e-04  1.671101e-07
     42     35   2   0.50000    -0.1200000    0.1100000   1.015252e-03  1.866303e-06
     32     43   2   0.50000    -0.1200000    0.1700000   1.015252e-03  1.866303e-06
     32     46   2   0.50000    -0.1200000    0.0600000   2.494471e-04  1.671101e-07
     32     47   2   0.50000    -0.1200000    0.0600000   2.494471e-04  1.671101e-07
     34     43   2   0.50000    -0.4000000    0.1700000   8.411158e-04  8.795366e-07
     34     46   2   0.50000    -0.4000000    0.0600000   2.066619e-04  7.875431e-08
     34     47   2   0.50000    -0.4000000    0.0600000   2.066619e-04  7.875431e-08
     38     43   2   0.50000     0.0300000    0.1700000   2.494471e-04  1.671101e-07
     38     46   2   0.50000     0.0300000    0.0600000   6.128906e-05  1.496315e-08
     38     47   2   0.50000     0.0300000    0.0600000   6.128906e-05  1.496315e-08
     33     39   2   0.50000     0.1700000    0.0300000   2.494471e-04  1.671101e-07
     33     40   2   0.50000     0.1700000    0.0300000   2.494471e-04  1.671101e-07
     33     41   2   0.50000     0.1700000    0.0300000   2.494471e-04  1.671101e-07
     33     44   2   0.50000     0.1700000   -0.4000000   8.411158e-04  8.795366e-07
     33     48   2   0.50000     0.1700000    0.0300000   2.494471e-04  1.671101e-07
     33     52   2   0.50000     0.1700000   -0.1200000   1.015252e-03  1.866303e-06
     46     44   2   0.50000     0.0600000   -0.4000000   2.066619e-04  7.875431e-08
     46     48   2   0.50000     0.0600000    0.0300000   6.128906e-05  1.496315e-08
     46     52   2   0.50000     0.0600000   -0.1200000   2.494471e-04  1.671101e-07
     47     44   2   0.50000     0.0600000   -0.4000000   2.066619e-04  7.875431e-08
     47     48   2   0.50000     0.0600000    0.0300000   6.128906e-05  1.496315e-08
     47     52   2   0.50000     0.0600000   -0.1200000   2.494471e-04  1.671101e-07
     42     45   2   0.50000    -0.1200000    0.1100000   1.015252e-03  1.866303e-06
     48     45   2   0.50000     0.0300000    0.1100000   2.494471e-04  1.671101e-07
     52     45   2   0.50000    -0.1200000    0.1100000   1.015252e-03  1.866303e-06
     42     53   2   0.50000    -0.1200000    0.1700000   1.015252e-03  1.866303e-06
     42     56   2   0.50000    -0.1200000    0.0600000   2.494471e-04  1.671101e-07
     42     57   2   0.50000    -0.1200000    0.0600000   2.494471e-04  1.671101e-07
     44     53   2   0.50000    -0.4000000    0.1700000   8.411158e-04  8.795366e-07
     44     56   2   0.50000    -0.4000000    0.0600000   2.066619e-04  7.875431e-08
     44     57   2   0.50000    -0.4000000    0.0600000   2.066619e-04  7.875431e-08
     48     53   2   0.50000     0.0300000    0.1700000   2.494471e-04  1.671101e-07
     48     56   2   0.50000     0.0300000    0.0600000   6.128906e-05  1.496315e-08
     48     57   2   0.50000     0.0300000    0.0600000   6.128906e-05  1.496315e-08
     43     49   2   0.50000     0.1700000    0.0300000   2.494471e-04  1.671101e-07
     43     50   2   0.50000     0.1700000    0.0300000   2.494471e-04  1.671101e-07
     43     51   2   0.50000     0.1700000    0.0300000   2.494471e-04  1.671101e-07
     43     54   2   0.50000     0.1700000   -0.4000000   8.411158e-04  8.795366e-07
     43     58   2   0.50000     0.1700000    0.0300000   2.494471e-04  1.671101e-07
     43     62   2   0.50000     0.1700000   -0.1200000   1.015252e-03  1.866303e-06
     56     54   2   0.50000     0.0600000   -0.4000000   2.066619e-04  7.875431e-08
     56     58   2   0.50000     0.0600000    0.0300000   6.128906e-05  1.496315e-08
     56     62   2   0.50000     0.0600000   -0.1200000   2.494471e-04  1.671101e-07
     57     54   2   0.50000     0.0600000   -0.4000000   2.066619e-04  7.875431e-08
     57     58   2   0.50000     0.0600000    0.0300000   6.128906e-05  1.496315e-08
     57     62   2   0.50000     0.0600000   -0.1200000   2.494471e-04  1.671101e-07
     52     55   2   0.50000    -0.1200000    0.1100000   1.015252e-03  1.866303e-06
     58     55   2   0.50000     0.0300000    0.1100000   2.494471e-04  1.671101e-07
     62     55   2   0.50000    -0.1200000    0.1100000   1.015252e-03  1.866303e-06
     52     63   2   0.50000    -0.1200000    0.1700000   1.015252e-03  1.866303e-06
     52     66   2   0.50000    -0.1200000    0.0600000   2.494471e-04  1.671101e-07
     52     67   2   0.50000    -0.1200000    0.0600000   2.494471e-04  1.671101e-07
     54     63   2   0.50000    -0.4000000    0.1700000   8.411158e-04  8.795366e-07
     54     66   2   0.50000    -0.4000000    0.0600000   2.066619e-04  7.875431e-08
     54     67   2   0.50000    -0.4000000    0.0600000   2.066619e-04  7.875431e-08
     58     63   2   0.50000     0.0300000    0.1700000   2.494471e-04  1.671101e-07
     58     66   2   0.50000     0.0300000    0.0600000   6.128906e-05  1.496315e-08
     58     67   2   0.50000     0.0300000    0.0600000   6.128906e-05  1.496315e-08
     53     59   2   0.50000     0.1700000    0.0300000   2.494471e-04  1.671101e-07
     53     60   2   0.50000     0.1700000    0.0300000   2.494471e-04  1.671101e-07
     53     61   2   0.50000     0.1700000    0.0300000   2.494471e-04  1.671101e-07
     53     64   2   0.50000     0.1700000   -0.4000000   8.411158e-04  8.795366e-07
     53     68   2   0.50000     0.1700000    0.0300000   2.494471e-04  1.671101e-07
     53     72   2   0.50000     0.1700000   -0.1200000   1.015252e-03  1.866303e-06
     66     64   2   0.50000     0.0600000   -0.4000000   2.066619e-04  7.875431e-08
     66     68   2   0.50000     0.0600000    0.0300000   6.128906e-05  1.496315e-08
     66     72   2   0.50000     0.0600000   -0.1200000   2.494471e-04  1.671101e-07
     67     64   2   0.50000     0.0600000   -0.4000000   2.066619e-04  7.875431e-08
     67     68   2   0.50000     0.0600000    0.0300000   6.128906e-05  1.496315e-08
     67     72   2   0.50000     0.0600000   -0.1200000   2.494471e-04  1.671101e-07
     62     65   2   0.50000    -0.1200000    0.1100000   1.015252e-03  1.866303e-06
     68     65   2   0.50000     0.0300000    0.1100000   2.494471e-04  1.671101e-07
     72     65   2   0.50000    -0.1200000    0.1100000   1.015252e-03  1.866303e-06
     62     73   2   0.50000    -0.1200000    0.1700000   1.015252e-03  1.866303e-06
     62     76   2   0.50000    -0.1200000    0.0600000   2.494471e-04  1.671101e-07
     62     77   2   0.50000    -0.1200000    0.0600000   2.494471e-04  1.671101e-07
     64     73   2   0.50000    -0.4000000    0.1700000   8.411158e-04  8.795366e-07
     64     76   2   0.50000    -0.4000000    0.0600000   2.066619e-04  7.875431e-08
     64     77   2   0.50000    -0.4000000    0.0600000   2.066619e-04  7.875431e-08
     68     73   2   0.50000     0.0300000    0.1700000   2.494471e-04  1.671101e-07
     68     76   2   0.50000     0.0300000    0.0600000   6.128906e-05  1.496315e-08
     68     77   2   0.50000     0.0300000    0.0600000   6.128906e-05  1.496315e-08
     63     69   2   0.50000     0.1700000    0.0300000   2.494471e-04  1.671101e-07
     63     70   2   0.50000     0.1700000    0.0300000   2.494471e-04  1.671101e-07
     63     71   2   0.50000     0.1700000    0.0300000   2.494471e-04  1.671101e-07
     63     74   2   0.50000     0.1700000   -0.4000000   8.411158e-04  8.795366e-07
     63     78   2   0.50000     0.1700000    0.0300000   2.494471e-04  1.671101e-07
     63     82   2   0.50000     0.1700000   -0.1200000   1.015252e-03  1.866303e-06
     76     74   2   0.50000     0.0600000   -0.4000000   2.066619e-04  7.875431e-08
     76     78   2   0.50000     0.0600000    0.0300000   6.128906e-05  1.496315e-08
     76     82   2   0.50000     0.0600000   -0.1200000   2.494471e-04  1.671101e-07
     77     74   2   0.50000     0.0600000   -0.4000000   2.066619e-04  7.875431e-08
     77     78   2   0.50000     0.0600000    0.0300000   6.128906e-05  1.496315e-08
     77     82   2   0.50000     0.0600000   -0.1200000   2.494471e-04  1.671101e-07
     72     75   2   0.50000    -0.1200000    0.1100000   1.015252e-03  1.866303e-06
     78     75   2   0.50000     0.0300000    0.1100000   2.494471e-04  1.671101e-07
     82     75   2   0.50000    -0.1200000    0.1100000   1.015252e-03  1.866303e-06
     72     83   2   0.50000    -0.1200000    0.1700000   1.015252e-03  1.866303e-06
     72     86   2   0.50000    -0.1200000    0.0600000   2.494471e-04  1.671101e-07
     72     87   2   0.50000    -0.1200000    0.0600000   2.494471e-04  1.671101e-07
     74     83   2   0.50000    -0.4000000    0.1700000   8.411158e-04  8.795366e-07
     74     86   2   0.50000    -0.4000000    0.0600000   2.066619e-04  7.875431e-08
     74     87   2   0.50000    -0.4000000    0.0600000   2.066619e-04  7.875431e-08
     78     83   2   0.50000     0.0300000    0.1700000   2.494471e-04  1.671101e-07
     78     86   2   0.50000     0.0300000    0.0600000   6.128906e-05  1.496315e-08
     78     87   2   0.50000     0.0300000    0.0600000   6.128906e-05  1.496315e-08
     73     79   2   0.50000     0.1700000    0.0300000   2.494471e-04  1.671101e-07
     73     80   2   0.50000     0.1700000    0.0300000   2.494471e-04  1.671101e-07
     73     81   2   0.50000     0.1700000    0.0300000   2.494471e-04  1.671101e-07
     73     84   2   0.50000     0.1700000   -0.4000000   8.411158e-04  8.795366e-07
     73     88   2   0.50000     0.1700000    0.0300000   2.494471e-04  1.671101e-07
     73     92   2   0.50000     0.1700000   -0.1200000   1.015252e-03  1.866303e-06
     86     84   2   0.50000     0.0600000   -0.4000000   2.066619e-04  7.875431e-08
     86     88   2   0.50000     0.0600000    0.0300000   6.128906e-05  1.496315e-08
     86     92   2   0.50000     0.0600000   -0.1200000   2.494471e-04  1.671101e-07
     87     84   2   0.50000     0.0600000   -0.4000000   2.066619e-04  7.875431e-08
     87     88   2   0.50000     0.0600000    0.0300000   6.128906e-05  1.496315e-08
     87     92   2   0.50000     0.0600000   -0.1200000   2.494471e-04  1.671101e-07
     82     85   2   0.50000    -0.1200000    0.1100000   1.015252e-03  1.866303e-06
     88     85   2   0.50000     0.0300000    0.1100000   2.494471e-04  1.671101e-07
     92     85   2   0.50000    -0.1200000    0.1100000   1.015252e-03  1.866303e-06
     82     93   2   0.50000    -0.1200000    0.1700000   1.015252e-03  1.866303e-06
     82     96   2   0.50000    -0.1200000    0.0600000   2.494471e-04  1.671101e-07
     82     97   2   0.50000    -0.1200000    0.0600000   2.494471e-04  1.671101e-07
     84     93   2   0.50000    -0.4000000    0.1700000   8.411158e-04  8.795366e-07
     84     96   2   0.50000    -0.4000000    0.0600000   2.066619e-04  7.875431e-08
     84     97   2   0.50000    -0.4000000    0.0600000   2.066619e-04  7.875431e-08
     88     93   2   0.50000     0.0300000    0.1700000   2.494471e-04  1.671101e-07
     88     96   2   0.50000     0.0300000    0.0600000   6.128906e-05  1.496315e-08
     88     97   2   0.50000     0.0300000    0.0600000   6.128906e-05  1.496315e-08
     83     89   2   0.50000     0.1700000    0.0300000   2.494471e-04  1.671101e-07
     83     90   2   0.50000     0.1700000    0.0300000   2.494471e-04  1.671101e-07
     83     91   2   0.50000     0.1700000    0.0300000   2.494471e-04  1.671101e-07
     83     94   2   0.50000     0.1700000   -0.4000000   8.411158e-04  8.795366e-07
     83     98   2   0.50000     0.1700000    0.0300000   2.494471e-04  1.671101e-07
     83    102   2   0.50000     0.1700000   -0.1200000   1.015252e-03  1.866303e-06
     96     94   2   0.50000     0.0600000   -0.4000000   2.066619e-04  7.875431e-08
     96     98   2   0.50000     0.0600000    0.0300000   6.128906e-05  1.496315e-08
     96    102   2   0.50000     0.0600000   -0.1200000   2.494471e-04  1.671101e-07
     97     94   2   0.50000     0.0600000   -0.4000000   2.066619e-04  7.875431e-08
     97     98   2   0.50000     0.0600000    0.0300000   6.128906e-05  1.496315e-08
     97    102   2   0.50000     0.0600000   -0.1200000   2.494471e-04  1.671101e-07
     92     95   2   0.50000    -0.1200000    0.1100000   1.015252e-03  1.866303e-06
     98     95   2   0.50000     0.0300000    0.1100000   2.494471e-04  1.671101e-07
    102     95   2   0.50000    -0.1200000    0.1100000   1.015252e-03  1.866303e-06
     92    103   2   0.50000    -0.1200000    0.1700000   1.015252e-03  1.866303e-06
     92    106   2   0.50000    -0.1200000    0.0600000   2.494471e-04  1.671101e-07
     92    107   2   0.50000    -0.1200000    0.0600000   2.494471e-04  1.671101e-07
     94    103   2   0.50000    -0.4000000    0.1700000   8.411158e-04  8.795366e-07
     94    106   2   0.50000    -0.4000000    0.0600000   2.066619e-04  7.875431e-08
     94    107   2   0.50000    -0.4000000    0.0600000   2.066619e-04  7.875431e-08
     98    103   2   0.50000     0.0300000    0.1700000   2.494471e-04  1.671101e-07
     98    106   2   0.50000     0.0300000    0.0600000   6.128906e-05  1.496315e-08
     98    107   2   0.50000     0.0300000    0.0600000   6.128906e-05  1.496315e-08
     93     99   2   0.50000     0.1700000    0.0300000   2.494471e-04  1.671101e-07
     93    100   2   0.50000     0.1700000    0.0300000   2.494471e-04  1.671101e-07
     93    101   2   0.50000     0.1700000    0.0300000   2.494471e-04  1.671101e-07
     93    104   2   0.50000     0.1700000   -0.4000000   8.411158e-04  8.795366e-07
     93    108   2   0.50000     0.1700000    0.0300000   2.494471e-04  1.671101e-07
     93    112   2   0.50000     0.1700000   -0.1200000   1.015252e-03  1.866303e-06
    106    104   2   0.50000     0.0600000   -0.4000000   2.066619e-04  7.875431e-08
    106    108   2   0.50000     0.0600000    0.0300000   6.128906e-05  1.496315e-08
    106    112   2   0.50000     0.0600000   -0.1200000   2.494471e-04  1.671101e-07
    107    104   2   0.50000     0.0600000   -0.4000000   2.066619e-04  7.875431e-08
    107    108   2   0.50000     0.0600000    0.0300000   6.128906e-05  1.496315e-08
    107    112   2   0.50000     0.0600000   -0.1200000   2.494471e-04  1.671101e-07
    102    105   2   0.50000    -0.1200000    0.1100000   1.015252e-03  1.866303e-06
    108    105   2   0.50000     0.0300000    0.1100000   2.494471e-04  1.671101e-07
    112    105   2   0.50000    -0.1200000    0.1100000   1.015252e-03  1.866303e-06
    102    113   2   0.50000    -0.1200000    0.1700000   1.015252e-03  1.866303e-06
    102    116   2   0.50000    -0.1200000    0.0600000   2.494471e-04  1.671101e-07
    102    117   2   0.50000    -0.1200000    0.0600000   2.494471e-04  1.671101e-07
    104    113   2   0.50000    -0.4000000    0.1700000   8.411158e-04  8.795366e-07
    104    116   2   0.50000    -0.4000000    0.0600000   2.066619e-04  7.875431e-08
    104    117   2   0.50000    -0.4000000    0.0600000   2.066619e-04  7.875431e-08
    108    113   2   0.50000     0.0300000    0.1700000   2.494471e-04  1.671101e-07
    108    116   2   0.50000     0.0300000    0.0600000   6.128906e-05  1.496315e-08
    108    117   2   0.50000     0.0300000    0.0600000   6.128906e-05  1.496315e-08
    103    109   2   0.50000     0.1700000    0.0300000   2.494471e-04  1.671101e-07
    103    110   2   0.50000     0.1700000    0.0300000   2.494471e-04  1.671101e-07
    103    111   2   0.50000     0.1700000    0.0300000   2.494471e-04  1.671101e-07
    103    114   2   0.50000     0.1700000   -0.4000000   8.411158e-04  8.795366e-07
    103    118   2   0.50000     0.1700000    0.0300000   2.494471e-04  1.671101e-07
    103    122   2   0.50000     0.1700000   -0.1200000   1.015252e-03  1.866303e-06
    116    114   2   0.50000     0.0600000   -0.4000000   2.066619e-04  7.875431e-08
    116    118   2   0.50000     0.0600000    0.0300000   6.128906e-05  1.496315e-08
    116    122   2   0.50000     0.0600000   -0.1200000   2.494471e-04  1.671101e-07
    117    114   2   0.50000     0.0600000   -0.4000000   2.066619e-04  7.875431e-08
    117    118   2   0.50000     0.0600000    0.0300000   6.128906e-05  1.496315e-08
    117    122   2   0.50000     0.0600000   -0.1200000   2.494471e-04  1.671101e-07
    112    115   2   0.50000    -0.1200000    0.1100000   1.015252e-03  1.866303e-06
    118    115   2   0.50000     0.0300000    0.1100000   2.494471e-04  1.671101e-07
    122    115   2   0.50000    -0.1200000    0.1100000   1.015252e-03  1.866303e-06
    112    123   2   0.50000    -0.1200000    0.1700000   1.015252e-03  1.866303e-06
    112    126   2   0.50000    -0.1200000    0.0600000   2.494471e-04  1.671101e-07
    112    127   2   0.50000    -0.1200000    0.0600000   2.494471e-04  1.671101e-07
    114    123   2   0.50000    -0.4000000    0.1700000   8.411158e-04  8.795366e-07
    114    126   2   0.50000    -0.4000000    0.0600000   2.066619e-04  7.875431e-08
    114    127   2   0.50000    -0.4000000    0.0600000   2.066619e-04  7.875431e-08
    118    123   2   0.50000     0.0300000    0.1700000   2.494471e-04  1.671101e-07
    118    126   2   0.50000     0.0300000    0.0600000   6.128906e-05  1.496315e-08
    118    127   2   0.50000     0.0300000    0.0600000   6.128906e-05  1.496315e-08
    113    119   2   0.50000     0.1700000    0.0300000   2.494471e-04  1.671101e-07
    113    120   2   0.50000     0.1700000    0.0300000   2.494471e-04  1.671101e-07
    113    121   2   0.50000     0.1700000    0.0300000   2.494471e-04  1.671101e-07
    113    124   2   0.50000     0.1700000   -0.4000000   8.411158e-04  8.795366e-07
    113    128   2   0.50000     0.1700000    0.0300000   2.494471e-04  1.671101e-07
    113    132   2   0.50000     0.1700000   -0.1200000   1.015252e-03  1.866303e-06
    126    124   2   0.50000     0.0600000   -0.4000000   2.066619e-04  7.875431e-08
    126    128   2   0.50000     0.0600000    0.0300000   6.128906e-05  1.496315e-08
    126    132   2   0.50000     0.0600000   -0.1200000   2.494471e-04  1.671101e-07
    127    124   2   0.50000     0.0600000   -0.4000000   2.066619e-04  7.875431e-08
    127    128   2   0.50000     0.0600000    0.0300000   6.128906e-05  1.496315e-08
    127    132   2   0.50000     0.0600000   -0.1200000   2.494471e-04  1.671101e-07
    122    125   2   0.50000    -0.1200000    0.1100000   1.015252e-03  1.866303e-06
    128    125   2   0.50000     0.0300000    0.1100000   2.494471e-04  1.671101e-07
    132    125   2   0.50000    -0.1200000    0.1100000   1.015252e-03  1.866303e-06
    122    133   2   0.50000    -0.1200000    0.1700000   1.015252e-03  1.866303e-06
    122    136   2   0.50000    -0.1200000    0.0600000   2.494471e-04  1.671101e-07
    122    137   2   0.50000    -0.1200000    0.0600000   2.494471e-04  1.671101e-07
    124    133   2   0.50000    -0.4000000    0.1700000   8.411158e-04  8.795366e-07
    124    136   2   0.50000    -0.4000000    0.0600000   2.066619e-04  7.875431e-08
    124    137   2   0.50000    -0.4000000    0.0600000   2.066619e-04  7.875431e-08
    128    133   2   0.50000     0.0300000    0.1700000   2.494471e-04  1.671101e-07
    128    136   2   0.50000     0.0300000    0.0600000   6.128906e-05  1.496315e-08
    128    137   2   0.50000     0.0300000    0.0600000   6.128906e-05  1.496315e-08
    123    129   2   0.50000     0.1700000    0.0300000   2.494471e-04  1.671101e-07
    123    130   2   0.50000     0.1700000    0.0300000   2.494471e-04  1.671101e-07
    123    131   2   0.50000     0.1700000    0.0300000   2.494471e-04  1.671101e-07
    123    134   2   0.50000     0.1700000   -0.4000000   8.411158e-04  8.795366e-07
    123    138   2   0.50000     0.1700000    0.0300000   2.494471e-04  1.671101e-07
    123    142   2   0.50000     0.1700000   -0.1200000   1.015252e-03  1.866303e-06
    136    134   2   0.50000     0.0600000   -0.4000000   2.066619e-04  7.875431e-08
    136    138   2   0.50000     0.0600000    0.0300000   6.128906e-05  1.496315e-08
    136    142   2   0.50000     0.0600000   -0.1200000   2.494471e-04  1.671101e-07
    137    134   2   0.50000     0.0600000   -0.4000000   2.066619e-04  7.875431e-08
    137    138   2   0.50000     0.0600000    0.0300000   6.128906e-05  1.496315e-08
    137    142   2   0.50000     0.0600000   -0.1200000   2.494471e-04  1.671101e-07
    132    135   2   0.50000    -0.1200000    0.1100000   1.015252e-03  1.866303e-06
    138    135   2   0.50000     0.0300000    0.1100000   2.494471e-04  1.671101e-07
    142    135   2   0.50000    -0.1200000    0.1100000   1.015252e-03  1.866303e-06
    132    143   2   0.50000    -0.1200000    0.1700000   1.015252e-03  1.866303e-06
    132    146   2   0.50000    -0.1200000    0.0600000   2.494471e-04  1.671101e-07
    132    147   2   0.50000    -0.1200000    0.0600000   2.494471e-04  1.671101e-07
    134    143   2   0.50000    -0.4000000    0.1700000   8.411158e-04  8.795366e-07
    134    146   2   0.50000    -0.4000000    0.0600000   2.066619e-04  7.875431e-08
    134    147   2   0.50000    -0.4000000    0.0600000   2.066619e-04  7.875431e-08
    138    143   2   0.50000     0.0300000    0.1700000   2.494471e-04  1.671101e-07
    138    146   2   0.50000     0.0300000    0.0600000   6.128906e-05  1.496315e-08
    138    147   2   0.50000     0.0300000    0.0600000   6.128906e-05  1.496315e-08
    133    139   2   0.50000     0.1700000    0.0300000   2.494471e-04  1.671101e-07
    133    140   2   0.50000     0.1700000    0.0300000   2.494471e-04  1.671101e-07
    133    141   2   0.50000     0.1700000    0.0300000   2.494471e-04  1.671101e-07
    133    144   2   0.50000     0.1700000   -0.4000000   8.411158e-04  8.795366e-07
    133    148   2   0.50000     0.1700000    0.0300000   2.494471e-04  1.671101e-07
    133    152   2   0.50000     0.1700000   -0.1200000   1.015252e-03  1.866303e-06
    146    144   2   0.50000     0.0600000   -0.4000000   2.066619e-04  7.875431e-08
    146    148   2   0.50000     0.0600000    0.0300000   6.128906e-05  1.496315e-08
    146    152   2   0.50000     0.0600000   -0.1200000   2.494471e-04  1.671101e-07
    147    144   2   0.50000     0.0600000   -0.4000000   2.066619e-04  7.875431e-08
    147    148   2   0.50000     0.0600000    0.0300000   6.128906e-05  1.496315e-08
    147    152   2   0.50000     0.0600000   -0.1200000   2.494471e-04  1.671101e-07
    142    145   2   0.50000    -0.1200000    0.1100000   1.015252e-03  1.866303e-06
    148    145   2   0.50000     0.0300000    0.1100000   2.494471e-04  1.671101e-07
    152    145   2   0.50000    -0.1200000    0.1100000   1.015252e-03  1.866303e-06
    142    153   2   0.50000    -0.1200000    0.1700000   1.015252e-03  1.866303e-06
    142    156   2   0.50000    -0.1200000    0.0600000   2.494471e-04  1.671101e-07
    142    157   2   0.50000    -0.1200000    0.0600000   2.494471e-04  1.671101e-07
    144    153   2   0.50000    -0.4000000    0.1700000   8.411158e-04  8.795366e-07
    144    156   2   0.50000    -0.4000000    0.0600000   2.066619e-04  7.875431e-08
    144    157   2   0.50000    -0.4000000    0.0600000   2.066619e-04  7.875431e-08
    148    153   2   0.50000     0.0300000    0.1700000   2.494471e-04  1.671101e-07
    148    156   2   0.50000     0.0300000    0.0600000   6.128906e-05  1.496315e-08
    148    157   2   0.50000     0.0300000    0.0600000   6.128906e-05  1.496315e-08
    143    149   2   0.50000     0.1700000    0.0300000   2.494471e-04  1.671101e-07
    143    150   2   0.50000     0.1700000    0.0300000   2.494471e-04  1.671101e-07
    143    151   2   0.50000     0.1700000    0.0300000   2.494471e-04  1.671101e-07
    143    154   2   0.50000     0.1700000   -0.4000000   8.411158e-04  8.795366e-07
    143    158   2   0.50000     0.1700000    0.0300000   2.494471e-04  1.671101e-07
    143    162   2   0.50000     0.1700000   -0.1200000   1.015252e-03  1.866303e-06
    156    154   2   0.50000     0.0600000   -0.4000000   2.066619e-04  7.875431e-08
    156    158   2   0.50000     0.0600000    0.0300000   6.128906e-05  1.496315e-08
    156    162   2   0.50000     0.0600000   -0.1200000   2.494471e-04  1.671101e-07
    157    154   2   0.50000     0.0600000   -0.4000000   2.066619e-04  7.875431e-08
    157    158   2   0.50000     0.0600000    0.0300000   6.128906e-05  1.496315e-08
    157    162   2   0.50000     0.0600000   -0.1200000   2.494471e-04  1.671101e-07
    152    155   2   0.50000    -0.1200000    0.1100000   1.015252e-03  1.866303e-06
    158    155   2   0.50000     0.0300000    0.1100000   2.494471e-04  1.671101e-07
    162    155   2   0.50000    -0.1200000    0.1100000   1.015252e-03  1.866303e-06
    152    163   2   0.50000    -0.1200000    0.1700000   1.015252e-03  1.866303e-06
    152    166   2   0.50000    -0.1200000    0.0600000   2.494471e-04  1.671101e-07
    152    167   2   0.50000    -0.1200000    0.0600000   2.494471e-04  1.671101e-07
    154    163   2   0.50000    -0.4000000    0.1700000   8.411158e-04  8.795366e-07
    154    166   2   0.50000    -0.4000000    0.0600000   2.066619e-04  7.875431e-08
    154    167   2   0.50000    -0.4000000    0.0600000   2.066619e-04  7.875431e-08
    158    163   2   0.50000     0.0300000    0.1700000   2.494471e-04  1.671101e-07
    158    166   2   0.50000     0.0300000    0.0600000   6.128906e-05  1.496315e-08
    158    167   2   0.50000     0.0300000    0.0600000   6.128906e-05  1.496315e-08
    153    159   2   0.50000     0.1700000    0.0300000   2.494471e-04  1.671101e-07
    153    160   2   0.50000     0.1700000    0.0300000   2.494471e-04  1.671101e-07
    153    161   2   0.50000     0.1700000    0.0300000   2.494471e-04  1.671101e-07
    153    164   2   0.50000     0.1700000   -0.4000000   8.411158e-04  8.795366e-07
    153    168   2   0.50000     0.1700000    0.0300000   2.494471e-04  1.671101e-07
    153    172   2   0.50000     0.1700000   -0.1200000   1.015252e-03  1.866303e-06
    166    164   2   0.50000     0.0600000   -0.4000000   2.066619e-04  7.875431e-08
    166    168   2   0.50000     0.0600000    0.0300000   6.128906e-05  1.496315e-08
    166    172   2   0.50000     0.0600000   -0.1200000   2.494471e-04  1.671101e-07
    167    164   2   0.50000     0.0600000   -0.4000000   2.066619e-04  7.875431e-08
    167    168   2   0.50000     0.0600000    0.0300000   6.128906e-05  1.496315e-08
    167    172   2   0.50000     0.0600000   -0.1200000   2.494471e-04  1.671101e-07
    162    165   2   0.50000    -0.1200000    0.1100000   1.015252e-03  1.866303e-06
    168    165   2   0.50000     0.0300000    0.1100000   2.494471e-04  1.671101e-07
    172    165   2   0.50000    -0.1200000    0.1100000   1.015252e-03  1.866303e-06
    162    173   2   0.50000    -0.1200000    0.1700000   1.015252e-03  1.866303e-06
    162    176   2   0.50000    -0.1200000    0.0600000   2.494471e-04  1.671101e-07
    162    177   2   0.50000    -0.1200000    0.0600000   2.494471e-04  1.671101e-07
    164    173   2   0.50000    -0.4000000    0.1700000   8.411158e-04  8.795366e-07
    164    176   2   0.50000    -0.4000000    0.0600000   2.066619e-04  7.875431e-08
    164    177   2   0.50000    -0.4000000    0.0600000   2.066619e-04  7.875431e-08
    168    173   2   0.50000     0.0300000    0.1700000   2.494471e-04  1.671101e-07
    168    176   2   0.50000     0.0300000    0.0600000   6.128906e-05  1.496315e-08
    168    177   2   0.50000     0.0300000    0.0600000   6.128906e-05  1.496315e-08
    163    169   2   0.50000     0.1700000    0.0300000   2.494471e-04  1.671101e-07
    163    170   2   0.50000     0.1700000    0.0300000   2.494471e-04  1.671101e-07
    163    171   2   0.50000     0.1700000    0.0300000   2.494471e-04  1.671101e-07
    163    174   2   0.50000     0.1700000   -0.4000000   8.411158e-04  8.795366e-07
    163    178   2   0.50000     0.1700000    0.0300000   2.494471e-04  1.671101e-07
    163    182   2   0.50000     0.1700000   -0.1200000   1.015252e-03  1.866303e-06
    176    174   2   0.50000     0.0600000   -0.4000000   2.066619e-04  7.875431e-08
    176    178   2   0.50000     0.0600000    0.0300000   6.128906e-05  1.496315e-08
    176    182   2   0.50000     0.0600000   -0.1200000   2.494471e-04  1.671101e-07
    177    174   2   0.50000     0.0600000   -0.4000000   2.066619e-04  7.875431e-08
    177    178   2   0.50000     0.0600000    0.0300000   6.128906e-05  1.496315e-08
    177    182   2   0.50000     0.0600000   -0.1200000   2.494471e-04  1.671101e-07
    172    175   2   0.50000    -0.1200000    0.1100000   1.015252e-03  1.866303e-06
    178    175   2   0.50000     0.0300000    0.1100000   2.494471e-04  1.671101e-07
    182    175   2   0.50000    -0.1200000    0.1100000   1.015252e-03  1.866303e-06
    172    183   2   0.50000    -0.1200000    0.1700000   1.015252e-03  1.866303e-06
    172    186   2   0.50000    -0.1200000    0.0600000   2.494471e-04  1.671101e-07
    172    187   2   0.50000    -0.1200000    0.0600000   2.494471e-04  1.671101e-07
    174    183   2   0.50000    -0.4000000    0.1700000   8.411158e-04  8.795366e-07
    174    186   2   0.50000    -0.4000000    0.0600000   2.066619e-04  7.875431e-08
    174    187   2   0.50000    -0.4000000    0.0600000   2.066619e-04  7.875431e-08
    178    183   2   0.50000     0.0300000    0.1700000   2.494471e-04  1.671101e-07
    178    186   2   0.50000     0.0300000    0.0600000   6.128906e-05  1.496315e-08
    178    187   2   0.50000     0.0300000    0.0600000   6.128906e-05  1.496315e-08
    173    179   2   0.50000     0.1700000    0.0300000   2.494471e-04  1.671101e-07
    173    180   2   0.50000     0.1700000    0.0300000   2.494471e-04  1.671101e-07
    173    181   2   0.50000     0.1700000    0.0300000   2.494471e-04  1.671101e-07
    173    184   2   0.50000     0.1700000   -0.4000000   8.411158e-04  8.795366e-07
    173    188   2   0.50000     0.1700000    0.0300000   2.494471e-04  1.671101e-07
    173    192   2   0.50000     0.1700000   -0.1200000   1.015252e-03  1.866303e-06
    186    184   2   0.50000     0.0600000   -0.4000000   2.066619e-04  7.875431e-08
    186    188   2   0.50000     0.0600000    0.0300000   6.128906e-05  1.496315e-08
    186    192   2   0.50000     0.0600000   -0.1200000   2.494471e-04  1.671101e-07
    187    184   2   0.50000     0.0600000   -0.4000000   2.066619e-04  7.875431e-08
    187    188   2   0.50000     0.0600000    0.0300000   6.128906e-05  1.496315e-08
    187    192   2   0.50000     0.0600000   -0.1200000   2.494471e-04  1.671101e-07
    182    185   2   0.50000    -0.1200000    0.1100000   1.015252e-03  1.866303e-06
    188    185   2   0.50000     0.0300000    0.1100000   2.494471e-04  1.671101e-07
    192    185   2   0.50000    -0.1200000    0.1100000   1.015252e-03  1.866303e-06
    182    193   2   0.50000    -0.1200000    0.1400000   1.015252e-03  1.866303e-06
    182    196   2   0.50000    -0.1200000    0.0600000   2.494471e-04  1.671101e-07
    182    197   2   0.50000    -0.1200000    0.0600000   2.494471e-04  1.671101e-07
    184    193   2   0.50000    -0.4000000    0.1400000   8.411158e-04  8.795366e-07
    184    196   2   0.50000    -0.4000000    0.0600000   2.066619e-04  7.875431e-08
    184    197   2   0.50000    -0.4000000    0.0600000   2.066619e-04  7.875431e-08
    188    193   2   0.50000     0.0300000    0.1400000   2.494471e-04  1.671101e-07
    188    196   2   0.50000     0.0300000    0.0600000   6.128906e-05  1.496315e-08
    188    197   2   0.50000     0.0300000    0.0600000   6.128906e-05  1.496315e-08
    183    189   2   0.50000     0.1700000    0.0300000   2.494471e-04  1.671101e-07
    183    190   2   0.50000     0.1700000    0.0300000   2.494471e-04  1.671101e-07
    183    191   2   0.50000     0.1700000    0.0300000   2.494471e-04  1.671101e-07
    183    194   2   0.50000     0.1700000   -0.4000000   8.411158e-04  8.795366e-07
    183    198   2   0.50000     0.1700000    0.0300000   2.494471e-04  1.671101e-07
    183    202   2   0.50000     0.1700000    0.0300000   2.494471e-04  1.671101e-07
    196    194   2   0.50000     0.0600000   -0.4000000   2.066619e-04  7.875431e-08
    196    198   2   0.50000     0.0600000    0.0300000   6.128906e-05  1.496315e-08
    196    202   2   0.50000     0.0600000    0.0300000   6.128906e-05  1.496315e-08
    197    194   2   0.50000     0.0600000   -0.4000000   2.066619e-04  7.875431e-08
    197    198   2   0.50000     0.0600000    0.0300000   6.128906e-05  1.496315e-08
    197    202   2   0.50000     0.0600000    0.0300000   6.128906e-05  1.496315e-08
    192    195   2   0.50000    -0.1200000    0.1100000   1.015252e-03  1.866303e-06
    198    195   2   0.50000     0.0300000    0.1100000   2.494471e-04  1.671101e-07
    202    195   2   0.50000     0.0300000    0.1100000   2.494471e-04  1.671101e-07
    193    199   2   0.50000     0.1400000    0.0300000   2.494471e-04  1.671101e-07
    193    200   2   0.50000     0.1400000    0.0300000   2.494471e-04  1.671101e-07
    193    201   2   0.50000     0.1400000    0.0300000   2.494471e-04  1.671101e-07

[ angles ]
; ai  aj  ak
      2      1      5   1    110.7000    313.8000
      2      1      6   1    110.7000    313.8000
      2      1     11   1    110.7000    313.8000
      5      1      6   1    107.8000    276.1440
      5      1     11   1    107.8000    276.1440
      6      1     11   1    107.8000    276.1440
      1      2      3   1    109.5000    418.4000
      1      2      7   1    110.7000    313.8000
      1      2     12   1    112.7000    488.2728
      3      2      7   1    109.5000    292.8800
      3      2     12   1    109.5000    418.4000
      7      2     12   1    110.7000    313.8000
      2      3      4   1    109.5000    502.0800
      3      4      8   1    109.5000    292.8800
      3      4      9   1    109.5000    292.8800
      3      4     10   1    109.5000    292.8800
      8      4      9   1    107.8000    276.1440
      8      4     10   1    107.8000    276.1440
      9      4     10   1    107.8000    276.1440
      2     12     13   1    112.7000    488.2728
      2     12     16   1    110.7000    313.8000
      2     12     17   1    110.7000    313.8000
     13     12     16   1    110.7000    313.8000
     13     12     17   1    110.7000    313.8000
     16     12     17   1    107.8000    276.1440
     12     13     14   1    109.5000    418.4000
     12     13     18   1    110.7000    313.8000
     12     13     22   1    112.7000    488.2728
     14     13     18   1    109.5000    292.8800
     14     13     22   1    109.5000    418.4000
     18     13     22   1    110.7000    313.8000
     13     14     15   1    109.5000    502.0800
     14     15     19   1    109.5000    292.8800
     14     15     20   1    109.5000    292.8800
     14     15     21   1    109.5000    292.8800
     19     15     20   1    107.8000    276.1440
     19     15     21   1    107.8000    276.1440
     20     15     21   1    107.8000    276.1440
     13     22     23   1    112.7000    488.2728
     13     22     26   1    110.7000    313.8000
     13     22     27   1    110.7000    313.8000
     23     22     26   1    110.7000    313.8000
     23     22     27   1    110.7000    313.8000
     26     22     27   1    107.8000    276.1440
     22     23     24   1    109.5000    418.4000
     22     23     28   1    110.7000    313.8000
     22     23     32   1    112.7000    488.2728
     24     23     28   1    109.5000    292.8800
     24     23     32   1    109.5000    418.4000
     28     23     32   1    110.7000    313.8000
     23     24     25   1    109.5000    502.0800
     24     25     29   1    109.5000    292.8800
     24     25     30   1    109.5000    292.8800
     24     25     31   1    109.5000    292.8800
     29     25     30   1    107.8000    276.1440
     29     25     31   1    107.8000    276.1440
     30     25     31   1    107.8000    276.1440
     23     32     33   1    112.7000    488.2728
     23     32     36   1    110.7000    313.8000
     23     32     37   1    110.7000    313.8000
     33     32     36   1    110.7000    313.8000
     33     32     37   1    110.7000    313.8000
     36     32     37   1    107.8000    276.1440
     32     33     34   1    109.5000    418.4000
     32     33     38   1    110.7000    313.8000
     32     33     42   1    112.7000    488.2728
     34     33     38   1    109.5000    292.8800
     34     33     42   1    109.5000    418.4000
     38     33     42   1    110.7000    313.8000
     33     34     35   1    109.5000    502.0800
     34     35     39   1    109.5000    292.8800
     34     35     40   1    109.5000    292.8800
     34     35     41   1    109.5000    292.8800
     39     35     40   1    107.8000    276.1440
     39     35     41   1    107.8000    276.1440
     40     35     41   1    107.8000    276.1440
     33     42     43   1    112.7000    488.2728
     33     42     46   1    110.7000    313.8000
     33     42     47   1    110.7000    313.8000
     43     42     46   1    110.7000    313.8000
     43     42     47   1    110.7000    313.8000
     46     42     47   1    107.8000    276.1440
     42     43     44   1    109.5000    418.4000
     42     43     48   1    110.7000    313.8000
     42     43     52   1    112.7000    488.2728
     44     43     48   1    109.5000    292.8800
     44     43     52   1    109.5000    418.4000
     48     43     52   1    110.7000    313.8000
     43     44     45   1    109.5000    502.0800
     44     45     49   1    109.5000    292.8800
     44     45     50   1    109.5000    292.8800
     44     45     51   1    109.5000    292.8800
     49     45     50   1    107.8000    276.1440
     49     45     51   1    107.8000    276.1440
     50     45     51   1    107.8000    276.1440
     43     52     53   1    112.7000    488.2728
     43     52     56   1    110.7000    313.8000
     43     52     57   1    110.7000    313.8000
     53     52     56   1    110.7000    313.8000
     53     52     57   1    110.7000    313.8000
     56     52     57   1    107.8000    276.1440
     52     53     54   1    109.5000    418.4000
     52     53     58   1    110.7000    313.8000
     52     53     62   1    112.7000    488.2728
     54     53     58   1    109.5000    292.8800
     54     53     62   1    109.5000    418.4000
     58     53     62   1    110.7000    313.8000
     53     54     55   1    109.5000    502.0800
     54     55     59   1    109.5000    292.8800
     54     55     60   1    109.5000    292.8800
     54     55     61   1    109.5000    292.8800
     59     55     60   1    107.8000    276.1440
     59     55     61   1    107.8000    276.1440
     60     55     61   1    107.8000    276.1440
     53     62     63   1    112.7000    488.2728
     53     62     66   1    110.7000    313.8000
     53     62     67   1    110.7000    313.8000
     63     62     66   1    110.7000    313.8000
     63     62     67   1    110.7000    313.8000
     66     62     67   1    107.8000    276.1440
     62     63     64   1    109.5000    418.4000
     62     63     68   1    110.7000    313.8000
     62     63     72   1    112.7000    488.2728
     64     63     68   1    109.5000    292.8800
     64     63     72   1    109.5000    418.4000
     68     63     72   1    110.7000    313.8000
     63     64     65   1    109.5000    502.0800
     64     65     69   1    109.5000    292.8800
     64     65     70   1    109.5000    292.8800
     64     65     71   1    109.5000    292.8800
     69     65     70   1    107.8000    276.1440
     69     65     71   1    107.8000    276.1440
     70     65     71   1    107.8000    276.1440
     63     72     73   1    112.7000    488.2728
     63     72     76   1    110.7000    313.8000
     63     72     77   1    110.7000    313.8000
     73     72     76   1    110.7000    313.8000
     73     72     77   1    110.7000    313.8000
     76     72     77   1    107.8000    276.1440
     72     73     74   1    109.5000    418.4000
     72     73     78   1    110.7000    313.8000
     72     73     82   1    112.7000    488.2728
     74     73     78   1    109.5000    292.8800
     74     73     82   1    109.5000    418.4000
     78     73     82   1    110.7000    313.8000
     73     74     75   1    109.5000    502.0800
     74     75     79   1    109.5000    292.8800
     74     75     80   1    109.5000    292.8800
     74     75     81   1    109.5000    292.8800
     79     75     80   1    107.8000    276.1440
     79     75     81   1    107.8000    276.1440
     80     75     81   1    107.8000    276.1440
     73     82     83   1    112.7000    488.2728
     73     82     86   1    110.7000    313.8000
     73     82     87   1    110.7000    313.8000
     83     82     86   1    110.7000    313.8000
     83     82     87   1    110.7000    313.8000
     86     82     87   1    107.8000    276.1440
     82     83     84   1    109.5000    418.4000
     82     83     88   1    110.7000    313.8000
     82     83     92   1    112.7000    488.2728
     84     83     88   1    109.5000    292.8800
     84     83     92   1    109.5000    418.4000
     88     83     92   1    110.7000    313.8000
     83     84     85   1    109.5000    502.0800
     84     85     89   1    109.5000    292.8800
     84     85     90   1    109.5000    292.8800
     84     85     91   1    109.5000    292.8800
     89     85     90   1    107.8000    276.1440
     89     85     91   1    107.8000    276.1440
     90     85     91   1    107.8000    276.1440
     83     92     93   1    112.7000    488.2728
     83     92     96   1    110.7000    313.8000
     83     92     97   1    110.7000    313.8000
     93     92     96   1    110.7000    313.8000
     93     92     97   1    110.7000    313.8000
     96     92     97   1    107.8000    276.1440
     92     93     94   1    109.5000    418.4000
     92     93     98   1    110.7000    313.8000
     92     93    102   1    112.7000    488.2728
     94     93     98   1    109.5000    292.8800
     94     93    102   1    109.5000    418.4000
     98     93    102   1    110.7000    313.8000
     93     94     95   1    109.5000    502.0800
     94     95     99   1    109.5000    292.8800
     94     95    100   1    109.5000    292.8800
     94     95    101   1    109.5000    292.8800
     99     95    100   1    107.8000    276.1440
     99     95    101   1    107.8000    276.1440
    100     95    101   1    107.8000    276.1440
     93    102    103   1    112.7000    488.2728
     93    102    106   1    110.7000    313.8000
     93    102    107   1    110.7000    313.8000
    103    102    106   1    110.7000    313.8000
    103    102    107   1    110.7000    313.8000
    106    102    107   1    107.8000    276.1440
    102    103    104   1    109.5000    418.4000
    102    103    108   1    110.7000    313.8000
    102    103    112   1    112.7000    488.2728
    104    103    108   1    109.5000    292.8800
    104    103    112   1    109.5000    418.4000
    108    103    112   1    110.7000    313.8000
    103    104    105   1    109.5000    502.0800
    104    105    109   1    109.5000    292.8800
    104    105    110   1    109.5000    292.8800
    104    105    111   1    109.5000    292.8800
    109    105    110   1    107.8000    276.1440
    109    105    111   1    107.8000    276.1440
    110    105    111   1    107.8000    276.1440
    103    112    113   1    112.7000    488.2728
    103    112    116   1    110.7000    313.8000
    103    112    117   1    110.7000    313.8000
    113    112    116   1    110.7000    313.8000
    113    112    117   1    110.7000    313.8000
    116    112    117   1    107.8000    276.1440
    112    113    114   1    109.5000    418.4000
    112    113    118   1    110.7000    313.8000
    112    113    122   1    112.7000    488.2728
    114    113    118   1    109.5000    292.8800
    114    113    122   1    109.5000    418.4000
    118    113    122   1    110.7000    313.8000
    113    114    115   1    109.5000    502.0800
    114    115    119   1    109.5000    292.8800
    114    115    120   1    109.5000    292.8800
    114    115    121   1    109.5000    292.8800
    119    115    120   1    107.8000    276.1440
    119    115    121   1    107.8000    276.1440
    120    115    121   1    107.8000    276.1440
    113    122    123   1    112.7000    488.2728
    113    122    126   1    110.7000    313.8000
    113    122    127   1    110.7000    313.8000
    123    122    126   1    110.7000    313.8000
    123    122    127   1    110.7000    313.8000
    126    122    127   1    107.8000    276.1440
    122    123    124   1    109.5000    418.4000
    122    123    128   1    110.7000    313.8000
    122    123    132   1    112.7000    488.2728
    124    123    128   1    109.5000    292.8800
    124    123    132   1    109.5000    418.4000
    128    123    132   1    110.7000    313.8000
    123    124    125   1    109.5000    502.0800
    124    125    129   1    109.5000    292.8800
    124    125    130   1    109.5000    292.8800
    124    125    131   1    109.5000    292.8800
    129    125    130   1    107.8000    276.1440
    129    125    131   1    107.8000    276.1440
    130    125    131   1    107.8000    276.1440
    123    132    133   1    112.7000    488.2728
    123    132    136   1    110.7000    313.8000
    123    132    137   1    110.7000    313.8000
    133    132    136   1    110.7000    313.8000
    133    132    137   1    110.7000    313.8000
    136    132    137   1    107.8000    276.1440
    132    133    134   1    109.5000    418.4000
    132    133    138   1    110.7000    313.8000
    132    133    142   1    112.7000    488.2728
    134    133    138   1    109.5000    292.8800
    134    133    142   1    109.5000    418.4000
    138    133    142   1    110.7000    313.8000
    133    134    135   1    109.5000    502.0800
    134    135    139   1    109.5000    292.8800
    134    135    140   1    109.5000    292.8800
    134    135    141   1    109.5000    292.8800
    139    135    140   1    107.8000    276.1440
    139    135    141   1    107.8000    276.1440
    140    135    141   1    107.8000    276.1440
    133    142    143   1    112.7000    488.2728
    133    142    146   1    110.7000    313.8000
    133    142    147   1    110.7000    313.8000
    143    142    146   1    110.7000    313.8000
    143    142    147   1    110.7000    313.8000
    146    142    147   1    107.8000    276.1440
    142    143    144   1    109.5000    418.4000
    142    143    148   1    110.7000    313.8000
    142    143    152   1    112.7000    488.2728
    144    143    148   1    109.5000    292.8800
    144    143    152   1    109.5000    418.4000
    148    143    152   1    110.7000    313.8000
    143    144    145   1    109.5000    502.0800
    144    145    149   1    109.5000    292.8800
    144    145    150   1    109.5000    292.8800
    144    145    151   1    109.5000    292.8800
    149    145    150   1    107.8000    276.1440
    149    145    151   1    107.8000    276.1440
    150    145    151   1    107.8000    276.1440
    143    152    153   1    112.7000    488.2728
    143    152    156   1    110.7000    313.8000
    143    152    157   1    110.7000    313.8000
    153    152    156   1    110.7000    313.8000
    153    152    157   1    110.7000    313.8000
    156    152    157   1    107.8000    276.1440
    152    153    154   1    109.5000    418.4000
    152    153    158   1    110.7000    313.8000
    152    153    162   1    112.7000    488.2728
    154    153    158   1    109.5000    292.8800
    154    153    162   1    109.5000    418.4000
    158    153    162   1    110.7000    313.8000
    153    154    155   1    109.5000    502.0800
    154    155    159   1    109.5000    292.8800
    154    155    160   1    109.5000    292.8800
    154    155    161   1    109.5000    292.8800
    159    155    160   1    107.8000    276.1440
    159    155    161   1    107.8000    276.1440
    160    155    161   1    107.8000    276.1440
    153    162    163   1    112.7000    488.2728
    153    162    166   1    110.7000    313.8000
    153    162    167   1    110.7000    313.8000
    163    162    166   1    110.7000    313.8000
    163    162    167   1    110.7000    313.8000
    166    162    167   1    107.8000    276.1440
    162    163    164   1    109.5000    418.4000
    162    163    168   1    110.7000    313.8000
    162    163    172   1    112.7000    488.2728
    164    163    168   1    109.5000    292.8800
    164    163    172   1    109.5000    418.4000
    168    163    172   1    110.7000    313.8000
    163    164    165   1    109.5000    502.0800
    164    165    169   1    109.5000    292.8800
    164    165    170   1    109.5000    292.8800
    164    165    171   1    109.5000    292.8800
    169    165    170   1    107.8000    276.1440
    169    165    171   1    107.8000    276.1440
    170    165    171   1    107.8000    276.1440
    163    172    173   1    112.7000    488.2728
    163    172    176   1    110.7000    313.8000
    163    172    177   1    110.7000    313.8000
    173    172    176   1    110.7000    313.8000
    173    172    177   1    110.7000    313.8000
    176    172    177   1    107.8000    276.1440
    172    173    174   1    109.5000    418.4000
    172    173    178   1    110.7000    313.8000
    172    173    182   1    112.7000    488.2728
    174    173    178   1    109.5000    292.8800
    174    173    182   1    109.5000    418.4000
    178    173    182   1    110.7000    313.8000
    173    174    175   1    109.5000    502.0800
    174    175    179   1    109.5000    292.8800
    174    175    180   1    109.5000    292.8800
    174    175    181   1    109.5000    292.8800
    179    175    180   1    107.8000    276.1440
    179    175    181   1    107.8000    276.1440
    180    175    181   1    107.8000    276.1440
    173    182    183   1    112.7000    488.2728
    173    182    186   1    110.7000    313.8000
    173    182    187   1    110.7000    313.8000
    183    182    186   1    110.7000    313.8000
    183    182    187   1    110.7000    313.8000
    186    182    187   1    107.8000    276.1440
    182    183    184   1    109.5000    418.4000
    182    183    188   1    110.7000    313.8000
    182    183    192   1    112.7000    488.2728
    184    183    188   1    109.5000    292.8800
    184    183    192   1    109.5000    418.4000
    188    183    192   1    110.7000    313.8000
    183    184    185   1    109.5000    502.0800
    184    185    189   1    109.5000    292.8800
    184    185    190   1    109.5000    292.8800
    184    185    191   1    109.5000    292.8800
    189    185    190   1    107.8000    276.1440
    189    185    191   1    107.8000    276.1440
    190    185    191   1    107.8000    276.1440
    183    192    193   1    112.7000    488.2728
    183    192    196   1    110.7000    313.8000
    183    192    197   1    110.7000    313.8000
    193    192    196   1    110.7000    313.8000
    193    192    197   1    110.7000    313.8000
    196    192    197   1    107.8000    276.1440
    192    193    194   1    109.5000    418.4000
    192    193    198   1    110.7000    313.8000
    192    193    202   1    110.7000    313.8000
    194    193    198   1    109.5000    292.8800
    194    193    202   1    109.5000    292.8800
    198    193    202   1    107.8000    276.1440
    193    194    195   1    109.5000    502.0800
    194    195    199   1    109.5000    292.8800
    194    195    200   1    109.5000    292.8800
    194    195    201   1    109.5000    292.8800
    199    195    200   1    107.8000    276.1440
    199    195    201   1    107.8000    276.1440
    200    195    201   1    107.8000    276.1440

[ dihedrals ]
; Proper dihedrals
      5      1      2      3   5     0.00000     0.00000     1.95811  0.0
      5      1      2      7   5     0.00000     0.00000     1.25520  0.0
      5      1      2     12   5     0.00000     0.00000     1.25520  0.0
      6      1      2      3   5     0.00000     0.00000     1.95811  0.0
      6      1      2      7   5     0.00000     0.00000     1.25520  0.0
      6      1      2     12   5     0.00000     0.00000     1.25520  0.0
     11      1      2      3   5     0.00000     0.00000     1.95811  0.0
     11      1      2      7   5     0.00000     0.00000     1.25520  0.0
     11      1      2     12   5     0.00000     0.00000     1.25520  0.0
      1      2      3      4   5     0.52300    -0.09205     2.34722  0.0
      7      2      3      4   5     0.00000     0.00000     3.10034  0.0
     12      2      3      4   5     0.52300    -0.09205     2.34722  0.0
      1      2     12     13   5     4.74884    -0.63178     1.67360  0.0
      1      2     12     16   5     0.00000     0.00000     1.25520  0.0
      1      2     12     17   5     0.00000     0.00000     1.25520  0.0
      3      2     12     13   5     5.25092    -2.58990     2.28446  0.0
      3      2     12     16   5     0.00000     0.00000     1.95811  0.0
      3      2     12     17   5     0.00000     0.00000     1.95811  0.0
      7      2     12     13   5     0.00000     0.00000     1.25520  0.0
      7      2     12     16   5     0.00000     0.00000     1.25520  0.0
      7      2     12     17   5     0.00000     0.00000     1.25520  0.0
      2      3      4      8   5     0.00000     0.00000     3.10034  0.0
      2      3      4      9   5     0.00000     0.00000     3.10034  0.0
      2      3      4     10   5     0.00000     0.00000     3.10034  0.0
      2     12     13     14   5     5.25092    -2.58990     2.28446  0.0
      2     12     13     18   5     0.00000     0.00000     1.25520  0.0
      2     12     13     22   5     4.74884    -0.63178     1.67360  0.0
     16     12     13     14   5     0.00000     0.00000     1.95811  0.0
     16     12     13     18   5     0.00000     0.00000     1.25520  0.0
     16     12     13     22   5     0.00000     0.00000     1.25520  0.0
     17     12     13     14   5     0.00000     0.00000     1.95811  0.0
     17     12     13     18   5     0.00000     0.00000     1.25520  0.0
     17     12     13     22   5     0.00000     0.00000     1.25520  0.0
     12     13     14     15   5     0.52300    -0.09205     2.34722  0.0
     18     13     14     15   5     0.00000     0.00000     3.10034  0.0
     22     13     14     15   5     0.52300    -0.09205     2.34722  0.0
     12     13     22     23   5     4.74884    -0.63178     1.67360  0.0
     12     13     22     26   5     0.00000     0.00000     1.25520  0.0
     12     13     22     27   5     0.00000     0.00000     1.25520  0.0
     14     13     22     23   5     5.25092    -2.58990     2.28446  0.0
     14     13     22     26   5     0.00000     0.00000     1.95811  0.0
     14     13     22     27   5     0.00000     0.00000     1.95811  0.0
     18     13     22     23   5     0.00000     0.00000     1.25520  0.0
     18     13     22     26   5     0.00000     0.00000     1.25520  0.0
     18     13     22     27   5     0.00000     0.00000     1.25520  0.0
     13     14     15     19   5     0.00000     0.00000     3.10034  0.0
     13     14     15     20   5     0.00000     0.00000     3.10034  0.0
     13     14     15     21   5     0.00000     0.00000     3.10034  0.0
     13     22     23     24   5     5.25092    -2.58990     2.28446  0.0
     13     22     23     28   5     0.00000     0.00000     1.25520  0.0
     13     22     23     32   5     4.74884    -0.63178     1.67360  0.0
     26     22     23     24   5     0.00000     0.00000     1.95811  0.0
     26     22     23     28   5     0.00000     0.00000     1.25520  0.0
     26     22     23     32   5     0.00000     0.00000     1.25520  0.0
     27     22     23     24   5     0.00000     0.00000     1.95811  0.0
     27     22     23     28   5     0.00000     0.00000     1.25520  0.0
     27     22     23     32   5     0.00000     0.00000     1.25520  0.0
     22     23     24     25   5     0.52300    -0.09205     2.34722  0.0
     28     23     24     25   5     0.00000     0.00000     3.10034  0.0
     32     23     24     25   5     0.52300    -0.09205     2.34722  0.0
     22     23     32     33   5     4.74884    -0.63178     1.67360  0.0
     22     23     32     36   5     0.00000     0.00000     1.25520  0.0
     22     23     32     37   5     0.00000     0.00000     1.25520  0.0
     24     23     32     33   5     5.25092    -2.58990     2.28446  0.0
     24     23     32     36   5     0.00000     0.00000     1.95811  0.0
     24     23     32     37   5     0.00000     0.00000     1.95811  0.0
     28     23     32     33   5     0.00000     0.00000     1.25520  0.0
     28     23     32     36   5     0.00000     0.00000     1.25520  0.0
     28     23     32     37   5     0.00000     0.00000     1.25520  0.0
     23     24     25     29   5     0.00000     0.00000     3.10034  0.0
     23     24     25     30   5     0.00000     0.00000     3.10034  0.0
     23     24     25     31   5     0.00000     0.00000     3.10034  0.0
     23     32     33     34   5     5.25092    -2.58990     2.28446  0.0
     23     32     33     38   5     0.00000     0.00000     1.25520  0.0
     23     32     33     42   5     4.74884    -0.63178     1.67360  0.0
     36     32     33     34   5     0.00000     0.00000     1.95811  0.0
     36     32     33     38   5     0.00000     0.00000     1.25520  0.0
     36     32     33     42   5     0.00000     0.00000     1.25520  0.0
     37     32     33     34   5     0.00000     0.00000     1.95811  0.0
     37     32     33     38   5     0.00000     0.00000     1.25520  0.0
     37     32     33     42   5     0.00000     0.00000     1.25520  0.0
     32     33     34     35   5     0.52300    -0.09205     2.34722  0.0
     38     33     34     35   5     0.00000     0.00000     3.10034  0.0
     42     33     34     35   5     0.52300    -0.09205     2.34722  0.0
     32     33     42     43   5     4.74884    -0.63178     1.67360  0.0
     32     33     42     46   5     0.00000     0.00000     1.25520  0.0
     32     33     42     47   5     0.00000     0.00000     1.25520  0.0
     34     33     42     43   5     5.25092    -2.58990     2.28446  0.0
     34     33     42     46   5     0.00000     0.00000     1.95811  0.0
     34     33     42     47   5     0.00000     0.00000     1.95811  0.0
     38     33     42     43   5     0.00000     0.00000     1.25520  0.0
     38     33     42     46   5     0.00000     0.00000     1.25520  0.0
     38     33     42     47   5     0.00000     0.00000     1.25520  0.0
     33     34     35     39   5     0.00000     0.00000     3.10034  0.0
     33     34     35     40   5     0.00000     0.00000     3.10034  0.0
     33     34     35     41   5     0.00000     0.00000     3.10034  0.0
     33     42     43     44   5     5.25092    -2.58990     2.28446  0.0
     33     42     43     48   5     0.00000     0.00000     1.25520  0.0
     33     42     43     52   5     4.74884    -0.63178     1.67360  0.0
     46     42     43     44   5     0.00000     0.00000     1.95811  0.0
     46     42     43     48   5     0.00000     0.00000     1.25520  0.0
     46     42     43     52   5     0.00000     0.00000     1.25520  0.0
     47     42     43     44   5     0.00000     0.00000     1.95811  0.0
     47     42     43     48   5     0.00000     0.00000     1.25520  0.0
     47     42     43     52   5     0.00000     0.00000     1.25520  0.0
     42     43     44     45   5     0.52300    -0.09205     2.34722  0.0
     48     43     44     45   5     0.00000     0.00000     3.10034  0.0
     52     43     44     45   5     0.52300    -0.09205     2.34722  0.0
     42     43     52     53   5     4.74884    -0.63178     1.67360  0.0
     42     43     52     56   5     0.00000     0.00000     1.25520  0.0
     42     43     52     57   5     0.00000     0.00000     1.25520  0.0
     44     43     52     53   5     5.25092    -2.58990     2.28446  0.0
     44     43     52     56   5     0.00000     0.00000     1.95811  0.0
     44     43     52     57   5     0.00000     0.00000     1.95811  0.0
     48     43     52     53   5     0.00000     0.00000     1.25520  0.0
     48     43     52     56   5     0.00000     0.00000     1.25520  0.0
     48     43     52     57   5     0.00000     0.00000     1.25520  0.0
     43     44     45     49   5     0.00000     0.00000     3.10034  0.0
     43     44     45     50   5     0.00000     0.00000     3.10034  0.0
     43     44     45     51   5     0.00000     0.00000     3.10034  0.0
     43     52     53     54   5     5.25092    -2.58990     2.28446  0.0
     43     52     53     58   5     0.00000     0.00000     1.25520  0.0
     43     52     53     62   5     4.74884    -0.63178     1.67360  0.0
     56     52     53     54   5     0.00000     0.00000     1.95811  0.0
     56     52     53     58   5     0.00000     0.00000     1.25520  0.0
     56     52     53     62   5     0.00000     0.00000     1.25520  0.0
     57     52     53     54   5     0.00000     0.00000     1.95811  0.0
     57     52     53     58   5     0.00000     0.00000     1.25520  0.0
     57     52     53     62   5     0.00000     0.00000     1.25520  0.0
     52     53     54     55   5     0.52300    -0.09205     2.34722  0.0
     58     53     54     55   5     0.00000     0.00000     3.10034  0.0
     62     53     54     55   5     0.52300    -0.09205     2.34722  0.0
     52     53     62     63   5     4.74884    -0.63178     1.67360  0.0
     52     53     62     66   5     0.00000     0.00000     1.25520  0.0
     52     53     62     67   5     0.00000     0.00000     1.25520  0.0
     54     53     62     63   5     5.25092    -2.58990     2.28446  0.0
     54     53     62     66   5     0.00000     0.00000     1.95811  0.0
     54     53     62     67   5     0.00000     0.00000     1.95811  0.0
     58     53     62     63   5     0.00000     0.00000     1.25520  0.0
     58     53     62     66   5     0.00000     0.00000     1.25520  0.0
     58     53     62     67   5     0.00000     0.00000     1.25520  0.0
     53     54     55     59   5     0.00000     0.00000     3.10034  0.0
     53     54     55     60   5     0.00000     0.00000     3.10034  0.0
     53     54     55     61   5     0.00000     0.00000     3.10034  0.0
     53     62     63     64   5     5.25092    -2.58990     2.28446  0.0
     53     62     63     68   5     0.00000     0.00000     1.25520  0.0
     53     62     63     72   5     4.74884    -0.63178     1.67360  0.0
     66     62     63     64   5     0.00000     0.00000     1.95811  0.0
     66     62     63     68   5     0.00000     0.00000     1.25520  0.0
     66     62     63     72   5     0.00000     0.00000     1.25520  0.0
     67     62     63     64   5     0.00000     0.00000     1.95811  0.0
     67     62     63     68   5     0.00000     0.00000     1.25520  0.0
     67     62     63     72   5     0.00000     0.00000     1.25520  0.0
     62     63     64     65   5     0.52300    -0.09205     2.34722  0.0
     68     63     64     65   5     0.00000     0.00000     3.10034  0.0
     72     63     64     65   5     0.52300    -0.09205     2.34722  0.0
     62     63     72     73   5     4.74884    -0.63178     1.67360  0.0
     62     63     72     76   5     0.00000     0.00000     1.25520  0.0
     62     63     72     77   5     0.00000     0.00000     1.25520  0.0
     64     63     72     73   5     5.25092    -2.58990     2.28446  0.0
     64     63     72     76   5     0.00000     0.00000     1.95811  0.0
     64     63     72     77   5     0.00000     0.00000     1.95811  0.0
     68     63     72     73   5     0.00000     0.00000     1.25520  0.0
     68     63     72     76   5     0.00000     0.00000     1.25520  0.0
     68     63     72     77   5     0.00000     0.00000     1.25520  0.0
     63     64     65     69   5     0.00000     0.00000     3.10034  0.0
     63     64     65     70   5     0.00000     0.00000     3.10034  0.0
     63     64     65     71   5     0.00000     0.00000     3.10034  0.0
     63     72     73     74   5     5.25092    -2.58990     2.28446  0.0
     63     72     73     78   5     0.00000     0.00000     1.25520  0.0
     63     72     73     82   5     4.74884    -0.63178     1.67360  0.0
     76     72     73     74   5     0.00000     0.00000     1.95811  0.0
     76     72     73     78   5     0.00000     0.00000     1.25520  0.0
     76     72     73     82   5     0.00000     0.00000     1.25520  0.0
     77     72     73     74   5     0.00000     0.00000     1.95811  0.0
     77     72     73     78   5     0.00000     0.00000     1.25520  0.0
     77     72     73     82   5     0.00000     0.00000     1.25520  0.0
     72     73     74     75   5     0.52300    -0.09205     2.34722  0.0
     78     73     74     75   5     0.00000     0.00000     3.10034  0.0
     82     73     74     75   5     0.52300    -0.09205     2.34722  0.0
     72     73     82     83   5     4.74884    -0.63178     1.67360  0.0
     72     73     82     86   5     0.00000     0.00000     1.25520  0.0
     72     73     82     87   5     0.00000     0.00000     1.25520  0.0
     74     73     82     83   5     5.25092    -2.58990     2.28446  0.0
     74     73     82     86   5     0.00000     0.00000     1.95811  0.0
     74     73     82     87   5     0.00000     0.00000     1.95811  0.0
     78     73     82     83   5     0.00000     0.00000     1.25520  0.0
     78     73     82     86   5     0.00000     0.00000     1.25520  0.0
     78     73     82     87   5     0.00000     0.00000     1.25520  0.0
     73     74     75     79   5     0.00000     0.00000     3.10034  0.0
     73     74     75     80   5     0.00000     0.00000     3.10034  0.0
     73     74     75     81   5     0.00000     0.00000     3.10034  0.0
     73     82     83     84   5     5.25092    -2.58990     2.28446  0.0
     73     82     83     88   5     0.00000     0.00000     1.25520  0.0
     73     82     83     92   5     4.74884    -0.63178     1.67360  0.0
     86     82     83     84   5     0.00000     0.00000     1.95811  0.0
     86     82     83     88   5     0.00000     0.00000     1.25520  0.0
     86     82     83     92   5     0.00000     0.00000     1.25520  0.0
     87     82     83     84   5     0.00000     0.00000     1.95811  0.0
     87     82     83     88   5     0.00000     0.00000     1.25520  0.0
     87     82     83     92   5     0.00000     0.00000     1.25520  0.0
     82     83     84     85   5     0.52300    -0.09205     2.34722  0.0
     88     83     84     85   5     0.00000     0.00000     3.10034  0.0
     92     83     84     85   5     0.52300    -0.09205     2.34722  0.0
     82     83     92     93   5     4.74884    -0.63178     1.67360  0.0
     82     83     92     96   5     0.00000     0.00000     1.25520  0.0
     82     83     92     97   5     0.00000     0.00000     1.25520  0.0
     84     83     92     93   5     5.25092    -2.58990     2.28446  0.0
     84     83     92     96   5     0.00000     0.00000     1.95811  0.0
     84     83     92     97   5     0.00000     0.00000     1.95811  0.0
     88     83     92     93   5     0.00000     0.00000     1.25520  0.0
     88     83     92     96   5     0.00000     0.00000     1.25520  0.0
     88     83     92     97   5     0.00000     0.00000     1.25520  0.0
     83     84     85     89   5     0.00000     0.00000     3.10034  0.0
     83     84     85     90   5     0.00000     0.00000     3.10034  0.0
     83     84     85     91   5     0.00000     0.00000     3.10034  0.0
     83     92     93     94   5     5.25092    -2.58990     2.28446  0.0
     83     92     93     98   5     0.00000     0.00000     1.25520  0.0
     83     92     93    102   5     4.74884    -0.63178     1.67360  0.0
     96     92     93     94   5     0.00000     0.00000     1.95811  0.0
     96     92     93     98   5     0.00000     0.00000     1.25520  0.0
     96     92     93    102   5     0.00000     0.00000     1.25520  0.0
     97     92     93     94   5     0.00000     0.00000     1.95811  0.0
     97     92     93     98   5     0.00000     0.00000     1.25520  0.0
     97     92     93    102   5     0.00000     0.00000     1.25520  0.0
     92     93     94     95   5     0.52300    -0.09205     2.34722  0.0
     98     93     94     95   5     0.00000     0.00000     3.10034  0.0
    102     93     94     95   5     0.52300    -0.09205     2.34722  0.0
     92     93    102    103   5     4.74884    -0.63178     1.67360  0.0
     92     93    102    106   5     0.00000     0.00000     1.25520  0.0
     92     93    102    107   5     0.00000     0.00000     1.25520  0.0
     94     93    102    103   5     5.25092    -2.58990     2.28446  0.0
     94     93    102    106   5     0.00000     0.00000     1.95811  0.0
     94     93    102    107   5     0.00000     0.00000     1.95811  0.0
     98     93    102    103   5     0.00000     0.00000     1.25520  0.0
     98     93    102    106   5     0.00000     0.00000     1.25520  0.0
     98     93    102    107   5     0.00000     0.00000     1.25520  0.0
     93     94     95     99   5     0.00000     0.00000     3.10034  0.0
     93     94     95    100   5     0.00000     0.00000     3.10034  0.0
     93     94     95    101   5     0.00000     0.00000     3.10034  0.0
     93    102    103    104   5     5.25092    -2.58990     2.28446  0.0
     93    102    103    108   5     0.00000     0.00000     1.25520  0.0
     93    102    103    112   5     4.74884    -0.63178     1.67360  0.0
    106    102    103    104   5     0.00000     0.00000     1.95811  0.0
    106    102    103    108   5     0.00000     0.00000     1.25520  0.0
    106    102    103    112   5     0.00000     0.00000     1.25520  0.0
    107    102    103    104   5     0.00000     0.00000     1.95811  0.0
    107    102    103    108   5     0.00000     0.00000     1.25520  0.0
    107    102    103    112   5     0.00000     0.00000     1.25520  0.0
    102    103    104    105   5     0.52300    -0.09205     2.34722  0.0
    108    103    104    105   5     0.00000     0.00000     3.10034  0.0
    112    103    104    105   5     0.52300    -0.09205     2.34722  0.0
    102    103    112    113   5     4.74884    -0.63178     1.67360  0.0
    102    103    112    116   5     0.00000     0.00000     1.25520  0.0
    102    103    112    117   5     0.00000     0.00000     1.25520  0.0
    104    103    112    113   5     5.25092    -2.58990     2.28446  0.0
    104    103    112    116   5     0.00000     0.00000     1.95811  0.0
    104    103    112    117   5     0.00000     0.00000     1.95811  0.0
    108    103    112    113   5     0.00000     0.00000     1.25520  0.0
    108    103    112    116   5     0.00000     0.00000     1.25520  0.0
    108    103    112    117   5     0.00000     0.00000     1.25520  0.0
    103    104    105    109   5     0.00000     0.00000     3.10034  0.0
    103    104    105    110   5     0.00000     0.00000     3.10034  0.0
    103    104    105    111   5     0.00000     0.00000     3.10034  0.0
    103    112    113    114   5     5.25092    -2.58990     2.28446  0.0
    103    112    113    118   5     0.00000     0.00000     1.25520  0.0
    103    112    113    122   5     4.74884    -0.63178     1.67360  0.0
    116    112    113    114   5     0.00000     0.00000     1.95811  0.0
    116    112    113    118   5     0.00000     0.00000     1.25520  0.0
    116    112    113    122   5     0.00000     0.00000     1.25520  0.0
    117    112    113    114   5     0.00000     0.00000     1.95811  0.0
    117    112    113    118   5     0.00000     0.00000     1.25520  0.0
    117    112    113    122   5     0.00000     0.00000     1.25520  0.0
    112    113    114    115   5     0.52300    -0.09205     2.34722  0.0
    118    113    114    115   5     0.00000     0.00000     3.10034  0.0
    122    113    114    115   5     0.52300    -0.09205     2.34722  0.0
    112    113    122    123   5     4.74884    -0.63178     1.67360  0.0
    112    113    122    126   5     0.00000     0.00000     1.25520  0.0
    112    113    122    127   5     0.00000     0.00000     1.25520  0.0
    114    113    122    123   5     5.25092    -2.58990     2.28446  0.0
    114    113    122    126   5     0.00000     0.00000     1.95811  0.0
    114    113    122    127   5     0.00000     0.00000     1.95811  0.0
    118    113    122    123   5     0.00000     0.00000     1.25520  0.0
    118    113    122    126   5     0.00000     0.00000     1.25520  0.0
    118    113    122    127   5     0.00000     0.00000     1.25520  0.0
    113    114    115    119   5     0.00000     0.00000     3.10034  0.0
    113    114    115    120   5     0.00000     0.00000     3.10034  0.0
    113    114    115    121   5     0.00000     0.00000     3.10034  0.0
    113    122    123    124   5     5.25092    -2.58990     2.28446  0.0
    113    122    123    128   5     0.00000     0.00000     1.25520  0.0
    113    122    123    132   5     4.74884    -0.63178     1.67360  0.0
    126    122    123    124   5     0.00000     0.00000     1.95811  0.0
    126    122    123    128   5     0.00000     0.00000     1.25520  0.0
    126    122    123    132   5     0.00000     0.00000     1.25520  0.0
    127    122    123    124   5     0.00000     0.00000     1.95811  0.0
    127    122    123    128   5     0.00000     0.00000     1.25520  0.0
    127    122    123    132   5     0.00000     0.00000     1.25520  0.0
    122    123    124    125   5     0.52300    -0.09205     2.34722  0.0
    128    123    124    125   5     0.00000     0.00000     3.10034  0.0
    132    123    124    125   5     0.52300    -0.09205     2.34722  0.0
    122    123    132    133   5     4.74884    -0.63178     1.67360  0.0
    122    123    132    136   5     0.00000     0.00000     1.25520  0.0
    122    123    132    137   5     0.00000     0.00000     1.25520  0.0
    124    123    132    133   5     5.25092    -2.58990     2.28446  0.0
    124    123    132    136   5     0.00000     0.00000     1.95811  0.0
    124    123    132    137   5     0.00000     0.00000     1.95811  0.0
    128    123    132    133   5     0.00000     0.00000     1.25520  0.0
    128    123    132    136   5     0.00000     0.00000     1.25520  0.0
    128    123    132    137   5     0.00000     0.00000     1.25520  0.0
    123    124    125    129   5     0.00000     0.00000     3.10034  0.0
    123    124    125    130   5     0.00000     0.00000     3.10034  0.0
    123    124    125    131   5     0.00000     0.00000     3.10034  0.0
    123    132    133    134   5     5.25092    -2.58990     2.28446  0.0
    123    132    133    138   5     0.00000     0.00000     1.25520  0.0
    123    132    133    142   5     4.74884    -0.63178     1.67360  0.0
    136    132    133    134   5     0.00000     0.00000     1.95811  0.0
    136    132    133    138   5     0.00000     0.00000     1.25520  0.0
    136    132    133    142   5     0.00000     0.00000     1.25520  0.0
    137    132    133    134   5     0.00000     0.00000     1.95811  0.0
    137    132    133    138   5     0.00000     0.00000     1.25520  0.0
    137    132    133    142   5     0.00000     0.00000     1.25520  0.0
    132    133    134    135   5     0.52300    -0.09205     2.34722  0.0
    138    133    134    135   5     0.00000     0.00000     3.10034  0.0
    142    133    134    135   5     0.52300    -0.09205     2.34722  0.0
    132    133    142    143   5     4.74884    -0.63178     1.67360  0.0
    132    133    142    146   5     0.00000     0.00000     1.25520  0.0
    132    133    142    147   5     0.00000     0.00000     1.25520  0.0
    134    133    142    143   5     5.25092    -2.58990     2.28446  0.0
    134    133    142    146   5     0.00000     0.00000     1.95811  0.0
    134    133    142    147   5     0.00000     0.00000     1.95811  0.0
    138    133    142    143   5     0.00000     0.00000     1.25520  0.0
    138    133    142    146   5     0.00000     0.00000     1.25520  0.0
    138    133    142    147   5     0.00000     0.00000     1.25520  0.0
    133    134    135    139   5     0.00000     0.00000     3.10034  0.0
    133    134    135    140   5     0.00000     0.00000     3.10034  0.0
    133    134    135    141   5     0.00000     0.00000     3.10034  0.0
    133    142    143    144   5     5.25092    -2.58990     2.28446  0.0
    133    142    143    148   5     0.00000     0.00000     1.25520  0.0
    133    142    143    152   5     4.74884    -0.63178     1.67360  0.0
    146    142    143    144   5     0.00000     0.00000     1.95811  0.0
    146    142    143    148   5     0.00000     0.00000     1.25520  0.0
    146    142    143    152   5     0.00000     0.00000     1.25520  0.0
    147    142    143    144   5     0.00000     0.00000     1.95811  0.0
    147    142    143    148   5     0.00000     0.00000     1.25520  0.0
    147    142    143    152   5     0.00000     0.00000     1.25520  0.0
    142    143    144    145   5     0.52300    -0.09205     2.34722  0.0
    148    143    144    145   5     0.00000     0.00000     3.10034  0.0
    152    143    144    145   5     0.52300    -0.09205     2.34722  0.0
    142    143    152    153   5     4.74884    -0.63178     1.67360  0.0
    142    143    152    156   5     0.00000     0.00000     1.25520  0.0
    142    143    152    157   5     0.00000     0.00000     1.25520  0.0
    144    143    152    153   5     5.25092    -2.58990     2.28446  0.0
    144    143    152    156   5     0.00000     0.00000     1.95811  0.0
    144    143    152    157   5     0.00000     0.00000     1.95811  0.0
    148    143    152    153   5     0.00000     0.00000     1.25520  0.0
    148    143    152    156   5     0.00000     0.00000     1.25520  0.0
    148    143    152    157   5     0.00000     0.00000     1.25520  0.0
    143    144    145    149   5     0.00000     0.00000     3.10034  0.0
    143    144    145    150   5     0.00000     0.00000     3.10034  0.0
    143    144    145    151   5     0.00000     0.00000     3.10034  0.0
    143    152    153    154   5     5.25092    -2.58990     2.28446  0.0
    143    152    153    158   5     0.00000     0.00000     1.25520  0.0
    143    152    153    162   5     4.74884    -0.63178     1.67360  0.0
    156    152    153    154   5     0.00000     0.00000     1.95811  0.0
    156    152    153    158   5     0.00000     0.00000     1.25520  0.0
    156    152    153    162   5     0.00000     0.00000     1.25520  0.0
    157    152    153    154   5     0.00000     0.00000     1.95811  0.0
    157    152    153    158   5     0.00000     0.00000     1.25520  0.0
    157    152    153    162   5     0.00000     0.00000     1.25520  0.0
    152    153    154    155   5     0.52300    -0.09205     2.34722  0.0
    158    153    154    155   5     0.00000     0.00000     3.10034  0.0
    162    153    154    155   5     0.52300    -0.09205     2.34722  0.0
    152    153    162    163   5     4.74884    -0.63178     1.67360  0.0
    152    153    162    166   5     0.00000     0.00000     1.25520  0.0
    152    153    162    167   5     0.00000     0.00000     1.25520  0.0
    154    153    162    163   5     5.25092    -2.58990     2.28446  0.0
    154    153    162    166   5     0.00000     0.00000     1.95811  0.0
    154    153    162    167   5     0.00000     0.00000     1.95811  0.0
    158    153    162    163   5     0.00000     0.00000     1.25520  0.0
    158    153    162    166   5     0.00000     0.00000     1.25520  0.0
    158    153    162    167   5     0.00000     0.00000     1.25520  0.0
    153    154    155    159   5     0.00000     0.00000     3.10034  0.0
    153    154    155    160   5     0.00000     0.00000     3.10034  0.0
    153    154    155    161   5     0.00000     0.00000     3.10034  0.0
    153    162    163    164   5     5.25092    -2.58990     2.28446  0.0
    153    162    163    168   5     0.00000     0.00000     1.25520  0.0
    153    162    163    172   5     4.74884    -0.63178     1.67360  0.0
    166    162    163    164   5     0.00000     0.00000     1.95811  0.0
    166    162    163    168   5     0.00000     0.00000     1.25520  0.0
    166    162    163    172   5     0.00000     0.00000     1.25520  0.0
    167    162    163    164   5     0.00000     0.00000     1.95811  0.0
    167    162    163    168   5     0.00000     0.00000     1.25520  0.0
    167    162    163    172   5     0.00000     0.00000     1.25520  0.0
    162    163    164    165   5     0.52300    -0.09205     2.34722  0.0
    168    163    164    165   5     0.00000     0.00000     3.10034  0.0
    172    163    164    165   5     0.52300    -0.09205     2.34722  0.0
    162    163    172    173   5     4.74884    -0.63178     1.67360  0.0
    162    163    172    176   5     0.00000     0.00000     1.25520  0.0
    162    163    172    177   5     0.00000     0.00000     1.25520  0.0
    164    163    172    173   5     5.25092    -2.58990     2.28446  0.0
    164    163    172    176   5     0.00000     0.00000     1.95811  0.0
    164    163    172    177   5     0.00000     0.00000     1.95811  0.0
    168    163    172    173   5     0.00000     0.00000     1.25520  0.0
    168    163    172    176   5     0.00000     0.00000     1.25520  0.0
    168    163    172    177   5     0.00000     0.00000     1.25520  0.0
    163    164    165    169   5     0.00000     0.00000     3.10034  0.0
    163    164    165    170   5     0.00000     0.00000     3.10034  0.0
    163    164    165    171   5     0.00000     0.00000     3.10034  0.0
    163    172    173    174   5     5.25092    -2.58990     2.28446  0.0
    163    172    173    178   5     0.00000     0.00000     1.25520  0.0
    163    172    173    182   5     4.74884    -0.63178     1.67360  0.0
    176    172    173    174   5     0.00000     0.00000     1.95811  0.0
    176    172    173    178   5     0.00000     0.00000     1.25520  0.0
    176    172    173    182   5     0.00000     0.00000     1.25520  0.0
    177    172    173    174   5     0.00000     0.00000     1.95811  0.0
    177    172    173    178   5     0.00000     0.00000     1.25520  0.0
    177    172    173    182   5     0.00000     0.00000     1.25520  0.0
    172    173    174    175   5     0.52300    -0.09205     2.34722  0.0
    178    173    174    175   5     0.00000     0.00000     3.10034  0.0
    182    173    174    175   5     0.52300    -0.09205     2.34722  0.0
    172    173    182    183   5     4.74884    -0.63178     1.67360  0.0
    172    173    182    186   5     0.00000     0.00000     1.25520  0.0
    172    173    182    187   5     0.00000     0.00000     1.25520  0.0
    174    173    182    183   5     5.25092    -2.58990     2.28446  0.0
    174    173    182    186   5     0.00000     0.00000     1.95811  0.0
    174    173    182    187   5     0.00000     0.00000     1.95811  0.0
    178    173    182    183   5     0.00000     0.00000     1.25520  0.0
    178    173    182    186   5     0.00000     0.00000     1.25520  0.0
    178    173    182    187   5     0.00000     0.00000     1.25520  0.0
    173    174    175    179   5     0.00000     0.00000     3.10034  0.0
    173    174    175    180   5     0.00000     0.00000     3.10034  0.0
    173    174    175    181   5     0.00000     0.00000     3.10034  0.0
    173    182    183    184   5     5.25092    -2.58990     2.28446  0.0
    173    182    183    188   5     0.00000     0.00000     1.25520  0.0
    173    182    183    192   5     4.74884    -0.63178     1.67360  0.0
    186    182    183    184   5     0.00000     0.00000     1.95811  0.0
    186    182    183    188   5     0.00000     0.00000     1.25520  0.0
    186    182    183    192   5     0.00000     0.00000     1.25520  0.0
    187    182    183    184   5     0.00000     0.00000     1.95811  0.0
    187    182    183    188   5     0.00000     0.00000     1.25520  0.0
    187    182    183    192   5     0.00000     0.00000     1.25520  0.0
    182    183    184    185   5     0.52300    -0.09205     2.34722  0.0
    188    183    184    185   5     0.00000     0.00000     3.10034  0.0
    192    183    184    185   5     0.52300    -0.09205     2.34722  0.0
    182    183    192    193   5     4.74884    -0.63178     1.67360  0.0
    182    183    192    196   5     0.00000     0.00000     1.25520  0.0
    182    183    192    197   5     0.00000     0.00000     1.25520  0.0
    184    183    192    193   5     5.25092    -2.58990     2.28446  0.0
    184    183    192    196   5     0.00000     0.00000     1.95811  0.0
    184    183    192    197   5     0.00000     0.00000     1.95811  0.0
    188    183    192    193   5     0.00000     0.00000     1.25520  0.0
    188    183    192    196   5     0.00000     0.00000     1.25520  0.0
    188    183    192    197   5     0.00000     0.00000     1.25520  0.0
    183    184    185    189   5     0.00000     0.00000     3.10034  0.0
    183    184    185    190   5     0.00000     0.00000     3.10034  0.0
    183    184    185    191   5     0.00000     0.00000     3.10034  0.0
    183    192    193    194   5     5.25092    -2.58990     2.28446  0.0
    183    192    193    198   5     0.00000     0.00000     1.25520  0.0
    183    192    193    202   5     0.00000     0.00000     1.25520  0.0
    196    192    193    194   5     0.00000     0.00000     1.95811  0.0
    196    192    193    198   5     0.00000     0.00000     1.25520  0.0
    196    192    193    202   5     0.00000     0.00000     1.25520  0.0
    197    192    193    194   5     0.00000     0.00000     1.95811  0.0
    197    192    193    198   5     0.00000     0.00000     1.25520  0.0
    197    192    193    202   5     0.00000     0.00000     1.25520  0.0
    192    193    194    195   5     0.52300    -0.09205     2.34722  0.0
    198    193    194    195   5     0.00000     0.00000     3.10034  0.0
    202    193    194    195   5     0.00000     0.00000     3.10034  0.0
    193    194    195    199   5     0.00000     0.00000     3.10034  0.0
    193    194    195    200   5     0.00000     0.00000     3.10034  0.0
    193    194    195    201   5     0.00000     0.00000     3.10034  0.0
